Title
82341
    1SAPS     N    1   6.064   3.574  10.893 -0.3692 -0.1938  0.5191
    1SAPS   HN1    2   6.133   3.530  10.829 -2.2326 -2.1314 -0.2786
    1SAPS   HN2    3   6.001   3.497  10.923  0.1136 -0.1874  1.6022
    1SAPS   HN3    4   6.003   3.642  10.843  0.5533  0.8432  0.7704
    1SAPS   C12    5   6.146   3.629  11.011 -0.1089  0.3535 -0.3713
    1SAPS  H12A    6   6.086   3.707  11.054  1.3960 -0.2612  3.2098
    1SAPS   C13    7   6.173   3.522  11.126  0.3788 -0.3368  0.6989
    1SAPS  O13A    8   6.100   3.418  11.121 -0.3596 -0.7440 -0.0496
    1SAPS  O13B    9   6.230   3.552  11.233  0.0952 -0.1705  0.1411
    1SAPS   C11   10   6.290   3.673  10.958  0.2056 -0.1591 -0.3565
    1SAPS  H11A   11   6.355   3.590  10.924  2.7365  0.7066  1.9334
    1SAPS  H11B   12   6.350   3.721  11.039 -1.7759  0.8414  0.6117
    1SAPS     P   13   6.374   3.853  10.775  0.2745  0.2654 -0.4924
    1SAPS   O13   14   6.349   3.993  10.828 -1.1061  0.4159 -0.0178
    1SAPS   O14   15   6.511   3.797  10.791  0.0832  0.1374 -0.1622
    1SAPS   O12   16   6.271   3.768  10.851 -0.0276  0.1289 -0.0736
    1SAPS   O11   17   6.336   3.847  10.625  0.2508  0.1463  0.1707
    1SAPS    C1   18   6.198   3.809  10.598 -0.4504 -0.1433  0.4243
    1SAPS    HA   19   6.179   3.702  10.620 -2.6503  0.1426  0.0926
    1SAPS    HB   20   6.126   3.859  10.666 -1.1669 -1.9896  1.0923
    1SAPS    C2   21   6.175   3.845  10.450  0.4483 -0.7390  0.6169
    1SAPS    HS   22   6.076   3.813  10.411  0.3276  0.2994  0.0340
    1SAPS   O21   23   6.280   3.787  10.368 -0.0561  0.3346 -0.2052
    1SAPS   C21   24   6.272   3.652  10.359  0.2618 -0.6714  0.1942
    1SAPS   O22   25   6.173   3.584  10.386  0.3365 -0.2686 -0.1991
    1SAPS   C22   26   6.413   3.596  10.330 -0.9871 -0.8540 -0.5476
    1SAPS   H2R   27   6.467   3.663  10.260  0.2582 -0.2624  0.9268
    1SAPS   H2S   28   6.476   3.593  10.422 -0.7955  0.3660 -0.6280
    1SAPS    C3   29   6.172   3.998  10.416 -0.2090  0.3217 -0.3676
    1SAPS    HX   30   6.270   4.038  10.449 -0.8302 -0.9680  3.4772
    1SAPS    HY   31   6.091   4.042  10.478 -2.2606 -2.7158 -0.6583
    1SAPS   O31   32   6.150   4.020  10.271 -0.2225  0.2431  0.1972
    1SAPS   C31   33   6.021   4.007  10.231 -0.1695  0.6826  0.2448
    1SAPS   O32   34   5.932   3.972  10.302  0.1554 -0.6217  0.9864
    1SAPS   C32   35   6.014   4.036  10.079 -0.0127  0.4210 -0.2865
    1SAPS   H2X   36   6.032   3.948  10.013 -1.0998  1.5524 -2.1575
    1SAPS   H2Y   37   6.070   4.129  10.061  2.0209 -0.7235 -0.1970
    1SAPS   C23   38   6.395   3.450  10.269  0.0295  0.6774 -0.5593
    1SAPS   H3R   39   6.340   3.391  10.345  1.6961 -0.9913 -0.5574
    1SAPS   H3S   40   6.495   3.401  10.263  1.1973  3.0660 -2.7288
    1SAPS   C24   41   6.340   3.439  10.130  0.2244 -1.0250 -0.4028
    1SAPS   H4R   42   6.242   3.487  10.149  1.9350  1.9689  1.5980
    1SAPS   H4S   43   6.323   3.331  10.106  0.5801 -0.7946 -1.7821
    1SAPS   C25   44   6.408   3.515  10.015  0.2961 -0.2806 -0.2690
    1SAPS   H5R   45   6.448   3.611  10.050  0.2533 -0.4380  0.2209
    1SAPS   C26   46   6.402   3.470   9.887  0.0614 -0.2263 -0.4480
    1SAPS   H6R   47   6.465   3.525   9.815  1.4795  0.9996  1.6136
    1SAPS   C27   48   6.338   3.340   9.843  0.4880 -0.4768 -0.1681
    1SAPS   H7R   49   6.270   3.370   9.761 -0.4696 -0.8582  0.4696
    1SAPS   H7S   50   6.267   3.286   9.909 -1.7807  1.4847 -0.8703
    1SAPS   C28   51   6.448   3.245   9.810 -0.5714 -0.3422 -0.3626
    1SAPS   H8R   52   6.503   3.206   9.897 -0.7312 -2.9688 -1.3675
    1SAPS   C29   53   6.481   3.217   9.678  0.3177  0.5402 -0.5643
    1SAPS   H9R   54   6.565   3.151   9.650  0.6798  2.0749 -3.4873
    1SAPS  C210   55   6.422   3.257   9.542 -0.8247  0.0321 -0.4248
    1SAPS  H10R   56   6.314   3.281   9.537 -0.5230  1.6632  0.3514
    1SAPS  H10S   57   6.444   3.177   9.468 -0.4326 -0.1784 -0.0883
    1SAPS  C211   58   6.509   3.366   9.495 -0.1260 -0.1538  0.3891
    1SAPS  H11R   59   6.540   3.446   9.563 -0.2593  1.4450 -1.3394
    1SAPS  C212   60   6.547   3.386   9.367 -0.2163 -0.3058  0.8314
    1SAPS  H12R   61   6.616   3.470   9.350 -1.1460 -0.1043 -2.8497
    1SAPS  C213   62   6.515   3.304   9.245 -0.1937 -0.0432 -0.1703
    1SAPS  H13R   63   6.500   3.199   9.277  0.4898 -0.4857 -1.2481
    1SAPS  H13S   64   6.596   3.315   9.169  0.3719 -0.1940  0.4019
    1SAPS  C214   65   6.380   3.356   9.193  0.1377  0.0756 -0.0188
    1SAPS  H14R   66   6.329   3.432   9.255  0.6580  1.6495 -1.4408
    1SAPS  C215   67   6.314   3.309   9.082 -1.0800 -0.0333  0.6167
    1SAPS  H15R   68   6.211   3.330   9.050 -0.7591 -0.7479 -1.0168
    1SAPS  C216   69   6.363   3.197   8.994 -0.3612 -0.9310 -0.4815
    1SAPS  H16R   70   6.461   3.161   9.032 -0.0455 -0.1139 -0.4947
    1SAPS  H16S   71   6.384   3.229   8.890 -1.3896  1.3549 -0.0363
    1SAPS  C217   72   6.270   3.066   8.989 -0.9915 -0.4308  0.5342
    1SAPS  H17R   73   6.272   3.011   9.085 -0.1950  0.9119  1.3246
    1SAPS  H17S   74   6.317   3.003   8.911  0.3942  0.7223  0.3791
    1SAPS  C218   75   6.122   3.083   8.948 -1.1796 -0.3902 -0.1641
    1SAPS  H18R   76   6.078   3.141   9.031 -1.9323  1.9282 -2.0883
    1SAPS  H18S   77   6.082   2.979   8.942  1.4867 -1.5019 -0.1863
    1SAPS  C219   78   6.111   3.159   8.818 -0.3692  0.4860  0.2411
    1SAPS  H19R   79   6.190   3.237   8.810  1.2381 -1.1308 -0.2701
    1SAPS  H19S   80   6.009   3.202   8.817  0.5267  2.7338 -0.2006
    1SAPS  C220   81   6.140   3.065   8.695  0.4413 -0.0029 -0.6709
    1SAPS  H20R   82   6.244   3.082   8.660  0.9293  1.6549  1.3447
    1SAPS  H20S   83   6.081   3.107   8.611 -1.2180 -1.1793 -0.1556
    1SAPS  H20T   84   6.120   2.961   8.726  0.0727 -0.4677 -2.3693
    1SAPS   C33   85   5.876   4.074  10.042 -0.2076  0.1633  0.2829
    1SAPS   H3X   86   5.850   4.161  10.106 -0.0814  0.2597  0.2041
    1SAPS   H3Y   87   5.818   3.980  10.055  1.0074 -0.7390 -0.6327
    1SAPS   C34   88   5.869   4.117   9.896  0.3894 -0.0873 -0.4359
    1SAPS   H4X   89   5.965   4.164   9.865 -0.4130  2.2314  0.3846
    1SAPS   H4Y   90   5.788   4.190   9.878  0.3049  0.1628  0.9121
    1SAPS   C35   91   5.855   3.994   9.798 -0.0918  0.5400 -0.3493
    1SAPS   H5X   92   5.777   3.920   9.826  0.7030 -0.4226 -0.6044
    1SAPS   H5Y   93   5.947   3.931   9.797 -0.5433 -0.1230 -0.7305
    1SAPS   C36   94   5.813   4.040   9.662 -0.6202 -0.1197 -0.7220
    1SAPS   H6X   95   5.890   4.104   9.613 -0.1654 -1.4071 -1.7718
    1SAPS   H6Y   96   5.732   4.114   9.677  0.0358  0.3301  0.7585
    1SAPS   C37   97   5.760   3.942   9.557 -0.6960 -0.0026 -0.1802
    1SAPS   H7X   98   5.673   3.889   9.602  1.2576 -0.5226  3.3296
    1SAPS   H7Y   99   5.831   3.858   9.541  0.8694  1.1587  0.4197
    1SAPS   C38  100   5.727   3.991   9.415 -0.8339 -0.3017 -0.3391
    1SAPS   H8X  101   5.651   4.072   9.415  0.9834  1.4881  0.5787
    1SAPS   H8Y  102   5.679   3.905   9.363 -2.4637  0.3118  0.0988
    1SAPS   C39  103   5.852   4.038   9.343  0.2137  0.1340 -0.4720
    1SAPS   H9X  104   5.921   3.952   9.345  0.1467  0.0916  0.8812
    1SAPS   H9Y  105   5.893   4.123   9.402 -2.3463  0.6417  0.7223
    1SAPS  C310  106   5.830   4.077   9.193  0.3008 -0.6027 -0.2803
    1SAPS  H10X  107   5.920   4.138   9.169 -0.2251  0.9079  1.3158
    1SAPS  H10Y  108   5.742   4.145   9.198  0.4090 -0.4987  0.4557
    1SAPS  C311  109   5.817   3.968   9.090 -0.1783  0.1169 -0.7062
    1SAPS  H11X  110   5.755   3.883   9.125  1.1148  0.7941  3.9827
    1SAPS  H11Y  111   5.914   3.920   9.068 -0.5601 -0.2879 -1.5447
    1SAPS  C312  112   5.746   4.022   8.960 -0.3294  0.0598  0.2219
    1SAPS  H12X  113   5.657   4.073   9.002  0.7236  3.0252 -0.9555
    1SAPS  H12Y  114   5.708   3.927   8.916 -1.3432  0.7098 -0.3312
    1SAPS  C313  115   5.834   4.111   8.873 -0.0302  0.6693 -0.6922
    1SAPS  H13X  116   5.922   4.053   8.837 -0.6328  0.2622 -1.5506
    1SAPS  H13Y  117   5.882   4.181   8.945  1.1622  0.1524 -0.9476
    1SAPS  C314  118   5.770   4.183   8.752  0.6955  0.4358 -0.1433
    1SAPS  H14X  119   5.670   4.226   8.773  0.8648 -0.1910  2.2571
    1SAPS  H14Y  120   5.747   4.106   8.675  0.1250  1.4692 -1.0423
    1SAPS  C315  121   5.859   4.277   8.676 -0.6536 -0.5910  0.1871
    1SAPS  H15X  122   5.964   4.242   8.668  0.0710  0.8519  2.3070
    1SAPS  H15Y  123   5.870   4.374   8.730 -1.1713 -1.0738  1.1732
    1SAPS  C316  124   5.798   4.304   8.537  0.2902 -0.1670 -0.8415
    1SAPS  H16X  125   5.692   4.334   8.547 -0.2735 -1.9228 -1.1750
    1SAPS  H16Y  126   5.789   4.211   8.478 -1.4016 -0.7115  0.1956
    1SAPS  C317  127   5.879   4.408   8.464  0.4191  0.5067  0.4967
    1SAPS  H17X  128   5.817   4.415   8.373 -0.9309  1.5106  1.4525
    1SAPS  H17Y  129   5.979   4.371   8.433  0.0020 -1.0222  0.8957
    1SAPS  C318  130   5.888   4.549   8.528  0.1184 -0.5515  1.1991
    1SAPS  H18X  131   5.981   4.553   8.589  0.9644  0.8798 -0.1203
    1SAPS  H18Y  132   5.800   4.576   8.591  0.3757 -1.0280  1.7813
    1SAPS  H18Z  133   5.901   4.625   8.449 -1.4968  2.0682  3.2649
    2SAPS     N  134   5.924   4.251  10.835  0.0497 -0.1527  0.4095
    2SAPS   HN1  135   5.903   4.201  10.747  1.0695  2.9573 -1.7962
    2SAPS   HN2  136   5.834   4.258  10.886 -0.3715 -1.3743 -0.1449
    2SAPS   HN3  137   5.959   4.347  10.812  1.3679 -0.7264 -0.0504
    2SAPS   C12  138   6.019   4.162  10.914  0.4800 -0.0455  0.1057
    2SAPS  H12A  139   6.123   4.174  10.887  1.3025 -1.9846  2.0871
    2SAPS   C13  140   6.010   4.197  11.062  0.2190  0.7027  0.5504
    2SAPS  O13A  141   5.926   4.274  11.116 -0.1609 -0.3760 -0.3914
    2SAPS  O13B  142   6.079   4.129  11.138 -0.2829  0.4307 -0.2226
    2SAPS   C11  143   5.991   4.016  10.888  0.6919 -0.1304 -0.1203
    2SAPS  H11A  144   6.057   3.954  10.953 -0.7253 -0.0486  1.4550
    2SAPS  H11B  145   6.020   3.991  10.783  0.8844 -2.5315  0.4431
    2SAPS     P  146   5.788   3.858  10.827  0.2348 -0.0210  0.0279
    2SAPS   O13  147   5.890   3.750  10.803 -0.4504 -0.1847  0.0357
    2SAPS   O14  148   5.665   3.814  10.892 -0.8106 -0.3399  0.2508
    2SAPS   O12  149   5.853   3.969  10.917 -0.0017  0.0282  0.2639
    2SAPS   O11  150   5.765   3.916  10.685  0.1479  0.2852 -0.9124
    2SAPS    C1  151   5.642   3.977  10.656 -0.2622  0.4958  0.5094
    2SAPS    HA  152   5.595   4.029  10.742 -2.4381  0.8358 -0.7856
    2SAPS    HB  153   5.671   4.059  10.587  4.2791 -0.9876  0.3540
    2SAPS    C2  154   5.544   3.891  10.565 -0.5016 -0.0664 -0.2903
    2SAPS    HS  155   5.522   3.800  10.624 -0.8026  0.2080  0.0263
    2SAPS   O21  156   5.608   3.874  10.434 -0.0979 -0.3419 -0.1177
    2SAPS   C21  157   5.642   3.746  10.410 -0.1970 -0.0700 -1.1233
    2SAPS   O22  158   5.617   3.652  10.486 -0.2925 -0.2921 -0.4899
    2SAPS   C22  159   5.696   3.742  10.270 -1.5089 -0.5817  1.1031
    2SAPS   H2R  160   5.624   3.780  10.195  1.8980  1.8957 -1.2073
    2SAPS   H2S  161   5.789   3.802  10.274 -1.4536 -0.5900  5.6745
    2SAPS    C3  162   5.408   3.970  10.557 -0.2742 -0.4684 -0.0659
    2SAPS    HX  163   5.430   4.076  10.532 -1.0196  0.2265  1.9746
    2SAPS    HY  164   5.361   3.978  10.658  1.1245 -1.9772  0.7464
    2SAPS   O31  165   5.324   3.921  10.454  0.0854  0.2549 -0.2010
    2SAPS   C31  166   5.215   3.862  10.477 -0.1673 -0.6918 -0.2431
    2SAPS   O32  167   5.176   3.819  10.584  0.3792 -0.3473  0.1874
    2SAPS   C32  168   5.137   3.852  10.348  0.4394  0.9009  0.7593
    2SAPS   H2X  169   5.043   3.793  10.360 -0.3364  1.0222 -3.4054
    2SAPS   H2Y  170   5.200   3.791  10.280 -0.1956 -1.4879  2.2106
    2SAPS   C23  171   5.739   3.606  10.221  0.1299 -0.3957 -0.6374
    2SAPS   H3R  172   5.651   3.542  10.196 -1.8058  2.6488 -2.2406
    2SAPS   H3S  173   5.795   3.548  10.297 -2.1532  0.5028  1.8834
    2SAPS   C24  174   5.819   3.616  10.089  0.0355 -0.5733 -0.3255
    2SAPS   H4R  175   5.773   3.689  10.019  0.6751 -0.6397 -0.8304
    2SAPS   H4S  176   5.808   3.514  10.045  0.9389 -1.1348  0.7161
    2SAPS   C25  177   5.966   3.641  10.132  0.3234 -0.5816 -0.5307
    2SAPS   H5R  178   5.983   3.669  10.237 -0.8853 -2.3202  0.1685
    2SAPS   C26  179   6.065   3.663  10.046  0.2332  0.4686  0.6885
    2SAPS   H6R  180   6.164   3.683  10.089  0.6652 -0.8552  0.3383
    2SAPS   C27  181   6.044   3.656   9.898  0.5150 -0.1057 -0.3952
    2SAPS   H7R  182   5.954   3.710   9.861 -0.7342 -2.5660 -1.1617
    2SAPS   H7S  183   6.041   3.548   9.873  0.0623 -1.1755  3.6261
    2SAPS   C28  184   6.158   3.719   9.827  0.1203 -1.5130 -0.2285
    2SAPS   H8R  185   6.237   3.758   9.893  0.0789 -5.0411  2.1408
    2SAPS   C29  186   6.171   3.750   9.697  0.2324  0.0875 -0.0687
    2SAPS   H9R  187   6.271   3.785   9.667 -0.7464  1.2432 -2.2066
    2SAPS  C210  188   6.079   3.719   9.583 -0.3664 -0.5931 -0.6247
    2SAPS  H10R  189   6.071   3.811   9.521 -0.9965  1.2080  1.9628
    2SAPS  H10S  190   5.980   3.713   9.634  0.1610  2.7036  1.0464
    2SAPS  C211  191   6.115   3.586   9.510 -0.5598 -0.5465 -0.7654
    2SAPS  H11R  192   6.163   3.515   9.579 -1.9951  0.0388  0.9335
    2SAPS  C212  193   6.098   3.551   9.386 -0.7687  0.6342 -0.5962
    2SAPS  H12R  194   6.121   3.445   9.366 -1.7166  0.5138 -1.0682
    2SAPS  C213  195   6.034   3.624   9.277 -0.4847 -0.2661  1.1523
    2SAPS  H13R  196   5.946   3.680   9.315  1.2898  4.8155 -1.3485
    2SAPS  H13S  197   5.988   3.547   9.211  0.2142 -1.3500  1.8763
    2SAPS  C214  198   6.125   3.727   9.208 -0.1569  0.0175  0.5744
    2SAPS  H14R  199   6.166   3.808   9.270  0.1159  0.0962  0.2898
    2SAPS  C215  200   6.180   3.721   9.082 -0.7695  0.1538  0.1766
    2SAPS  H15R  201   6.228   3.814   9.049  1.1346 -1.0642 -0.6597
    2SAPS  C216  202   6.153   3.618   8.976  0.2923 -0.9428  0.1677
    2SAPS  H16R  203   6.083   3.540   9.014  0.2865 -0.7316  0.5952
    2SAPS  H16S  204   6.238   3.560   8.935  0.1399 -2.2440  1.6096
    2SAPS  C217  205   6.088   3.684   8.850 -0.2500 -0.5408 -0.0034
    2SAPS  H17R  206   6.157   3.745   8.787 -1.3504 -0.0550 -0.7609
    2SAPS  H17S  207   6.005   3.748   8.886  1.5401  1.1395  1.4238
    2SAPS  C218  208   6.057   3.582   8.736 -0.0311  0.3985 -0.5582
    2SAPS  H18R  209   5.994   3.639   8.664  1.8369  0.3086 -2.3673
    2SAPS  H18S  210   5.991   3.512   8.790 -2.2380  0.4835 -2.9546
    2SAPS  C219  211   6.171   3.505   8.669 -0.7023  0.4115 -0.9891
    2SAPS  H19R  212   6.210   3.444   8.753 -1.3403 -0.2868 -1.1938
    2SAPS  H19S  213   6.249   3.581   8.645 -0.5110  1.6659  2.8989
    2SAPS  C220  214   6.114   3.414   8.557  0.1058  0.5583 -0.0771
    2SAPS  H20R  215   6.087   3.481   8.473 -0.7001  0.2977 -0.0286
    2SAPS  H20S  216   6.021   3.359   8.581  1.6738 -1.6299  1.3269
    2SAPS  H20T  217   6.195   3.341   8.533 -1.0730 -1.3537  1.4559
    2SAPS   C33  218   5.086   3.989  10.293 -0.2847  0.1923  0.4156
    2SAPS   H3X  219   5.163   4.069  10.286 -0.8609  0.6213 -1.7696
    2SAPS   H3Y  220   5.013   4.037  10.361  0.1704  2.3391 -0.5257
    2SAPS   C34  221   5.036   3.970  10.148 -0.1685  0.1195 -0.2270
    2SAPS   H4X  222   5.109   3.905  10.095  0.6259  0.8027  0.0198
    2SAPS   H4Y  223   5.023   4.066  10.094  0.9781  0.7797  0.6429
    2SAPS   C35  224   4.901   3.894  10.130 -0.3919 -0.2886  0.5565
    2SAPS   H5X  225   4.821   3.968  10.150 -0.3151  0.3594 -1.3810
    2SAPS   H5Y  226   4.883   3.807  10.197  0.1575 -1.9472 -1.3559
    2SAPS   C36  227   4.863   3.846   9.986 -0.7771  0.0707  0.1375
    2SAPS   H6X  228   4.765   3.794   9.998 -0.7801 -0.0755 -0.5072
    2SAPS   H6Y  229   4.947   3.786   9.947  0.0789  1.3830 -0.0862
    2SAPS   C37  230   4.838   3.962   9.883  0.0768  0.0957  0.0206
    2SAPS   H7X  231   4.921   4.034   9.866  1.8397 -2.3935 -2.6903
    2SAPS   H7Y  232   4.759   4.023   9.933  0.5335  0.6498  0.0752
    2SAPS   C38  233   4.798   3.924   9.744  0.6021 -0.1204 -0.0025
    2SAPS   H8X  234   4.714   3.851   9.752 -0.0840  0.8407  2.2262
    2SAPS   H8Y  235   4.891   3.878   9.704 -0.2049 -1.6192 -0.2278
    2SAPS   C39  236   4.764   4.051   9.662  0.7793  0.1817 -0.1013
    2SAPS   H9X  237   4.849   4.122   9.671  1.3597 -0.5943  0.6567
    2SAPS   H9Y  238   4.672   4.088   9.713 -0.0831 -1.5202 -0.3610
    2SAPS  C310  239   4.738   4.004   9.518 -0.9683  0.0702 -0.9670
    2SAPS  H10X  240   4.684   3.908   9.533 -1.1582  0.3197 -0.0138
    2SAPS  H10Y  241   4.839   3.998   9.472  0.5112 -0.0573  2.0618
    2SAPS  C311  242   4.655   4.113   9.456  0.2906 -0.3560  0.3874
    2SAPS  H11X  243   4.676   4.213   9.499 -1.5948  0.9806 -1.5319
    2SAPS  H11Y  244   4.550   4.081   9.478  0.0013 -0.9137 -1.6039
    2SAPS  C312  245   4.671   4.130   9.305  0.6564 -0.3622 -0.4818
    2SAPS  H12X  246   4.593   4.200   9.267  0.9535  0.4656  0.3886
    2SAPS  H12Y  247   4.663   4.032   9.253  1.0858 -0.0091 -1.2270
    2SAPS  C313  248   4.804   4.201   9.263 -0.0797  0.3090  0.0708
    2SAPS  H13X  249   4.893   4.146   9.301  0.7857  0.3860 -1.7133
    2SAPS  H13Y  250   4.807   4.301   9.313  2.1382 -0.8286  2.4729
    2SAPS  C314  251   4.808   4.222   9.108  0.2152  0.8764  0.5109
    2SAPS  H14X  252   4.717   4.279   9.081  0.1617 -0.1100 -1.6539
    2SAPS  H14Y  253   4.785   4.125   9.058  0.0116  1.3554 -0.3387
    2SAPS  C315  254   4.923   4.304   9.044  0.9783  0.8936  0.4663
    2SAPS  H15X  255   5.022   4.286   9.092  1.4805  0.0514 -0.8303
    2SAPS  H15Y  256   4.893   4.408   9.067 -2.2652  0.2877 -0.5971
    2SAPS  C316  257   4.952   4.265   8.896  0.4030  0.1145  0.2657
    2SAPS  H16X  258   4.860   4.240   8.839 -0.1380  0.1939  1.0856
    2SAPS  H16Y  259   5.011   4.171   8.895 -0.0512 -0.1822  0.8230
    2SAPS  C317  260   5.018   4.389   8.824 -0.0059  0.4429  0.6865
    2SAPS  H17X  261   4.943   4.471   8.823 -1.4034 -0.7678 -1.1538
    2SAPS  H17Y  262   5.051   4.366   8.720 -1.7734  1.1875 -0.0834
    2SAPS  C318  263   5.140   4.456   8.894  0.0965  0.4416 -0.1010
    2SAPS  H18X  264   5.234   4.397   8.882  0.7838  1.6846 -1.1398
    2SAPS  H18Y  265   5.120   4.464   9.003  1.0143 -1.2111  0.2197
    2SAPS  H18Z  266   5.164   4.555   8.850 -0.5788  1.2409  1.2697
    3SAPS     N  267   6.778   5.296  10.857 -0.2958  0.2190  0.3412
    3SAPS   HN1  268   6.718   5.360  10.801  0.2795 -0.7209 -1.4508
    3SAPS   HN2  269   6.846   5.256  10.789 -1.2769 -1.2464  0.1775
    3SAPS   HN3  270   6.733   5.209  10.892 -0.2105 -0.4667 -1.1658
    3SAPS   C12  271   6.846   5.376  10.964 -0.1713  0.4410  0.6218
    3SAPS  H12A  272   6.765   5.423  11.017  0.8251 -1.4498  4.1308
    3SAPS   C13  273   6.926   5.285  11.072 -0.1351  0.0461  0.6024
    3SAPS  O13A  274   6.919   5.156  11.068  0.4554 -0.4479  0.7299
    3SAPS  O13B  275   6.953   5.347  11.180 -0.4184  0.0126 -0.0022
    3SAPS   C11  276   6.942   5.481  10.898  0.2957  0.3971 -0.9095
    3SAPS  H11A  277   7.025   5.432  10.843  1.2516  0.7261  0.1837
    3SAPS  H11B  278   6.990   5.537  10.981 -0.7151  2.8490 -1.8679
    3SAPS     P  279   6.940   5.716  10.776 -0.1476  0.0717  0.2829
    3SAPS   O13  280   6.961   5.809  10.889  0.6095  0.0614 -0.4226
    3SAPS   O14  281   7.055   5.686  10.695  0.1118  0.1403  0.0353
    3SAPS   O12  282   6.872   5.576  10.814 -0.2822  0.2198  0.2441
    3SAPS   O11  283   6.825   5.771  10.681  0.4157 -0.0688 -0.3246
    3SAPS    C1  284   6.851   5.843  10.565 -0.2641 -0.5118  0.3009
    3SAPS    HA  285   6.825   5.949  10.583  2.5390  0.4604 -0.8675
    3SAPS    HB  286   6.959   5.841  10.538  0.5631  0.5419  3.1836
    3SAPS    C2  287   6.752   5.804  10.453 -0.7423 -0.6357 -0.2584
    3SAPS    HS  288   6.651   5.826  10.495  0.0816  0.0112  1.4748
    3SAPS   O21  289   6.777   5.667  10.407  0.3482 -0.2415 -0.3687
    3SAPS   C21  290   6.705   5.574  10.463  0.3010  0.4180  0.0427
    3SAPS   O22  291   6.597   5.591  10.521 -0.2114 -0.2579 -0.5851
    3SAPS   C22  292   6.750   5.430  10.442 -0.5485 -0.1449  0.5207
    3SAPS   H2R  293   6.843   5.413  10.499 -0.0447 -0.6241 -0.4095
    3SAPS   H2S  294   6.663   5.367  10.468 -2.3672  1.3658 -1.5012
    3SAPS    C3  295   6.775   5.898  10.326  0.1875 -0.2130 -0.6099
    3SAPS    HX  296   6.879   5.885  10.288  0.1477 -0.4455 -0.6440
    3SAPS    HY  297   6.766   6.006  10.349  3.3676  0.0567 -0.2861
    3SAPS   O31  298   6.686   5.854  10.220 -0.2157 -0.2135  0.5063
    3SAPS   C31  299   6.564   5.907  10.218 -0.3301 -0.5826 -0.3902
    3SAPS   O32  300   6.524   5.975  10.315 -0.4337  0.1683 -0.4467
    3SAPS   C32  301   6.484   5.871  10.098 -0.2269 -0.2840  0.2206
    3SAPS   H2X  302   6.447   5.766  10.097 -0.1330 -0.3368  1.4044
    3SAPS   H2Y  303   6.535   5.884  10.000 -1.9691 -0.1149 -0.7262
    3SAPS   C23  304   6.793   5.402  10.296  0.2675 -0.6544  0.4199
    3SAPS   H3R  305   6.798   5.294  10.268 -1.1855 -0.1996 -1.9056
    3SAPS   H3S  306   6.894   5.448  10.292 -0.2469  0.6927  1.9699
    3SAPS   C24  307   6.689   5.464  10.188 -0.2451 -0.6669  0.5413
    3SAPS   H4R  308   6.747   5.487  10.096  0.0885  2.0620  1.3489
    3SAPS   H4S  309   6.642   5.564  10.201 -2.6385 -1.2515 -2.4065
    3SAPS   C25  310   6.562   5.379  10.182 -0.3652  0.2258 -0.2478
    3SAPS   H5R  311   6.552   5.307  10.264  1.1851 -0.6131 -0.7580
    3SAPS   C26  312   6.460   5.385  10.092 -0.3955  0.3108  0.2439
    3SAPS   H6R  313   6.387   5.303  10.084 -0.4981  0.1871  2.0314
    3SAPS   C27  314   6.454   5.471   9.965 -0.1015 -0.0492  0.5688
    3SAPS   H7R  315   6.542   5.540   9.964  0.2590 -0.5086 -0.1113
    3SAPS   H7S  316   6.367   5.540   9.969  0.5873  0.9151 -0.3514
    3SAPS   C28  317   6.468   5.390   9.843 -0.5502  0.1551 -0.5158
    3SAPS   H8R  318   6.499   5.284   9.851  1.0612  0.7640  2.5341
    3SAPS   C29  319   6.463   5.447   9.720 -0.1332  0.3906  0.2230
    3SAPS   H9R  320   6.455   5.370   9.641 -0.5257 -0.6452  1.2466
    3SAPS  C210  321   6.436   5.594   9.684 -0.2001 -0.3614  0.0762
    3SAPS  H10R  322   6.449   5.666   9.768  1.3646 -0.8150  0.2455
    3SAPS  H10S  323   6.339   5.617   9.636  0.2615 -2.9527 -2.3789
    3SAPS  C211  324   6.521   5.632   9.563  0.0149  0.3865 -0.6569
    3SAPS  H11R  325   6.614   5.685   9.593  1.8684 -1.7097 -2.3829
    3SAPS  C212  326   6.491   5.591   9.440 -0.5072  0.4871  0.3485
    3SAPS  H12R  327   6.566   5.619   9.365 -0.2933 -2.4883 -0.6678
    3SAPS  C213  328   6.387   5.502   9.381  0.0563  0.0791 -0.0726
    3SAPS  H13R  329   6.293   5.557   9.360 -2.0977 -2.9268  0.9328
    3SAPS  H13S  330   6.343   5.428   9.452 -2.1113 -1.6678 -3.0125
    3SAPS  C214  331   6.431   5.425   9.259 -0.0861  0.1729 -0.0296
    3SAPS  H14R  332   6.490   5.336   9.286  1.2210  1.3000  0.9865
    3SAPS  C215  333   6.435   5.466   9.130 -0.6459 -0.4330 -0.3615
    3SAPS  H15R  334   6.488   5.397   9.062  0.0284 -0.4769  0.1926
    3SAPS  C216  335   6.395   5.606   9.079 -0.2306 -0.1147 -0.1625
    3SAPS  H16R  336   6.378   5.673   9.166 -0.1740 -0.3861  0.0551
    3SAPS  H16S  337   6.298   5.603   9.024 -0.0224  2.1517 -0.7573
    3SAPS  C217  338   6.505   5.670   8.985  0.1489  0.3947 -0.6806
    3SAPS  H17R  339   6.505   5.600   8.899 -0.8451 -1.3699  0.6878
    3SAPS  H17S  340   6.602   5.691   9.036 -2.1384  2.0894  3.4218
    3SAPS  C218  341   6.471   5.810   8.930  0.3761  0.5561  0.9883
    3SAPS  H18R  342   6.438   5.871   9.017 -0.7583  2.6902 -0.8424
    3SAPS  H18S  343   6.388   5.797   8.857  2.2808  0.9912 -1.3877
    3SAPS  C219  344   6.584   5.859   8.846 -0.3079 -0.8591  0.4973
    3SAPS  H19R  345   6.623   5.780   8.779 -1.2325 -1.5460  0.7516
    3SAPS  H19S  346   6.670   5.880   8.914 -0.7365 -2.3268  1.5498
    3SAPS  C220  347   6.562   5.996   8.780  0.2093 -0.2447 -0.1531
    3SAPS  H20R  348   6.530   6.073   8.854 -0.5415  0.6531 -1.3752
    3SAPS  H20S  349   6.477   6.003   8.709  0.5322  3.4485 -0.3687
    3SAPS  H20T  350   6.655   6.020   8.723  0.6964  0.6425  0.9697
    3SAPS   C33  351   6.354   5.958  10.102  0.3942  0.1040 -0.1266
    3SAPS   H3X  352   6.307   5.951  10.202  0.0330  1.6774 -0.1600
    3SAPS   H3Y  353   6.289   5.897  10.037  0.0436 -0.1321  0.4437
    3SAPS   C34  354   6.360   6.105  10.058 -0.0929  0.7655  0.2406
    3SAPS   H4X  355   6.419   6.158  10.136  0.2248 -0.1709  0.6602
    3SAPS   H4Y  356   6.261   6.154  10.070 -0.9017 -0.6671 -0.3436
    3SAPS   C35  357   6.429   6.132   9.922 -0.3822 -0.2470  0.5080
    3SAPS   H5X  358   6.512   6.062   9.902 -0.1129 -0.1117  1.1178
    3SAPS   H5Y  359   6.478   6.231   9.918  0.5073 -0.7269 -2.0829
    3SAPS   C36  360   6.340   6.122   9.797  0.2366  0.3386 -0.3247
    3SAPS   H6X  361   6.248   6.185   9.801 -0.5352 -0.8125  2.3533
    3SAPS   H6Y  362   6.305   6.017   9.795  3.1691 -0.7894 -3.9874
    3SAPS   C37  363   6.405   6.139   9.657 -0.1706 -0.0692  0.8290
    3SAPS   H7X  364   6.503   6.087   9.661 -1.0108 -1.6750  1.4980
    3SAPS   H7Y  365   6.425   6.246   9.633  1.7839 -0.9920 -2.2010
    3SAPS   C38  366   6.332   6.059   9.544 -0.6641 -0.5459  0.4917
    3SAPS   H8X  367   6.256   6.129   9.506  1.6117  1.1589 -1.1811
    3SAPS   H8Y  368   6.273   5.974   9.584 -1.0046 -0.3613  0.3806
    3SAPS   C39  369   6.436   6.027   9.432  0.2943 -0.6147 -0.1024
    3SAPS   H9X  370   6.503   5.942   9.457 -1.2292 -1.4856  1.2223
    3SAPS   H9Y  371   6.502   6.115   9.419 -0.8147  0.5624  1.7054
    3SAPS  C310  372   6.371   6.000   9.301  0.5131  0.5147  0.0853
    3SAPS  H10X  373   6.300   5.914   9.300 -0.8059  1.5668 -0.2238
    3SAPS  H10Y  374   6.450   5.976   9.227 -0.3402  0.1204 -0.7190
    3SAPS  C311  375   6.310   6.130   9.242 -0.1072  0.0942  0.1995
    3SAPS  H11X  376   6.373   6.221   9.250  0.2771 -0.1419 -0.1222
    3SAPS  H11Y  377   6.204   6.151   9.269 -0.7082  2.2598 -3.1862
    3SAPS  C312  378   6.320   6.121   9.085  0.1896  0.2685 -0.4296
    3SAPS  H12X  379   6.254   6.038   9.052  0.2572  0.2389 -0.4901
    3SAPS  H12Y  380   6.423   6.090   9.059 -0.0108 -1.2421  0.4636
    3SAPS  C313  381   6.274   6.258   9.033  0.9406 -0.1210  0.5163
    3SAPS  H13X  382   6.348   6.332   9.069 -0.2141 -0.1742  3.2985
    3SAPS  H13Y  383   6.182   6.287   9.088  0.1778  1.5240 -1.4689
    3SAPS  C314  384   6.255   6.266   8.879  0.0863  0.7432 -0.0772
    3SAPS  H14X  385   6.327   6.198   8.829  0.1574  0.9192 -0.2120
    3SAPS  H14Y  386   6.279   6.368   8.843  0.5853  0.6776  0.0631
    3SAPS  C315  387   6.106   6.236   8.833 -0.5272  0.1882  0.0470
    3SAPS  H15X  388   6.043   6.309   8.888 -0.6094  0.3958 -0.3203
    3SAPS  H15Y  389   6.070   6.133   8.852  0.5034 -0.9052 -3.3199
    3SAPS  C316  390   6.069   6.282   8.688  0.0512 -0.3476 -0.1365
    3SAPS  H16X  391   6.097   6.389   8.693 -0.0417 -0.3747  1.4454
    3SAPS  H16Y  392   5.961   6.264   8.667 -0.5745  1.5600  1.2011
    3SAPS  C317  393   6.147   6.215   8.571  0.1211  0.2144  0.5583
    3SAPS  H17X  394   6.253   6.247   8.584  0.2769 -0.1275  0.1556
    3SAPS  H17Y  395   6.120   6.272   8.479 -0.1230  2.3543  1.8873
    3SAPS  C318  396   6.143   6.065   8.554 -0.1639  0.6580  0.3901
    3SAPS  H18X  397   6.230   6.038   8.491 -0.7264  0.2698 -0.2419
    3SAPS  H18Y  398   6.054   6.031   8.496 -0.1899  0.6907  0.4103
    3SAPS  H18Z  399   6.141   6.012   8.652  0.0310  1.7893  1.0265
    4SAPS     N  400   0.483   6.289  10.819  0.0789 -0.0068 -1.2386
    4SAPS   HN1  401   0.526   6.275  10.913 -1.7506  2.4746  0.1165
    4SAPS   HN2  402   0.395   6.342  10.834 -0.7319 -1.8128  1.0917
    4SAPS   HN3  403   0.465   6.195  10.780  3.2223 -1.0658 -0.4296
    4SAPS   C12  404   0.559   6.364  10.716  0.6498 -0.6988  0.5870
    4SAPS  H12A  405   0.485   6.436  10.685  1.9483  0.4457  0.0365
    4SAPS   C13  406   0.687   6.437  10.773  0.1925 -0.3130  0.1486
    4SAPS  O13A  407   0.718   6.428  10.889  0.0663 -0.1153 -0.7543
    4SAPS  O13B  408   0.743   6.521  10.698  0.4123 -0.3890 -0.4930
    4SAPS   C11  409   0.580   6.255  10.600 -0.4756  0.5509 -0.6011
    4SAPS  H11A  410   0.658   6.180  10.625 -1.5244 -0.6506 -0.7870
    4SAPS  H11B  411   0.633   6.305  10.516 -0.3893 -1.0957 -1.5837
    4SAPS     P  412   0.403   6.064  10.583  0.1628 -0.4075  0.6111
    4SAPS   O13  413   0.427   6.046  10.729  0.3903  0.0601  0.0880
    4SAPS   O14  414   0.269   6.066  10.526  0.3579 -0.1455  0.2044
    4SAPS   O12  415   0.461   6.200  10.545  0.2347  0.4540  0.6516
    4SAPS   O11  416   0.496   5.959  10.504  0.2618 -0.3056 -0.3774
    4SAPS    C1  417   0.571   5.992  10.383  1.0419  0.4762 -0.1962
    4SAPS    HA  418   0.621   6.090  10.397  0.3246  0.7166  0.8884
    4SAPS    HB  419   0.660   5.928  10.367  1.1976  0.2250  1.4751
    4SAPS    C2  420   0.480   6.002  10.260  0.3219  0.4524  0.1923
    4SAPS    HS  421   0.404   6.078  10.287 -1.5063 -0.2473 -2.5557
    4SAPS   O21  422   0.429   5.871  10.234 -0.1460 -0.1958  0.2515
    4SAPS   C21  423   0.314   5.872  10.171  0.2562  0.6796  0.2242
    4SAPS   O22  424   0.240   5.971  10.151 -0.7966  0.5762  0.4842
    4SAPS   C22  425   0.275   5.718  10.137  0.0998 -0.3148  0.2251
    4SAPS   H2R  426   0.367   5.656  10.142  1.1094  1.2277  2.8832
    4SAPS   H2S  427   0.201   5.682  10.212 -0.3796 -0.0236 -0.1038
    4SAPS    C3  428   0.552   6.063  10.138 -0.1926 -0.0051  0.2556
    4SAPS    HX  429   0.621   5.994  10.086 -1.2991  1.4803 -3.4994
    4SAPS    HY  430   0.626   6.133  10.183  0.1773  0.3152 -0.8425
    4SAPS   O31  431   0.471   6.135  10.051  1.0704 -0.3465 -0.5653
    4SAPS   C31  432   0.419   6.064   9.948  0.1318  1.0018  0.0722
    4SAPS   O32  433   0.448   5.949   9.921 -0.8441  0.4036  0.1800
    4SAPS   C32  434   0.332   6.150   9.859  0.8559  0.1701  0.0401
    4SAPS   H2X  435   0.308   6.246   9.908 -0.1572 -1.0085  2.0018
    4SAPS   H2Y  436   0.236   6.095   9.852  1.1325 -0.2496 -0.5790
    4SAPS   C23  437   0.229   5.695   9.987  0.4923  0.0878  0.2547
    4SAPS   H3R  438   0.205   5.587   9.984 -2.2569  0.6245 -0.0336
    4SAPS   H3S  439   0.311   5.717   9.915  2.0421  1.4514  2.3037
    4SAPS   C24  440   0.097   5.763   9.962  0.5211 -0.6341 -0.3643
    4SAPS   H4R  441   0.104   5.874   9.950  2.6214 -0.7455 -0.5863
    4SAPS   H4S  442   0.040   5.736  10.053  0.9224 -1.1583 -0.2626
    4SAPS   C25  443   0.038   5.708   9.838  0.1169 -0.1412  0.3613
    4SAPS   H5R  444  -0.042   5.635   9.853  0.9436 -1.1330  0.0672
    4SAPS   C26  445   0.062   5.745   9.713 -0.1499 -0.4474 -0.3557
    4SAPS   H6R  446   0.003   5.703   9.631 -1.5130  0.8329 -0.0607
    4SAPS   C27  447   0.168   5.845   9.668  0.1199  0.2936 -0.2865
    4SAPS   H7R  448   0.251   5.863   9.739  0.5647 -1.0859 -0.4328
    4SAPS   H7S  449   0.129   5.946   9.643  1.3606  0.3011 -2.4522
    4SAPS   C28  450   0.233   5.787   9.553 -0.4456  0.2818  0.9832
    4SAPS   H8R  451   0.291   5.698   9.578  0.3518  0.4146 -0.2864
    4SAPS   C29  452   0.240   5.833   9.429  0.7588 -0.9181 -0.3701
    4SAPS   H9R  453   0.282   5.775   9.346  2.7459  1.2443 -1.0165
    4SAPS  C210  454   0.177   5.967   9.384  0.1684 -0.6164 -0.7013
    4SAPS  H10R  455   0.235   6.003   9.297 -1.8549 -0.5378 -2.1045
    4SAPS  H10S  456   0.191   6.052   9.454  0.3727 -0.5646 -0.8047
    4SAPS  C211  457   0.029   5.951   9.349 -0.5095  0.5728  0.1212
    4SAPS  H11R  458  -0.030   5.892   9.421 -0.8483  0.1145 -0.5249
    4SAPS  C212  459  -0.037   6.017   9.250 -0.8618  0.4628  0.2234
    4SAPS  H12R  460  -0.144   5.991   9.246 -1.1510  1.4857  0.9263
    4SAPS  C213  461   0.020   6.113   9.143 -0.3600 -0.9139 -0.3566
    4SAPS  H13R  462   0.100   6.179   9.183 -0.4011 -1.2467  0.2788
    4SAPS  H13S  463  -0.066   6.180   9.120 -2.1283 -2.2192  2.0541
    4SAPS  C214  464   0.070   6.040   9.028  0.3081 -0.6740  0.9962
    4SAPS  H14R  465   0.077   5.931   9.041  1.1888 -0.4137  2.9565
    4SAPS  C215  466   0.089   6.093   8.903  0.1052 -0.1940  0.0108
    4SAPS  H15R  467   0.132   6.032   8.823 -1.4916 -0.7672 -0.4294
    4SAPS  C216  468   0.072   6.242   8.871 -0.2051  0.4858 -0.4491
    4SAPS  H16R  469   0.109   6.307   8.953  4.1193 -2.9709  0.7423
    4SAPS  H16S  470  -0.035   6.269   8.860  0.2705  1.9759 -1.7625
    4SAPS  C217  471   0.130   6.300   8.741 -0.0479 -0.0367 -0.1714
    4SAPS  H17R  472   0.239   6.283   8.736 -0.3175 -1.4502 -2.5639
    4SAPS  H17S  473   0.109   6.409   8.747 -2.3122 -0.3918 -0.6377
    4SAPS  C218  474   0.053   6.239   8.622  0.2277 -0.0473 -0.0031
    4SAPS  H18R  475  -0.057   6.228   8.634  0.1684  1.3295  0.9001
    4SAPS  H18S  476   0.102   6.140   8.610 -0.4443 -0.1693 -2.3325
    4SAPS  C219  477   0.085   6.311   8.493  0.0022  0.1036  0.1304
    4SAPS  H19R  478   0.195   6.328   8.495 -0.0639  0.5553  1.7377
    4SAPS  H19S  479   0.042   6.413   8.497 -0.4076 -0.0563 -0.2183
    4SAPS  C220  480   0.034   6.239   8.365  0.3398  0.1736 -0.3445
    4SAPS  H20R  481  -0.075   6.219   8.371  0.6618 -1.6533 -0.1560
    4SAPS  H20S  482   0.094   6.146   8.366  1.1547  0.6866  0.9096
    4SAPS  H20T  483   0.061   6.306   8.280  0.5672  1.1600  0.4742
    4SAPS   C33  484   0.406   6.172   9.723 -0.4566  0.8922 -0.2807
    4SAPS   H3X  485   0.430   6.076   9.673 -2.2593  0.2530 -0.0092
    4SAPS   H3Y  486   0.499   6.232   9.736  1.5038 -1.8406 -0.7554
    4SAPS   C34  487   0.317   6.236   9.624  1.1748 -0.4359  0.4167
    4SAPS   H4X  488   0.291   6.338   9.660  0.9126 -0.9336  1.7046
    4SAPS   H4Y  489   0.226   6.174   9.618  0.3613  0.7069  0.6004
    4SAPS   C35  490   0.379   6.248   9.484 -0.1273 -0.0333 -0.1206
    4SAPS   H5X  491   0.413   6.151   9.441 -1.5233 -0.7648  0.3848
    4SAPS   H5Y  492   0.471   6.303   9.515 -0.7723  1.8122 -1.2898
    4SAPS   C36  493   0.291   6.327   9.385 -0.1749 -0.0351 -0.3557
    4SAPS   H6X  494   0.276   6.426   9.432 -1.0382  1.1643 -2.9739
    4SAPS   H6Y  495   0.196   6.273   9.363 -0.3771  0.6571 -1.2355
    4SAPS   C37  496   0.345   6.337   9.248  0.0168 -0.0048  1.3571
    4SAPS   H7X  497   0.287   6.399   9.176  0.2179 -0.6129  0.6578
    4SAPS   H7Y  498   0.338   6.234   9.207 -0.3629  0.3081  0.6151
    4SAPS   C38  499   0.489   6.389   9.242  0.3784  0.1172  0.9545
    4SAPS   H8X  500   0.555   6.304   9.269 -1.3100 -1.6373 -0.1632
    4SAPS   H8Y  501   0.500   6.462   9.325 -0.0417 -0.7363  1.7699
    4SAPS   C39  502   0.531   6.436   9.102  0.9185  0.1942 -0.3836
    4SAPS   H9X  503   0.615   6.507   9.118  1.4352  0.1963 -2.7675
    4SAPS   H9Y  504   0.456   6.504   9.058  1.0539  1.5681  1.3734
    4SAPS  C310  505   0.569   6.325   9.009 -0.0427  0.0335  0.3048
    4SAPS  H10X  506   0.484   6.255   8.994 -0.3382  0.3731  0.3944
    4SAPS  H10Y  507   0.638   6.260   9.068 -1.9266 -0.6711  1.8399
    4SAPS  C311  508   0.633   6.390   8.880  0.2965  1.1839  0.5062
    4SAPS  H11X  509   0.721   6.446   8.920  0.8729  0.4307  0.3250
    4SAPS  H11Y  510   0.552   6.451   8.835  0.1634 -0.8941 -2.3569
    4SAPS  C312  511   0.666   6.289   8.769  0.0558  0.0214  0.3762
    4SAPS  H12X  512   0.699   6.343   8.677 -1.0700  1.0594  0.5479
    4SAPS  H12Y  513   0.577   6.229   8.740 -0.4678  1.2648 -0.7200
    4SAPS  C313  514   0.787   6.197   8.802  0.3328 -0.1808  0.1834
    4SAPS  H13X  515   0.775   6.151   8.902  0.2983  1.9575  1.2368
    4SAPS  H13Y  516   0.868   6.271   8.818 -0.5599  0.4209  2.1624
    4SAPS  C314  517   0.838   6.085   8.701 -0.8723 -0.9148 -0.3286
    4SAPS  H14X  518   0.754   6.025   8.662 -1.1086 -0.3057 -0.7621
    4SAPS  H14Y  519   0.915   6.020   8.749  0.6765  1.7774  1.1152
    4SAPS  C315  520   0.899   6.152   8.577  0.2735 -0.1305 -1.0260
    4SAPS  H15X  521   1.002   6.189   8.598 -0.1263  1.0112 -0.9973
    4SAPS  H15Y  522   0.840   6.237   8.536  0.5606 -0.2159 -1.6298
    4SAPS  C316  523   0.900   6.070   8.447 -0.1327  0.7225  0.1463
    4SAPS  H16X  524   0.792   6.066   8.420 -0.1993  0.5853  0.4226
    4SAPS  H16Y  525   0.932   5.965   8.464 -0.2583  0.7775  0.7820
    4SAPS  C317  526   0.991   6.134   8.346 -0.1379  0.2240  0.0061
    4SAPS  H17X  527   0.961   6.241   8.335  1.3316  1.0377  2.8644
    4SAPS  H17Y  528   0.981   6.090   8.244  2.9077  0.7288 -0.6229
    4SAPS  C318  529   1.141   6.120   8.378  0.7644  0.4292  0.4476
    4SAPS  H18X  530   1.162   6.015   8.408  1.1268  0.4915  0.4215
    4SAPS  H18Y  531   1.172   6.184   8.463 -1.5813  0.3417  1.4442
    4SAPS  H18Z  532   1.201   6.141   8.286  0.6415 -0.8046  0.0707
    5SAPS     N  533   6.231   4.937  10.882  0.3637 -0.5736 -0.0311
    5SAPS   HN1  534   6.138   4.974  10.854  0.2516 -0.7684  0.0832
    5SAPS   HN2  535   6.270   4.886  10.800 -1.2428 -1.3750 -0.3410
    5SAPS   HN3  536   6.219   4.871  10.962 -0.1905 -0.5134 -0.0626
    5SAPS   C12  537   6.320   5.054  10.924  0.6715 -0.6555  0.1217
    5SAPS  H12A  538   6.296   5.072  11.028 -0.4698 -0.0735 -0.2361
    5SAPS   C13  539   6.471   5.013  10.907  0.5065 -0.3570  0.6510
    5SAPS  O13A  540   6.496   4.898  10.857  0.2768 -0.6104 -0.2910
    5SAPS  O13B  541   6.560   5.096  10.940 -0.0402 -0.2461  0.2984
    5SAPS   C11  542   6.280   5.180  10.838 -0.1133  0.4372 -0.1276
    5SAPS  H11A  543   6.310   5.164  10.732  1.2186 -1.9527  0.5261
    5SAPS  H11B  544   6.343   5.263  10.876  0.9381 -0.5861  0.4254
    5SAPS     P  545   6.084   5.345  10.849  0.0071 -0.2473 -0.0232
    5SAPS   O13  546   5.950   5.336  10.796 -0.3342 -0.0478  0.5374
    5SAPS   O14  547   6.104   5.417  10.983 -0.0048  0.2171  0.2416
    5SAPS   O12  548   6.140   5.198  10.854 -0.4011 -0.7249 -0.2641
    5SAPS   O11  549   6.173   5.421  10.737 -0.1721 -0.1717 -0.2036
    5SAPS    C1  550   6.173   5.565  10.732  0.1604  0.0134  0.1313
    5SAPS    HA  551   6.116   5.617  10.812 -0.1950  1.2838 -0.9241
    5SAPS    HB  552   6.280   5.595  10.744  1.0098 -2.6650 -0.1500
    5SAPS    C2  553   6.122   5.613  10.589  0.3064 -0.4568  0.8654
    5SAPS    HS  554   6.104   5.723  10.592 -1.3183 -0.6804  0.4093
    5SAPS   O21  555   6.001   5.542  10.549  0.2597  0.6313  0.3765
    5SAPS   C21  556   5.895   5.562  10.616  0.1099  0.1131 -0.2220
    5SAPS   O22  557   5.887   5.632  10.716  0.0449  0.1414 -0.0329
    5SAPS   C22  558   5.782   5.496  10.541 -0.5138  0.2258  0.0884
    5SAPS   H2R  559   5.797   5.389  10.567  0.1751  0.2567 -0.1668
    5SAPS   H2S  560   5.677   5.522  10.570 -0.5187 -1.1875  1.4506
    5SAPS    C3  561   6.236   5.599  10.490  0.1369  0.2395  0.5605
    5SAPS    HX  562   6.270   5.494  10.481 -0.0603  0.3030 -1.3147
    5SAPS    HY  563   6.325   5.658  10.522  0.7935  1.8129 -3.5192
    5SAPS   O31  564   6.199   5.656  10.357  0.1283 -0.2817 -0.3935
    5SAPS   C31  565   6.149   5.562  10.266  0.1063 -0.7677 -0.5985
    5SAPS   O32  566   6.134   5.444  10.297 -0.1708  0.4004 -0.6788
    5SAPS   C32  567   6.099   5.636  10.143  0.1897 -0.0590 -0.1434
    5SAPS   H2X  568   6.187   5.676  10.089 -0.4664  2.2815  0.4038
    5SAPS   H2Y  569   6.044   5.727  10.175 -0.1455 -0.7193  1.2488
    5SAPS   C23  570   5.796   5.538  10.391 -0.4260 -0.4854 -0.1479
    5SAPS   H3R  571   5.716   5.485  10.335  0.5458  0.4469 -2.5796
    5SAPS   H3S  572   5.897   5.509  10.354  0.6470  2.3774  0.2215
    5SAPS   C24  573   5.756   5.689  10.369 -0.1430 -0.3397  0.1580
    5SAPS   H4R  574   5.800   5.716  10.271  0.7486 -2.0463  0.0424
    5SAPS   H4S  575   5.821   5.741  10.442  1.6572  0.4755 -1.9112
    5SAPS   C25  576   5.615   5.727  10.403  0.4742  0.1304  0.4124
    5SAPS   H5R  577   5.608   5.753  10.510 -1.0478 -0.5093  0.4876
    5SAPS   C26  578   5.498   5.707  10.340 -0.2584 -0.1345 -0.8107
    5SAPS   H6R  579   5.402   5.721  10.390 -0.9716 -2.7219 -1.3194
    5SAPS   C27  580   5.492   5.646  10.203 -0.8752 -0.4771 -0.0737
    5SAPS   H7R  581   5.512   5.537  10.209  1.0742 -0.1375  0.3237
    5SAPS   H7S  582   5.558   5.696  10.129 -0.8982 -1.4096 -0.7424
    5SAPS   C28  583   5.350   5.664  10.143 -0.1778  0.5479  0.4175
    5SAPS   H8R  584   5.277   5.705  10.214  0.2795 -0.2555  1.3932
    5SAPS   C29  585   5.308   5.642  10.016  0.2638  0.4852 -0.0971
    5SAPS   H9R  586   5.202   5.656   9.992  0.1966 -0.6999 -0.5377
    5SAPS  C210  587   5.384   5.592   9.896  0.7024 -0.2857  0.4467
    5SAPS  H10R  588   5.309   5.589   9.814 -1.5796 -0.9916  2.4286
    5SAPS  H10S  589   5.415   5.487   9.911 -0.0069 -0.3693  1.4699
    5SAPS  C211  590   5.491   5.685   9.852 -0.1491 -0.4881  0.7461
    5SAPS  H11R  591   5.529   5.761   9.922 -0.5517 -0.6152  1.1069
    5SAPS  C212  592   5.541   5.688   9.726  1.0010  0.2732 -0.3454
    5SAPS  H12R  593   5.622   5.760   9.707  0.3880  0.7637 -1.2243
    5SAPS  C213  594   5.507   5.602   9.613  0.3559  1.0115  0.0760
    5SAPS  H13R  595   5.430   5.665   9.563 -0.0864 -1.2766 -2.3517
    5SAPS  H13S  596   5.455   5.513   9.655 -0.2816  0.4071 -1.9006
    5SAPS  C214  597   5.631   5.562   9.538 -0.4760 -0.0967  0.1823
    5SAPS  H14R  598   5.714   5.548   9.608 -0.0943  1.0830 -0.0121
    5SAPS  C215  599   5.640   5.553   9.401 -1.5380 -0.9756 -0.6738
    5SAPS  H15R  600   5.735   5.519   9.357  0.4534  3.5439 -0.4502
    5SAPS  C216  601   5.525   5.575   9.304 -0.7322  0.2665 -0.2702
    5SAPS  H16R  602   5.434   5.618   9.351 -0.2693 -0.0337  0.9424
    5SAPS  H16S  603   5.488   5.478   9.265 -1.9848  0.0026  1.4739
    5SAPS  C217  604   5.577   5.660   9.187  0.1553 -0.0483 -0.3680
    5SAPS  H17R  605   5.670   5.621   9.140 -0.0607 -1.1764  0.0909
    5SAPS  H17S  606   5.608   5.757   9.231  1.6667 -0.6660  0.0275
    5SAPS  C218  607   5.479   5.684   9.072 -0.1875  1.2741  0.5378
    5SAPS  H18R  608   5.455   5.586   9.024 -1.4747  1.2572  1.1614
    5SAPS  H18S  609   5.380   5.714   9.113 -1.8619 -1.5626 -1.0256
    5SAPS  C219  610   5.521   5.777   8.962  0.3782 -0.0209  0.0169
    5SAPS  H19R  611   5.627   5.768   8.929  0.8581  1.5871  1.0014
    5SAPS  H19S  612   5.513   5.879   9.006  0.1477 -0.6797  1.5508
    5SAPS  C220  613   5.427   5.751   8.845 -0.9353 -0.0094 -0.4286
    5SAPS  H20R  614   5.457   5.826   8.768  1.1933 -0.8977 -0.5103
    5SAPS  H20S  615   5.319   5.760   8.871 -0.7900 -0.1216  0.2115
    5SAPS  H20T  616   5.435   5.647   8.806  0.8757 -0.2349  0.4585
    5SAPS   C33  617   6.005   5.542  10.058  0.6955  0.5695  0.1237
    5SAPS   H3X  618   5.909   5.517  10.107  2.0336 -0.3570  2.4634
    5SAPS   H3Y  619   6.062   5.448  10.040 -0.3598 -0.3218  1.2877
    5SAPS   C34  620   5.957   5.598   9.919 -0.4563  0.5496 -0.7316
    5SAPS   H4X  621   5.985   5.705   9.912  1.2027  0.0460 -3.8011
    5SAPS   H4Y  622   5.851   5.575   9.896  0.1848 -0.2296 -3.2012
    5SAPS   C35  623   6.035   5.517   9.816 -0.2210  0.6469  0.3461
    5SAPS   H5X  624   5.985   5.418   9.817  1.7908 -0.4597 -1.4103
    5SAPS   H5Y  625   6.140   5.519   9.851 -0.1727  0.4748  0.2091
    5SAPS   C36  626   6.026   5.576   9.675  1.0483 -0.2242 -0.6741
    5SAPS   H6X  627   6.107   5.651   9.665  2.7691 -2.1194 -1.6056
    5SAPS   H6Y  628   5.927   5.626   9.669  0.5686 -0.6013  2.3328
    5SAPS   C37  629   6.015   5.476   9.562  0.3337  0.7143 -0.4286
    5SAPS   H7X  630   5.915   5.427   9.566  0.8975 -0.3808  1.7619
    5SAPS   H7Y  631   6.098   5.403   9.572  0.3924  1.0059  1.4605
    5SAPS   C38  632   6.013   5.536   9.429 -0.0207  0.0855  0.3849
    5SAPS   H8X  633   6.107   5.587   9.400 -0.1651 -1.3767 -3.2483
    5SAPS   H8Y  634   5.934   5.614   9.418  1.2804  1.7097  1.9148
    5SAPS   C39  635   5.989   5.424   9.313  0.2345 -0.6591 -0.2817
    5SAPS   H9X  636   5.890   5.377   9.331 -0.9126  2.3158  1.9224
    5SAPS   H9Y  637   6.066   5.344   9.315 -0.5354 -1.4609 -1.6415
    5SAPS  C310  638   5.973   5.489   9.170  0.2217 -0.1908  0.2913
    5SAPS  H10X  639   6.043   5.574   9.158  0.0510 -0.0506  0.2688
    5SAPS  H10Y  640   5.879   5.549   9.177  0.3442  0.3013 -1.5434
    5SAPS  C311  641   5.962   5.381   9.063  0.9063  0.1919  0.1414
    5SAPS  H11X  642   5.897   5.422   8.983 -0.3898  0.0289  1.0876
    5SAPS  H11Y  643   5.915   5.291   9.107 -0.2819  0.9300  0.4144
    5SAPS  C312  644   6.098   5.340   9.013  0.2705  0.1398 -1.1892
    5SAPS  H12X  645   6.149   5.270   9.083 -0.1585  0.3384 -0.6734
    5SAPS  H12Y  646   6.158   5.434   9.017  1.4043 -0.5983  0.6360
    5SAPS  C313  647   6.091   5.281   8.871 -0.3055 -0.0263 -0.0132
    5SAPS  H13X  648   6.192   5.270   8.827 -0.2165 -2.8445  0.6754
    5SAPS  H13Y  649   6.027   5.350   8.812  0.0243 -0.4678 -0.9045
    5SAPS  C314  650   6.026   5.139   8.870 -0.5970 -0.5278 -0.3551
    5SAPS  H14X  651   5.924   5.136   8.913 -0.0819 -0.6662  0.9120
    5SAPS  H14Y  652   6.086   5.083   8.945 -0.9484  0.0058  0.3311
    5SAPS  C315  653   6.028   5.067   8.742 -0.6122  0.2560 -0.3097
    5SAPS  H15X  654   5.948   5.099   8.672 -1.4435  0.3180  0.6486
    5SAPS  H15Y  655   5.996   4.964   8.765  1.7276 -0.5093 -0.2784
    5SAPS  C316  656   6.168   5.053   8.681  0.0857  0.7119 -0.1818
    5SAPS  H16X  657   6.230   4.999   8.756 -1.3239  2.0560  2.1110
    5SAPS  H16Y  658   6.223   5.149   8.669  3.6923 -1.0510  0.7443
    5SAPS  C317  659   6.160   4.977   8.551 -0.1959  0.4563  0.2957
    5SAPS  H17X  660   6.262   4.944   8.519 -1.1777 -1.3062 -1.2034
    5SAPS  H17Y  661   6.104   5.038   8.477 -0.9347 -0.4672  0.0703
    5SAPS  C318  662   6.073   4.848   8.553 -0.0002  0.2936 -0.4839
    5SAPS  H18X  663   6.064   4.784   8.644  0.6999 -1.1580 -1.3988
    5SAPS  H18Y  664   6.113   4.778   8.476  3.3786  1.3966  0.1378
    5SAPS  H18Z  665   5.966   4.876   8.537 -0.2896  0.5898  1.6435
    6SAPS     N  666   3.564   6.509  10.855  0.1414  0.4851 -0.0044
    6SAPS   HN1  667   3.585   6.507  10.753  0.1565 -0.6025  0.0111
    6SAPS   HN2  668   3.583   6.418  10.902 -1.7077  2.0702  4.2782
    6SAPS   HN3  669   3.466   6.536  10.876  0.6028  1.1577  1.4175
    6SAPS   C12  670   3.656   6.606  10.919 -0.8536 -0.3635  0.0565
    6SAPS  H12A  671   3.633   6.697  10.865  0.3378 -0.7464 -1.1705
    6SAPS   C13  672   3.638   6.609  11.071  0.7821 -0.7146 -0.3181
    6SAPS  O13A  673   3.581   6.517  11.133 -0.5095  0.4969 -0.6709
    6SAPS  O13B  674   3.702   6.695  11.135 -0.5832 -0.1203  0.0964
    6SAPS   C11  675   3.803   6.570  10.892 -0.1195  0.2393  0.0996
    6SAPS  H11A  676   3.822   6.471  10.939  3.0185 -0.3825 -2.1124
    6SAPS  H11B  677   3.876   6.639  10.938 -0.6374  1.3483 -0.6910
    6SAPS     P  678   3.954   6.506  10.693 -0.2274  0.0489  0.1465
    6SAPS   O13  679   4.071   6.528  10.776 -0.3467 -0.4196 -0.1022
    6SAPS   O14  680   3.918   6.366  10.657 -0.2610 -0.2586 -0.4148
    6SAPS   O12  681   3.828   6.582  10.753  0.7403 -0.1987 -0.4276
    6SAPS   O11  682   3.967   6.591  10.562 -0.5520  0.3241 -0.2439
    6SAPS    C1  683   3.970   6.728  10.581  0.7669  0.3483  0.3499
    6SAPS    HA  684   3.874   6.771  10.618  1.6102  1.6072  1.1453
    6SAPS    HB  685   4.046   6.756  10.656  1.5306 -1.9132  0.5024
    6SAPS    C2  686   4.012   6.786  10.443  0.4464  0.0307 -0.2778
    6SAPS    HS  687   3.976   6.890  10.451  0.3846  0.0468 -0.7111
    6SAPS   O21  688   3.936   6.721  10.339 -0.0540 -0.2379  0.2978
    6SAPS   C21  689   3.805   6.746  10.339  0.1615  0.0865 -0.0367
    6SAPS   O22  690   3.756   6.845  10.390 -0.4593 -0.3945  0.1425
    6SAPS   C22  691   3.737   6.638  10.259 -0.5858  0.0019 -0.2515
    6SAPS   H2R  692   3.792   6.617  10.165 -0.9965  0.0989 -0.5169
    6SAPS   H2S  693   3.741   6.549  10.325  0.6315 -0.9583 -1.5516
    6SAPS    C3  694   4.158   6.770  10.414  0.4784  0.1585  0.2533
    6SAPS    HX  695   4.174   6.661  10.403 -0.7790  0.0307 -0.5142
    6SAPS    HY  696   4.210   6.802  10.507  1.4375  2.9581 -1.1209
    6SAPS   O31  697   4.192   6.832  10.293 -0.1860 -0.4533  0.9123
    6SAPS   C31  698   4.267   6.940  10.305 -0.9363 -0.3162 -0.0767
    6SAPS   O32  699   4.300   6.993  10.408  0.2483 -0.2852  0.4807
    6SAPS   C32  700   4.294   6.988  10.164  0.6800  0.3793  0.1288
    6SAPS   H2X  701   4.221   7.072  10.157  1.4270  1.4242  3.1803
    6SAPS   H2Y  702   4.283   6.909  10.087  4.0327 -1.1265  0.9985
    6SAPS   C23  703   3.596   6.680  10.225 -0.1843  0.0331  0.0797
    6SAPS   H3R  704   3.605   6.762  10.151  2.3202 -0.6109 -0.4389
    6SAPS   H3S  705   3.542   6.724  10.311  1.9180  1.1758  0.8792
    6SAPS   C24  706   3.523   6.561  10.154  0.3900 -0.3512  0.2171
    6SAPS   H4R  707   3.492   6.488  10.231  0.7173  1.5884  2.2869
    6SAPS   H4S  708   3.606   6.518  10.093 -0.4106  0.9002 -1.8804
    6SAPS   C25  709   3.390   6.596  10.079 -0.7316 -0.1269 -0.1868
    6SAPS   H5R  710   3.302   6.601  10.146 -0.6044  2.0036 -0.1314
    6SAPS   C26  711   3.370   6.619   9.947 -0.1742  0.2994  0.3035
    6SAPS   H6R  712   3.268   6.624   9.906 -0.1469  1.7237  0.3855
    6SAPS   C27  713   3.473   6.621   9.835 -0.1899  0.0050 -0.0730
    6SAPS   H7R  714   3.484   6.519   9.792  0.5721 -0.6902  1.6454
    6SAPS   H7S  715   3.574   6.644   9.876 -0.0429  0.1363 -0.5125
    6SAPS   C28  716   3.448   6.730   9.739  0.1476  0.1039 -0.2751
    6SAPS   H8R  717   3.495   6.827   9.766  0.0403  0.0233  0.2163
    6SAPS   C29  718   3.407   6.713   9.619  0.8979  0.3644  0.4238
    6SAPS   H9R  719   3.390   6.799   9.552  0.7557 -0.8170 -1.1115
    6SAPS  C210  720   3.364   6.578   9.564 -0.4087  0.0476 -0.5528
    6SAPS  H10R  721   3.300   6.605   9.477 -1.3675 -3.0324 -0.9271
    6SAPS  H10S  722   3.312   6.522   9.644  0.5841  0.8610  0.7013
    6SAPS  C211  723   3.477   6.487   9.516  0.5492 -0.2620  0.3245
    6SAPS  H11R  724   3.546   6.444   9.590  1.0778  1.1407  0.6797
    6SAPS  C212  725   3.498   6.443   9.387  0.3273  0.1072 -0.0816
    6SAPS  H12R  726   3.575   6.368   9.366 -0.5986 -0.9187  0.0549
    6SAPS  C213  727   3.420   6.474   9.263  0.2264 -0.8046 -0.0119
    6SAPS  H13R  728   3.311   6.491   9.276  0.7894  0.8246  3.9721
    6SAPS  H13S  729   3.424   6.390   9.191 -2.0809  0.1767 -1.4013
    6SAPS  C214  730   3.476   6.590   9.188 -0.1770 -0.4042  0.2509
    6SAPS  H14R  731   3.446   6.685   9.235 -0.7129 -1.5056  2.2079
    6SAPS  C215  732   3.546   6.599   9.071  0.0065 -0.9924 -0.1759
    6SAPS  H15R  733   3.589   6.695   9.040 -0.4894 -0.6220  0.2580
    6SAPS  C216  734   3.593   6.492   8.980 -0.2221  0.6681 -0.4604
    6SAPS  H16R  735   3.615   6.398   9.034 -1.9923 -0.8568 -2.2261
    6SAPS  H16S  736   3.683   6.516   8.918 -0.0263 -1.4046 -1.0365
    6SAPS  C217  737   3.483   6.444   8.873  0.3597 -0.1897 -0.3769
    6SAPS  H17R  738   3.455   6.526   8.803 -2.4389 -2.2649 -1.8985
    6SAPS  H17S  739   3.399   6.418   8.940  0.1027 -0.3353 -0.7484
    6SAPS  C218  740   3.522   6.323   8.791  0.5525  0.6183 -0.7348
    6SAPS  H18R  741   3.537   6.232   8.854  0.2779  0.0322 -1.4931
    6SAPS  H18S  742   3.618   6.345   8.739  2.5634  1.3606  2.9381
    6SAPS  C219  743   3.401   6.280   8.705 -0.0494  0.3423 -0.5314
    6SAPS  H19R  744   3.332   6.366   8.687  0.9521  1.1178 -0.7475
    6SAPS  H19S  745   3.354   6.194   8.758 -0.0304  1.4586  1.3727
    6SAPS  C220  746   3.444   6.227   8.567 -0.7962  0.7185  0.0094
    6SAPS  H20R  747   3.367   6.170   8.511  0.3581  0.0346 -0.9053
    6SAPS  H20S  748   3.540   6.172   8.565 -0.3540  1.4422  0.7565
    6SAPS  H20T  749   3.471   6.322   8.516  0.1963  0.4750  0.0628
    6SAPS   C33  750   4.434   7.054  10.133 -0.0658 -0.0522  0.2285
    6SAPS   H3X  751   4.507   6.972  10.112  0.1229  0.0822  0.3534
    6SAPS   H3Y  752   4.470   7.098  10.229  1.2781 -0.4817 -0.0507
    6SAPS   C34  753   4.437   7.158  10.021 -0.0366 -0.2286 -0.3259
    6SAPS   H4X  754   4.539   7.201  10.016 -0.4145  0.5709 -2.0600
    6SAPS   H4Y  755   4.363   7.234  10.055 -1.3460 -1.7287  0.3175
    6SAPS   C35  756   4.412   7.101   9.887  0.9786  0.1964  1.3941
    6SAPS   H5X  757   4.311   7.055   9.882 -0.0624  2.3816  0.9953
    6SAPS   H5Y  758   4.488   7.027   9.855 -1.4374 -0.9694 -2.3572
    6SAPS   C36  759   4.409   7.210   9.784 -0.1541 -0.0207  0.6395
    6SAPS   H6X  760   4.516   7.236   9.768 -0.2859 -0.7609 -1.8393
    6SAPS   H6Y  761   4.346   7.298   9.807 -0.6124  0.1159 -1.0231
    6SAPS   C37  762   4.351   7.156   9.647 -1.2146 -0.5631 -0.6759
    6SAPS   H7X  763   4.384   7.051   9.631  1.1023  0.0047  0.0727
    6SAPS   H7Y  764   4.385   7.221   9.563  0.4184  0.3095  0.5985
    6SAPS   C38  765   4.200   7.178   9.635 -0.1394  0.3048 -0.2728
    6SAPS   H8X  766   4.168   7.267   9.693 -1.6171 -1.2609  1.4500
    6SAPS   H8Y  767   4.152   7.103   9.701  1.0164  2.5115  3.3856
    6SAPS   C39  768   4.146   7.187   9.495  0.8720 -0.3913 -0.4043
    6SAPS   H9X  769   4.180   7.276   9.438  0.9768 -1.4506 -2.0566
    6SAPS   H9Y  770   4.036   7.176   9.500  0.9820 -2.2408 -1.0345
    6SAPS  C310  771   4.194   7.065   9.416 -0.2464  0.3270  0.2986
    6SAPS  H10X  772   4.167   6.983   9.486 -1.1774  0.8247  0.5418
    6SAPS  H10Y  773   4.304   7.058   9.411 -0.4201 -2.7148 -0.8315
    6SAPS  C311  774   4.136   7.047   9.271  0.4206 -0.2976  0.5241
    6SAPS  H11X  775   4.175   6.950   9.235  0.3188  0.5256 -1.9486
    6SAPS  H11Y  776   4.181   7.126   9.208 -0.4627  1.0423  1.4931
    6SAPS  C312  777   3.979   7.054   9.261 -1.2833  0.2715  0.4446
    6SAPS  H12X  778   3.949   7.154   9.299  2.8840  1.5439  0.9165
    6SAPS  H12Y  779   3.942   6.977   9.333  0.8781 -0.8930  0.3838
    6SAPS  C313  780   3.936   7.030   9.117  0.5043  0.1791  0.3640
    6SAPS  H13X  781   3.999   7.090   9.048  0.1728  0.9511  0.7217
    6SAPS  H13Y  782   3.830   7.064   9.110 -0.0945 -1.8287 -1.0191
    6SAPS  C314  783   3.938   6.893   9.065  0.0731  0.4689  0.0361
    6SAPS  H14X  784   3.853   6.837   9.109  1.5368 -0.0868  2.3551
    6SAPS  H14Y  785   4.032   6.846   9.102  1.2225  1.3478 -1.6083
    6SAPS  C315  786   3.931   6.882   8.917  0.2971 -0.7699  0.3708
    6SAPS  H15X  787   4.025   6.923   8.876  1.1367 -1.7597  1.2664
    6SAPS  H15Y  788   3.849   6.940   8.868  1.6285  0.3605 -0.6036
    6SAPS  C316  789   3.914   6.743   8.857 -0.0998  0.0906  0.8757
    6SAPS  H16X  790   3.808   6.712   8.863  0.1643 -0.5386  2.8306
    6SAPS  H16Y  791   3.977   6.675   8.919  1.4608  0.7988  0.1392
    6SAPS  C317  792   3.968   6.735   8.711  0.6580 -1.2814 -0.7159
    6SAPS  H17X  793   3.939   6.635   8.673 -1.4928 -2.0218  2.5315
    6SAPS  H17Y  794   4.078   6.742   8.718  0.5124 -0.7485  2.4736
    6SAPS  C318  795   3.926   6.855   8.618 -0.5029  0.2575  0.6628
    6SAPS  H18X  796   3.948   6.956   8.659  3.3818 -0.0398 -0.2091
    6SAPS  H18Y  797   3.823   6.841   8.578 -0.3490 -0.7311  0.5827
    6SAPS  H18Z  798   3.995   6.838   8.532  0.1265 -0.9483  1.3757
    7SAPS     N  799   6.820   0.773  10.805  0.5237  0.1380  0.2314
    7SAPS   HN1  800   6.780   0.721  10.725 -0.2428  1.0354  0.0180
    7SAPS   HN2  801   6.867   0.859  10.770  0.9392 -1.0253 -2.2471
    7SAPS   HN3  802   6.889   0.712  10.852  0.7373  1.5454  1.8793
    7SAPS   C12  803   6.707   0.793  10.900  0.7646 -0.1044  0.5286
    7SAPS  H12A  804   6.655   0.701  10.921  0.0351  0.0828 -0.3823
    7SAPS   C13  805   6.731   0.863  11.034 -1.4678 -0.4563 -0.7957
    7SAPS  O13A  806   6.848   0.881  11.068  0.0865  0.1177  0.1080
    7SAPS  O13B  807   6.633   0.874  11.114  0.3750  0.1303 -0.0065
    7SAPS   C11  808   6.601   0.885  10.827 -0.2445 -0.1343 -0.0610
    7SAPS  H11A  809   6.645   0.986  10.809  1.2106 -1.1713 -2.9079
    7SAPS  H11B  810   6.518   0.890  10.900  2.6321  0.6101  3.4347
    7SAPS     P  811   6.450   0.894  10.610 -0.1866  0.2613 -0.1359
    7SAPS   O13  812   6.457   0.830  10.477  0.0082  0.5986 -0.7139
    7SAPS   O14  813   6.324   0.883  10.687  0.3773 -0.2734 -0.7000
    7SAPS   O12  814   6.567   0.823  10.698  0.1808  0.1295 -0.6306
    7SAPS   O11  815   6.487   1.042  10.599  0.2368 -0.3099 -0.0637
    7SAPS    C1  816   6.608   1.094  10.547  0.5515 -0.8264  0.5482
    7SAPS    HA  817   6.663   1.154  10.623  4.3052  0.7479 -3.0597
    7SAPS    HB  818   6.678   1.021  10.502  0.2144  0.1316 -1.6588
    7SAPS    C2  819   6.583   1.207  10.437  0.1068  0.0693 -1.2844
    7SAPS    HS  820   6.529   1.288  10.490  0.9277  0.3161 -0.8070
    7SAPS   O21  821   6.506   1.145  10.333  0.4418  0.3650 -0.7067
    7SAPS   C21  822   6.377   1.120  10.341  0.1542 -0.2160  0.7052
    7SAPS   O22  823   6.299   1.168  10.426 -0.1064 -0.1047  0.6290
    7SAPS   C22  824   6.328   1.038  10.222  0.4866  1.1114  0.6527
    7SAPS   H2R  825   6.286   1.109  10.147 -0.8999 -0.5575 -0.2187
    7SAPS   H2S  826   6.416   0.986  10.177 -0.4027  1.7811 -2.0884
    7SAPS    C3  827   6.721   1.276  10.391  0.2184  0.3377  0.2081
    7SAPS    HX  828   6.797   1.195  10.387 -0.8536 -0.8803  2.4797
    7SAPS    HY  829   6.755   1.345  10.472  3.0930  0.6557 -1.1400
    7SAPS   O31  830   6.696   1.349  10.271 -0.8928 -0.1617 -0.4369
    7SAPS   C31  831   6.729   1.283  10.167  0.4582  0.4073 -0.0903
    7SAPS   O32  832   6.773   1.167  10.164 -0.4219  0.2978 -0.1564
    7SAPS   C32  833   6.679   1.361  10.053  0.2615 -0.3544  0.6693
    7SAPS   H2X  834   6.579   1.403  10.076  0.0821  0.5783 -1.5644
    7SAPS   H2Y  835   6.673   1.292   9.966  0.6257 -0.4790  0.7413
    7SAPS   C23  836   6.220   0.930  10.260 -0.5547  0.8085  0.8867
    7SAPS   H3R  837   6.147   0.959  10.338  0.4844 -0.0359  2.2171
    7SAPS   H3S  838   6.276   0.849  10.312  0.2188  1.5288  1.1862
    7SAPS   C24  839   6.134   0.887  10.135  0.2680  0.4921 -0.0148
    7SAPS   H4R  840   6.198   0.842  10.056 -0.3975 -0.7111  0.1040
    7SAPS   H4S  841   6.088   0.978  10.090  0.6262  1.6915  1.9200
    7SAPS   C25  842   6.023   0.783  10.171 -0.7887 -0.1688 -0.6231
    7SAPS   H5R  843   5.954   0.831  10.241 -1.1668  0.6902 -1.5674
    7SAPS   C26  844   5.999   0.663  10.123 -0.0318  0.2512  1.2410
    7SAPS   H6R  845   5.906   0.620  10.163  0.6564 -1.1517  1.3747
    7SAPS   C27  846   6.069   0.582  10.013 -0.0570  0.2579 -0.0272
    7SAPS   H7R  847   6.076   0.474  10.040 -1.9470  0.3628  1.1125
    7SAPS   H7S  848   6.174   0.617  10.007 -0.1088  0.5974  0.9075
    7SAPS   C28  849   6.001   0.577   9.876 -0.5335 -0.0288 -0.1452
    7SAPS   H8R  850   5.920   0.503   9.866 -0.0066 -1.0552  2.4947
    7SAPS   C29  851   6.021   0.667   9.776 -0.4761  0.0588 -0.4041
    7SAPS   H9R  852   5.968   0.665   9.680  0.3572  1.3914 -0.9253
    7SAPS  C210  853   6.124   0.776   9.785 -0.0841  0.4602  0.0175
    7SAPS  H10R  854   6.200   0.756   9.863 -0.3373 -1.5985 -0.2048
    7SAPS  H10S  855   6.069   0.868   9.817 -0.1768 -0.0954  1.5526
    7SAPS  C211  856   6.181   0.799   9.651 -0.4484 -0.3946 -0.2798
    7SAPS  H11R  857   6.283   0.760   9.641  0.7128  1.8707  1.8527
    7SAPS  C212  858   6.126   0.878   9.555  0.4175 -0.0364  0.0548
    7SAPS  H12R  859   6.189   0.893   9.466 -0.7517  2.5728 -0.4294
    7SAPS  C213  860   5.989   0.954   9.554  0.3342  0.1114  0.5073
    7SAPS  H13R  861   6.001   1.050   9.499 -1.1188 -0.1717 -0.3446
    7SAPS  H13S  862   5.947   0.974   9.654 -0.7220 -0.0372  0.1025
    7SAPS  C214  863   5.885   0.867   9.475 -0.5196 -0.7827  0.1206
    7SAPS  H14R  864   5.802   0.822   9.532  0.7202  0.1994  2.8589
    7SAPS  C215  865   5.884   0.845   9.342  0.1095 -0.0993 -0.3216
    7SAPS  H15R  866   5.803   0.786   9.297 -0.1872  0.7899 -0.9900
    7SAPS  C216  867   5.987   0.896   9.250  0.2428  0.3347  1.1771
    7SAPS  H16R  868   6.075   0.931   9.307  0.1650  1.8289  0.4166
    7SAPS  H16S  869   5.936   0.977   9.192  0.8130  0.1920  0.4603
    7SAPS  C217  870   6.017   0.781   9.144  0.2274 -0.6148  0.2020
    7SAPS  H17R  871   5.929   0.756   9.081  0.4266  1.4861 -0.9980
    7SAPS  H17S  872   6.047   0.690   9.200  2.4627  0.8801  1.5552
    7SAPS  C218  873   6.125   0.818   9.044  0.7114 -0.3130  0.1504
    7SAPS  H18R  874   6.159   0.734   8.980 -1.9061 -0.2052 -1.5450
    7SAPS  H18S  875   6.222   0.835   9.096  1.5590 -1.1583 -1.0838
    7SAPS  C219  876   6.079   0.932   8.944 -0.3175 -0.1754 -0.4653
    7SAPS  H19R  877   6.053   1.028   8.993 -3.0417 -0.3841 -1.3320
    7SAPS  H19S  878   5.983   0.894   8.903 -1.5189  1.6525  0.4918
    7SAPS  C220  879   6.182   0.957   8.835  0.2020 -0.2086 -0.1859
    7SAPS  H20R  880   6.157   1.048   8.775 -0.7007 -1.1106 -1.2102
    7SAPS  H20S  881   6.197   0.870   8.768  0.6335  0.8502 -1.5225
    7SAPS  H20T  882   6.285   0.961   8.878  0.1395  0.2199 -0.0686
    7SAPS   C33  883   6.769   1.478  10.018 -0.6770  0.3574 -0.3035
    7SAPS   H3X  884   6.767   1.544  10.107 -0.0585  3.2517 -2.3045
    7SAPS   H3Y  885   6.723   1.531   9.932 -0.5679 -1.6536 -1.6664
    7SAPS   C34  886   6.909   1.455   9.976  0.5223 -0.3231  0.3662
    7SAPS   H4X  887   6.966   1.431  10.068 -2.6963 -3.4274  1.7927
    7SAPS   H4Y  888   6.948   1.549   9.933 -0.3718  0.7747  1.8571
    7SAPS   C35  889   6.929   1.344   9.877  0.3990  0.8057  0.2189
    7SAPS   H5X  890   6.893   1.248   9.919  1.2155 -0.6330 -2.1577
    7SAPS   H5Y  891   7.039   1.342   9.859 -0.1443 -1.2427 -3.9480
    7SAPS   C36  892   6.856   1.359   9.742  0.0389  0.3531 -0.1569
    7SAPS   H6X  893   6.897   1.427   9.665 -0.1758 -0.4937 -1.0406
    7SAPS   H6Y  894   6.755   1.400   9.764 -0.1211 -1.1896  2.3961
    7SAPS   C37  895   6.826   1.216   9.672 -0.3760 -0.3112  0.4953
    7SAPS   H7X  896   6.776   1.153   9.749 -3.9015 -1.5394 -2.5009
    7SAPS   H7Y  897   6.926   1.177   9.648  0.1503  0.6899  0.9926
    7SAPS   C38  898   6.718   1.217   9.565 -0.2100 -0.2213 -0.6287
    7SAPS   H8X  899   6.756   1.269   9.474  1.2511 -3.1586 -1.8410
    7SAPS   H8Y  900   6.630   1.267   9.611  0.2072  0.3221 -0.4046
    7SAPS   C39  901   6.681   1.075   9.525 -0.2218 -0.2094  0.6346
    7SAPS   H9X  902   6.677   1.008   9.613  1.3432  0.4273  1.2274
    7SAPS   H9Y  903   6.770   1.039   9.468  1.0378  0.7125  1.9642
    7SAPS  C310  904   6.555   1.060   9.439 -0.0844 -0.9240  0.6901
    7SAPS  H10X  905   6.471   1.110   9.492 -1.2242 -1.0211 -0.9522
    7SAPS  H10Y  906   6.536   0.951   9.432  1.4060 -1.1823  0.2646
    7SAPS  C311  907   6.567   1.123   9.299  0.4668  0.1743  0.3697
    7SAPS  H11X  908   6.648   1.061   9.253 -0.2282 -0.8863  0.5358
    7SAPS  H11Y  909   6.610   1.226   9.299  1.1144 -0.0412  2.5778
    7SAPS  C312  910   6.428   1.119   9.219 -0.5848 -0.4277  0.6630
    7SAPS  H12X  911   6.350   1.173   9.276 -1.4369 -0.2991 -0.5859
    7SAPS  H12Y  912   6.407   1.010   9.214  2.4090 -1.0406 -2.9422
    7SAPS  C313  913   6.439   1.173   9.074 -0.1288 -0.4194 -0.1886
    7SAPS  H13X  914   6.476   1.098   9.001 -0.2432  1.5038 -2.3424
    7SAPS  H13Y  915   6.518   1.252   9.080  0.4667 -1.0728  0.9119
    7SAPS  C314  916   6.317   1.251   9.020  0.3751  0.4374  0.3501
    7SAPS  H14X  917   6.299   1.342   9.081 -2.5674 -1.6061  2.8259
    7SAPS  H14Y  918   6.225   1.189   9.029  0.0704  0.9863  1.1327
    7SAPS  C315  919   6.328   1.303   8.870 -0.0626  0.2082  0.0145
    7SAPS  H15X  920   6.330   1.209   8.812  0.8709  1.4584 -2.1166
    7SAPS  H15Y  921   6.420   1.361   8.849 -0.5420  0.3898 -1.7664
    7SAPS  C316  922   6.200   1.384   8.830 -1.3938 -0.0852 -0.4748
    7SAPS  H16X  923   6.205   1.471   8.899  0.6821 -0.1446 -0.4806
    7SAPS  H16Y  924   6.109   1.321   8.839  0.2632 -2.5028  0.1451
    7SAPS  C317  925   6.223   1.436   8.689  0.2273  0.6483  0.1435
    7SAPS  H17X  926   6.316   1.496   8.681  1.5270 -1.4013 -1.5622
    7SAPS  H17Y  927   6.138   1.496   8.651 -0.2573  0.8870  1.5688
    7SAPS  C318  928   6.245   1.323   8.587 -0.2226 -0.0231  0.0483
    7SAPS  H18X  929   6.284   1.357   8.489  0.9229 -1.5535 -0.0477
    7SAPS  H18Y  930   6.144   1.281   8.568 -0.6089  1.3815 -1.2959
    7SAPS  H18Z  931   6.308   1.241   8.626  2.2250  1.5656 -0.3615
    8SAPS     N  932   4.075   0.726  10.857  0.2281 -0.3838 -0.5774
    8SAPS   HN1  933   4.034   0.631  10.866 -1.4744  0.5300  4.0507
    8SAPS   HN2  934   4.053   0.769  10.764 -1.1130  2.1998  0.8268
    8SAPS   HN3  935   4.179   0.722  10.865  0.2201  1.7948  1.8972
    8SAPS   C12  936   4.018   0.814  10.963 -0.1594 -0.4825  0.3763
    8SAPS  H12A  937   3.933   0.765  11.010 -1.9947 -1.5665 -3.6478
    8SAPS   C13  938   4.122   0.829  11.081  0.2277  0.2052 -0.5000
    8SAPS  O13A  939   4.228   0.767  11.078 -0.4895 -0.1657 -0.9105
    8SAPS  O13B  940   4.085   0.899  11.178  0.2471  0.2862  0.2111
    8SAPS   C11  941   3.977   0.957  10.912 -0.3517 -0.4842 -0.2059
    8SAPS  H11A  942   4.059   0.999  10.850  0.4260  1.9990  2.2481
    8SAPS  H11B  943   3.959   1.029  10.995 -0.8113 -2.1364  1.1949
    8SAPS     P  944   3.751   1.045  10.828  0.4001 -0.2586  0.5045
    8SAPS   O13  945   3.691   1.032  10.963 -0.2215 -1.4362  0.3118
    8SAPS   O14  946   3.797   1.181  10.783  0.6254 -0.3613  0.5359
    8SAPS   O12  947   3.865   0.936  10.829 -0.2319 -0.0932 -0.6652
    8SAPS   O11  948   3.643   0.984  10.723 -0.2970 -0.7369 -0.0736
    8SAPS    C1  949   3.654   0.849  10.672 -0.6702 -0.1909 -0.1347
    8SAPS    HA  950   3.675   0.778  10.754 -1.5474 -2.0999 -1.4940
    8SAPS    HB  951   3.556   0.822  10.627 -1.2632  0.1385  0.9356
    8SAPS    C2  952   3.765   0.837  10.563 -0.2697  0.1035 -0.0750
    8SAPS    HS  953   3.863   0.865  10.607 -0.4263  0.4240  0.0743
    8SAPS   O21  954   3.729   0.919  10.451 -0.1704  0.6568 -0.1612
    8SAPS   C21  955   3.832   0.946  10.363  0.2690  0.3082 -0.7564
    8SAPS   O22  956   3.944   0.895  10.367 -0.0692  0.2088 -0.3055
    8SAPS   C22  957   3.788   1.059  10.267 -0.2631  0.7034  0.4085
    8SAPS   H2R  958   3.698   1.112  10.306 -2.8920 -2.0667 -1.4073
    8SAPS   H2S  959   3.875   1.128  10.268  0.0755  0.2810  0.3196
    8SAPS    C3  960   3.790   0.688  10.527  0.2702  0.9659 -0.0824
    8SAPS    HX  961   3.816   0.647  10.626 -2.5232 -1.1896 -0.1094
    8SAPS    HY  962   3.873   0.676  10.454  3.3939  0.5631  3.2618
    8SAPS   O31  963   3.664   0.623  10.488  0.0668 -0.1798 -0.4170
    8SAPS   C31  964   3.665   0.491  10.504  0.0908 -0.2885 -0.6251
    8SAPS   O32  965   3.766   0.428  10.541  0.1571  0.0253  0.2587
    8SAPS   C32  966   3.525   0.436  10.477 -0.2677 -0.3270  0.5803
    8SAPS   H2X  967   3.457   0.514  10.516 -0.1482 -0.2045  0.5467
    8SAPS   H2Y  968   3.509   0.339  10.529 -1.9110  0.0090  0.7336
    8SAPS   C23  969   3.764   1.020  10.117  0.4098 -0.3510 -0.3492
    8SAPS   H3R  970   3.743   1.112  10.057 -1.7693 -0.4508  0.1994
    8SAPS   H3S  971   3.676   0.953  10.123  1.3408 -1.5108  0.8037
    8SAPS   C24  972   3.895   0.966  10.052 -0.2921 -0.0901 -0.4916
    8SAPS   H4R  973   3.924   0.866  10.092  2.1437  0.4433 -0.7523
    8SAPS   H4S  974   3.971   1.043  10.075 -1.3456  1.2971 -1.4983
    8SAPS   C25  975   3.894   0.973   9.903 -0.2580  0.2031  0.4690
    8SAPS   H5R  976   3.880   1.066   9.847 -0.1011  1.0012  1.7338
    8SAPS   C26  977   3.914   0.857   9.830 -0.1390 -0.5912  0.5530
    8SAPS   H6R  978   3.919   0.869   9.720 -0.2561 -1.2109  0.4776
    8SAPS   C27  979   3.930   0.720   9.880 -0.8854  0.1126 -0.7756
    8SAPS   H7R  980   4.015   0.712   9.950 -0.2671 -1.7690 -1.6813
    8SAPS   H7S  981   3.977   0.654   9.804  1.2537 -0.3383  0.8542
    8SAPS   C28  982   3.813   0.659   9.956  0.0748 -0.3294 -0.1377
    8SAPS   H8R  983   3.720   0.698   9.914 -0.9701 -0.3855  1.9942
    8SAPS   C29  984   3.818   0.583  10.068 -0.2787 -0.4636 -0.0266
    8SAPS   H9R  985   3.720   0.564  10.114 -0.3550 -0.0824 -0.0313
    8SAPS  C210  986   3.942   0.530  10.132 -0.4476  0.0480  0.1665
    8SAPS  H10R  987   3.992   0.606  10.197  0.8207 -1.3307  0.8752
    8SAPS  H10S  988   4.013   0.511  10.049  0.7139  0.3854  1.0461
    8SAPS  C211  989   3.934   0.408  10.219  0.0642 -0.6747 -0.0921
    8SAPS  H11R  990   3.928   0.428  10.327  0.3178  1.5387 -0.4398
    8SAPS  C212  991   3.936   0.279  10.184 -0.0900 -0.0484  0.0398
    8SAPS  H12R  992   3.939   0.205  10.265  0.8471  0.3562  0.3951
    8SAPS  C213  993   3.951   0.219  10.044  0.3694  0.2900 -0.8874
    8SAPS  H13R  994   4.054   0.238  10.007  0.0732  0.3629 -1.6896
    8SAPS  H13S  995   3.877   0.272   9.980 -1.6335  0.1036  1.1392
    8SAPS  C214  996   3.930   0.074  10.016 -0.3491 -0.1226  0.1263
    8SAPS  H14R  997   3.935   0.004  10.101  0.0755 -1.2600 -0.8106
    8SAPS  C215  998   3.900   0.024   9.891 -0.0080  0.2669  0.2334
    8SAPS  H15R  999   3.878  -0.084   9.880 -4.6729  1.0763 -0.4668
    8SAPS  C216 1000   3.886   0.108   9.767  0.1545 -0.3219  0.0931
    8SAPS  H16R 1001   3.933   0.207   9.779 -1.8011  0.6279  0.2742
    8SAPS  H16S 1002   3.780   0.138   9.758  0.3754  1.7724  3.0183
    8SAPS  C217 1003   3.923   0.031   9.642  0.2559  0.3529 -0.2167
    8SAPS  H17R 1004   4.014  -0.030   9.662  0.9331  0.9369 -1.4149
    8SAPS  H17S 1005   3.958   0.108   9.570 -0.3536  0.9824  0.1408
    8SAPS  C218 1006   3.819  -0.071   9.587 -0.3157  0.2024  0.7191
    8SAPS  H18R 1007   3.761  -0.019   9.508  1.4294  0.3427 -0.5270
    8SAPS  H18S 1008   3.742  -0.096   9.663 -0.2570  0.0571  0.7312
    8SAPS  C219 1009   3.880  -0.194   9.526  0.3556 -0.8171 -0.1020
    8SAPS  H19R 1010   3.802  -0.250   9.471 -0.5956  0.3268  0.0274
    8SAPS  H19S 1011   3.918  -0.268   9.600 -0.7959 -1.5135 -0.1894
    8SAPS  C220 1012   3.988  -0.164   9.425  0.4759  0.2733  0.1033
    8SAPS  H20R 1013   4.076  -0.108   9.465 -0.2319  0.3527  1.6213
    8SAPS  H20S 1014   3.948  -0.102   9.342  0.1745  0.2047  0.1966
    8SAPS  H20T 1015   4.030  -0.259   9.385  0.7210  0.8246 -0.9996
    8SAPS   C33 1016   3.497   0.392  10.330 -0.4195 -0.4949  0.3707
    8SAPS   H3X 1017   3.550   0.465  10.265 -1.7768  0.9541  0.8292
    8SAPS   H3Y 1018   3.387   0.402  10.315 -0.4631  1.0229  1.4472
    8SAPS   C34 1019   3.535   0.246  10.280  0.5335  0.0256 -0.1541
    8SAPS   H4X 1020   3.523   0.175  10.364  4.0259  1.7157  1.9989
    8SAPS   H4Y 1021   3.645   0.246  10.264  0.5037  0.2447 -0.3648
    8SAPS   C35 1022   3.451   0.207  10.156  0.6490  0.6295  0.9530
    8SAPS   H5X 1023   3.346   0.230  10.184  0.4909  0.3024  0.6362
    8SAPS   H5Y 1024   3.452   0.098  10.138  1.2915  0.5620  1.3462
    8SAPS   C36 1025   3.496   0.280  10.034 -0.1264  0.0103  0.0738
    8SAPS   H6X 1026   3.599   0.265   9.994  0.3130  1.7650  0.4857
    8SAPS   H6Y 1027   3.496   0.389  10.052 -2.1141  1.0833 -4.9078
    8SAPS   C37 1028   3.401   0.252   9.904 -0.2593 -0.0796 -0.1309
    8SAPS   H7X 1029   3.312   0.311   9.932  1.0647  2.1775 -0.3820
    8SAPS   H7Y 1030   3.380   0.144   9.895 -1.6403  0.1518  0.1457
    8SAPS   C38 1031   3.471   0.305   9.779  0.5350  0.4998  0.3244
    8SAPS   H8X 1032   3.553   0.237   9.745 -1.6800 -1.4880 -1.3759
    8SAPS   H8Y 1033   3.509   0.407   9.800  0.5829  0.3297  1.1024
    8SAPS   C39 1034   3.386   0.298   9.657  0.2518 -0.1622  0.3504
    8SAPS   H9X 1035   3.332   0.201   9.655  1.8617 -1.0853 -0.7580
    8SAPS   H9Y 1036   3.457   0.303   9.571 -1.4432 -0.6356 -1.1307
    8SAPS  C310 1037   3.285   0.412   9.657  0.1868 -0.9154 -0.6441
    8SAPS  H10X 1038   3.344   0.502   9.684 -0.4067 -1.1678  1.7254
    8SAPS  H10Y 1039   3.209   0.399   9.738 -1.7044  0.5195 -2.0838
    8SAPS  C311 1040   3.216   0.429   9.517 -0.3660 -0.5469 -0.3098
    8SAPS  H11X 1041   3.135   0.354   9.504 -0.0845 -1.0444  0.6759
    8SAPS  H11Y 1042   3.300   0.410   9.447  1.2654  4.5259 -0.1451
    8SAPS  C312 1043   3.161   0.565   9.497 -0.8424 -0.4666  0.2302
    8SAPS  H12X 1044   3.227   0.649   9.526 -1.1370 -0.1311 -0.0603
    8SAPS  H12Y 1045   3.081   0.569   9.574  0.8148  0.1608  1.9777
    8SAPS  C313 1046   3.121   0.572   9.350  0.2346 -0.1091  0.6228
    8SAPS  H13X 1047   3.048   0.654   9.331 -1.1038 -0.9722  1.8513
    8SAPS  H13Y 1048   3.067   0.478   9.326  0.2020 -0.0233  0.3607
    8SAPS  C314 1049   3.232   0.594   9.238  0.2496 -0.1117  0.0075
    8SAPS  H14X 1050   3.288   0.497   9.240 -1.5417 -1.2111  2.3716
    8SAPS  H14Y 1051   3.283   0.687   9.270  0.2797 -0.6546  1.6451
    8SAPS  C315 1052   3.168   0.612   9.095  0.5236 -0.4587  0.4843
    8SAPS  H15X 1053   3.132   0.717   9.090  1.3689 -0.0880  1.7186
    8SAPS  H15Y 1054   3.082   0.543   9.079 -0.1225  0.3100  0.5695
    8SAPS  C316 1055   3.280   0.583   8.994  0.0240 -0.6416 -1.2310
    8SAPS  H16X 1056   3.299   0.474   8.994 -2.3656 -1.2235  2.4324
    8SAPS  H16Y 1057   3.372   0.635   9.029 -2.5905  3.5665  0.2412
    8SAPS  C317 1058   3.244   0.624   8.856 -0.3175 -0.0691 -0.3003
    8SAPS  H17X 1059   3.230   0.735   8.858  2.5566  0.3591  1.3589
    8SAPS  H17Y 1060   3.151   0.567   8.835 -1.6347  2.0834 -0.6748
    8SAPS  C318 1061   3.353   0.588   8.754  0.9631 -0.7789 -0.7672
    8SAPS  H18X 1062   3.331   0.487   8.712  0.1776  0.1042 -2.5448
    8SAPS  H18Y 1063   3.448   0.605   8.809 -0.4979  2.7982  0.9554
    8SAPS  H18Z 1064   3.355   0.660   8.670 -3.2752 -0.2978 -0.6751
    9SAPS     N 1065   5.476   5.455   5.970  0.5331 -0.3040 -0.1678
    9SAPS   HN1 1066   5.464   5.352   5.978  2.3132 -0.5905 -0.7942
    9SAPS   HN2 1067   5.464   5.510   6.057 -1.4386 -1.6037  0.4603
    9SAPS   HN3 1068   5.418   5.493   5.892  3.3685  1.3314 -1.6372
    9SAPS   C12 1069   5.611   5.477   5.939 -0.5412 -0.9078  0.5931
    9SAPS  H12A 1070   5.649   5.387   5.893 -2.1503 -2.0873  1.4682
    9SAPS   C13 1071   5.635   5.599   5.851 -0.1850  0.0075 -1.0002
    9SAPS  O13A 1072   5.536   5.655   5.796  0.7959  0.4154 -0.6189
    9SAPS  O13B 1073   5.756   5.624   5.825 -0.3541 -0.6644 -0.1072
    9SAPS   C11 1074   5.676   5.506   6.075 -0.3623 -0.2765 -0.2115
    9SAPS  H11A 1075   5.626   5.595   6.120 -2.5396 -1.7325  0.4204
    9SAPS  H11B 1076   5.782   5.529   6.054 -0.2035  0.1969  1.0120
    9SAPS     P 1077   5.766   5.383   6.286 -0.8354 -0.1263 -0.4471
    9SAPS   O13 1078   5.727   5.277   6.381  1.2445 -0.7872  0.2949
    9SAPS   O14 1079   5.897   5.373   6.219 -0.2453  0.6279 -0.1249
    9SAPS   O12 1080   5.662   5.396   6.170  0.1761 -0.2645 -0.2068
    9SAPS   O11 1081   5.767   5.524   6.356 -0.2974  0.1602  0.1235
    9SAPS    C1 1082   5.640   5.578   6.401 -0.4462  0.2714  0.0044
    9SAPS    HA 1083   5.632   5.680   6.358  1.0508  0.2435 -0.4090
    9SAPS    HB 1084   5.550   5.519   6.374 -1.3069  1.7851 -0.5748
    9SAPS    C2 1085   5.636   5.586   6.557 -0.0539 -1.4691 -0.5167
    9SAPS    HS 1086   5.727   5.636   6.596 -0.2541 -0.3951 -1.3579
    9SAPS   O21 1087   5.624   5.460   6.608  0.1895  0.2418  0.3296
    9SAPS   C21 1088   5.724   5.397   6.669 -0.5598 -0.5468  0.2112
    9SAPS   O22 1089   5.839   5.432   6.684 -0.1500 -0.0760 -0.0893
    9SAPS   C22 1090   5.671   5.265   6.722 -0.1376  0.4387  0.0270
    9SAPS   H2R 1091   5.584   5.235   6.660  0.8233  1.4046 -1.8933
    9SAPS   H2S 1092   5.750   5.187   6.719  1.1716  1.7386 -0.2867
    9SAPS    C3 1093   5.508   5.677   6.603 -0.5690 -0.3257  0.0510
    9SAPS    HX 1094   5.414   5.632   6.564 -1.2580  1.8148 -0.9187
    9SAPS    HY 1095   5.521   5.778   6.559  2.1510 -0.1049  1.1901
    9SAPS   O31 1096   5.496   5.697   6.746 -0.6823 -0.4763 -0.0779
    9SAPS   C31 1097   5.423   5.613   6.809  0.0077  0.6334 -0.5556
    9SAPS   O32 1098   5.357   5.522   6.762  0.0416 -0.1572  0.2407
    9SAPS   C32 1099   5.452   5.625   6.965 -0.5164  0.8764 -0.3198
    9SAPS   H2X 1100   5.410   5.723   6.997 -0.6584  0.5352  0.5408
    9SAPS   H2Y 1101   5.562   5.624   6.980 -0.5813 -2.3089  0.5891
    9SAPS   C23 1102   5.629   5.269   6.870 -0.8660 -0.7862  0.9076
    9SAPS   H3R 1103   5.597   5.168   6.902  1.7194 -1.8176  0.4735
    9SAPS   H3S 1104   5.538   5.333   6.879 -0.3197  0.0081  0.8978
    9SAPS   C24 1105   5.736   5.316   6.972 -0.1929 -0.0421 -0.0956
    9SAPS   H4R 1106   5.694   5.321   7.075  0.6542 -1.4442  0.3487
    9SAPS   H4S 1107   5.768   5.419   6.949  1.3168 -0.1782  1.2032
    9SAPS   C25 1108   5.856   5.223   6.966 -0.0788  0.1786  0.1670
    9SAPS   H5R 1109   5.916   5.215   6.874 -0.1859  3.8708 -0.3786
    9SAPS   C26 1110   5.891   5.138   7.067  0.5590  0.6625 -0.5782
    9SAPS   H6R 1111   5.963   5.057   7.050 -2.2058 -1.4872 -3.2965
    9SAPS   C27 1112   5.819   5.124   7.207 -0.7185  0.1070  0.4267
    9SAPS   H7R 1113   5.725   5.069   7.181  1.3385 -2.5659 -2.1185
    9SAPS   H7S 1114   5.799   5.222   7.253 -1.8806  0.0773  0.0368
    9SAPS   C28 1115   5.902   5.051   7.309 -0.2916  0.1157 -0.3118
    9SAPS   H8R 1116   5.963   4.971   7.264  2.5351  0.5202  2.4869
    9SAPS   C29 1117   5.910   5.071   7.438 -0.1026 -0.4526 -0.5090
    9SAPS   H9R 1118   5.993   5.021   7.490  0.4884 -0.4353 -1.4149
    9SAPS  C210 1119   5.828   5.168   7.525 -0.3836  0.0515  0.3853
    9SAPS  H10R 1120   5.749   5.227   7.474 -1.4419 -2.2569 -0.7742
    9SAPS  H10S 1121   5.903   5.238   7.568  1.5577 -1.3938 -0.5310
    9SAPS  C211 1122   5.749   5.098   7.635  0.8166 -0.5038  0.2649
    9SAPS  H11R 1123   5.640   5.097   7.621  0.6258  0.8544  1.3902
    9SAPS  C212 1124   5.797   5.058   7.755  0.0008  0.4673  0.0398
    9SAPS  H12R 1125   5.726   5.003   7.819 -1.9608  0.6898 -1.8386
    9SAPS  C213 1126   5.942   5.072   7.799 -0.2569  0.3160 -0.3206
    9SAPS  H13R 1127   5.934   5.119   7.899 -0.9692  0.6368 -0.5175
    9SAPS  H13S 1128   5.998   5.137   7.728 -0.6978  0.7647 -0.2638
    9SAPS  C214 1129   6.013   4.940   7.795  0.2436  0.4656 -0.1222
    9SAPS  H14R 1130   6.015   4.908   7.690 -0.9193 -0.2489  0.0558
    9SAPS  C215 1131   6.062   4.868   7.899 -1.0598 -0.0870  0.3078
    9SAPS  H15R 1132   6.115   4.772   7.886 -0.2935  0.6145 -2.2967
    9SAPS  C216 1133   6.054   4.905   8.045 -0.0032  0.5467  0.0751
    9SAPS  H16R 1134   5.952   4.874   8.078  0.5238 -1.7555 -0.3312
    9SAPS  H16S 1135   6.062   5.016   8.047  0.9224  0.5463 -1.6509
    9SAPS  C217 1136   6.156   4.840   8.142  0.1360  0.2417 -0.1521
    9SAPS  H17R 1137   6.168   4.905   8.231  1.3673  0.0213 -0.1308
    9SAPS  H17S 1138   6.256   4.841   8.093 -0.6716 -1.3523 -1.9752
    9SAPS  C218 1139   6.141   4.696   8.181  0.1365 -0.7805  0.3694
    9SAPS  H18R 1140   6.049   4.677   8.240 -0.0447  2.3796  1.2310
    9SAPS  H18S 1141   6.225   4.661   8.244 -0.2108 -2.5410 -0.0686
    9SAPS  C219 1142   6.143   4.600   8.062 -0.1718  0.4290 -0.0462
    9SAPS  H19R 1143   6.214   4.635   7.984  0.0173 -3.5456 -1.9515
    9SAPS  H19S 1144   6.045   4.595   8.010 -1.0578  1.0830  1.4857
    9SAPS  C220 1145   6.180   4.455   8.094  0.6049  0.4292  0.4620
    9SAPS  H20R 1146   6.271   4.440   8.156  2.1656  0.9948 -1.5771
    9SAPS  H20S 1147   6.183   4.393   8.001  0.2987  0.3862  0.4787
    9SAPS  H20T 1148   6.094   4.408   8.147 -1.6047  1.7861 -1.6878
    9SAPS   C33 1149   5.388   5.509   7.055 -0.0412  0.1706  0.6725
    9SAPS   H3X 1150   5.418   5.415   7.003  1.8643  1.2402 -0.2858
    9SAPS   H3Y 1151   5.278   5.521   7.055 -0.3208 -1.3066  3.9605
    9SAPS   C34 1152   5.443   5.505   7.200  0.2984  0.0509 -0.0997
    9SAPS   H4X 1153   5.425   5.605   7.245 -1.8059 -1.1505  1.9680
    9SAPS   H4Y 1154   5.553   5.486   7.208 -0.0810 -1.7159  1.7497
    9SAPS   C35 1155   5.368   5.397   7.285  0.1922  0.1887 -0.1768
    9SAPS   H5X 1156   5.376   5.304   7.225 -0.7716 -0.2833  0.4131
    9SAPS   H5Y 1157   5.262   5.427   7.298  0.0084  0.4709 -2.0012
    9SAPS   C36 1158   5.453   5.367   7.416 -0.6421 -0.9995 -0.3109
    9SAPS   H6X 1159   5.555   5.329   7.391  0.5126 -0.1237  2.6831
    9SAPS   H6Y 1160   5.399   5.288   7.472  0.4623  0.1241  2.4909
    9SAPS   C37 1161   5.453   5.483   7.519 -0.0813 -0.0132  0.1615
    9SAPS   H7X 1162   5.346   5.505   7.543 -1.0676 -1.6251 -2.3674
    9SAPS   H7Y 1163   5.499   5.577   7.482 -2.6097  1.0536 -0.5244
    9SAPS   C38 1164   5.520   5.438   7.651 -0.3810 -0.2649  0.2082
    9SAPS   H8X 1165   5.630   5.443   7.641 -0.4291  1.0346  0.2094
    9SAPS   H8Y 1166   5.490   5.331   7.659 -1.1722  0.0751  2.2043
    9SAPS   C39 1167   5.470   5.506   7.782 -0.0871  0.7434  1.1123
    9SAPS   H9X 1168   5.366   5.475   7.807 -1.4158  3.1336 -0.9255
    9SAPS   H9Y 1169   5.459   5.611   7.747 -1.0337  0.0778 -0.6827
    9SAPS  C310 1170   5.572   5.496   7.897  0.0287 -0.4994 -0.7655
    9SAPS  H10X 1171   5.519   5.535   7.987  0.2228 -1.9337  0.0005
    9SAPS  H10Y 1172   5.669   5.545   7.875  0.4548 -1.0388 -0.1456
    9SAPS  C311 1173   5.608   5.357   7.948  0.8696 -0.3526 -1.2090
    9SAPS  H11X 1174   5.654   5.299   7.866  1.5773 -0.3764 -0.8037
    9SAPS  H11Y 1175   5.512   5.304   7.964  0.3916  1.4268  3.2992
    9SAPS  C312 1176   5.685   5.345   8.076  0.1845  0.2995 -1.4728
    9SAPS  H12X 1177   5.778   5.405   8.080  0.1941  0.2475 -0.7893
    9SAPS  H12Y 1178   5.710   5.236   8.083 -1.3840  0.0078  0.4218
    9SAPS  C313 1179   5.595   5.376   8.204  0.4403 -0.4993  0.4485
    9SAPS  H13X 1180   5.508   5.307   8.201 -0.1247  0.1437  1.6123
    9SAPS  H13Y 1181   5.556   5.480   8.209  0.4029 -0.4954  0.0958
    9SAPS  C314 1182   5.681   5.371   8.332 -0.2271  0.2870 -0.9346
    9SAPS  H14X 1183   5.764   5.443   8.317 -2.2125  2.7535 -0.7763
    9SAPS  H14Y 1184   5.710   5.265   8.347 -0.4590  0.2414 -0.8082
    9SAPS  C315 1185   5.608   5.409   8.461 -0.8219  0.2229  0.3654
    9SAPS  H15X 1186   5.506   5.366   8.456 -0.1936 -1.3190 -0.1188
    9SAPS  H15Y 1187   5.594   5.519   8.460 -2.4852  0.0626 -2.2765
    9SAPS  C316 1188   5.672   5.355   8.593 -0.4477  0.1490 -0.4269
    9SAPS  H16X 1189   5.758   5.426   8.592 -0.0727 -0.2235  1.3988
    9SAPS  H16Y 1190   5.695   5.246   8.589 -1.0014 -0.0755  1.5776
    9SAPS  C317 1191   5.580   5.394   8.703  0.8799  0.5337 -0.0205
    9SAPS  H17X 1192   5.491   5.332   8.681  0.2903  1.3200  0.1024
    9SAPS  H17Y 1193   5.549   5.501   8.694 -0.6622  0.2487  1.4183
    9SAPS  C318 1194   5.641   5.368   8.838 -0.4298  0.2842 -0.2122
    9SAPS  H18X 1195   5.670   5.466   8.882 -0.6100  1.0164 -1.6354
    9SAPS  H18Y 1196   5.732   5.307   8.820 -0.0049  0.0793  2.3509
    9SAPS  H18Z 1197   5.578   5.308   8.906 -0.5363 -1.2638 -1.6086
   10SAPS     N 1198   5.042   4.351   6.183 -0.5708  0.0737 -0.3341
   10SAPS   HN1 1199   5.137   4.388   6.200  0.0464 -1.3905 -0.4023
   10SAPS   HN2 1200   5.038   4.319   6.084 -0.8707  3.4402 -1.5119
   10SAPS   HN3 1201   4.969   4.422   6.201  0.3679  0.8295  0.5863
   10SAPS   C12 1202   5.025   4.233   6.266 -0.5237  0.0811 -0.2472
   10SAPS  H12A 1203   4.994   4.269   6.363  1.0279  1.0151 -0.0663
   10SAPS   C13 1204   4.905   4.144   6.230  0.0654  1.1130 -0.7613
   10SAPS  O13A 1205   4.822   4.184   6.142  0.1144  0.0982  0.7027
   10SAPS  O13B 1206   4.879   4.037   6.292 -0.3526  0.5544  0.1213
   10SAPS   C11 1207   5.152   4.139   6.262 -0.8201 -0.0843  0.5581
   10SAPS  H11A 1208   5.170   4.094   6.162  0.0897  0.5168  0.4387
   10SAPS  H11B 1209   5.146   4.055   6.334 -0.9293  0.2428  0.9303
   10SAPS     P 1210   5.394   4.137   6.370  0.6691  0.1676  0.0716
   10SAPS   O13 1211   5.424   4.018   6.293 -0.0084 -0.1039  0.1084
   10SAPS   O14 1212   5.499   4.237   6.387 -0.1935 -0.3337 -0.1091
   10SAPS   O12 1213   5.269   4.216   6.296 -0.2390  0.8342 -0.1628
   10SAPS   O11 1214   5.330   4.082   6.512  0.1667 -0.3717  0.5735
   10SAPS    C1 1215   5.275   4.196   6.593 -0.2512  0.6505 -0.5384
   10SAPS    HA 1216   5.362   4.254   6.633 -0.4199 -1.0328  2.6020
   10SAPS    HB 1217   5.224   4.264   6.522  0.2741  0.8219 -0.7607
   10SAPS    C2 1218   5.171   4.145   6.695  0.0567  0.3962 -1.3449
   10SAPS    HS 1219   5.122   4.233   6.742  0.2924 -0.4414  0.5721
   10SAPS   O21 1220   5.239   4.049   6.784 -0.4853  0.7421 -0.0201
   10SAPS   C21 1221   5.236   4.076   6.914  0.8870 -0.1391  0.3390
   10SAPS   O22 1222   5.174   4.167   6.963 -0.0769 -0.0242 -0.4398
   10SAPS   C22 1223   5.306   3.971   7.000  0.0321  0.2229  0.0443
   10SAPS   H2R 1224   5.221   3.914   7.042 -2.4909  1.1025 -3.4160
   10SAPS   H2S 1225   5.359   3.900   6.932 -0.5813 -0.2270  0.0336
   10SAPS    C3 1226   5.059   4.063   6.613 -0.0013  0.3677  0.3912
   10SAPS    HX 1227   5.104   3.993   6.540  0.9635  0.6040  0.7297
   10SAPS    HY 1228   5.008   4.141   6.552 -4.4324 -2.6204 -0.1926
   10SAPS   O31 1229   4.971   3.994   6.702  0.6684 -0.5180 -0.2305
   10SAPS   C31 1230   4.860   4.055   6.748 -0.3509 -0.0292  0.2855
   10SAPS   O32 1231   4.834   4.170   6.722  0.7668  0.1541  0.4031
   10SAPS   C32 1232   4.778   3.960   6.826  0.6594  0.0950 -0.6687
   10SAPS   H2X 1233   4.725   3.897   6.752 -0.7417  0.3057  0.1203
   10SAPS   H2Y 1234   4.707   4.031   6.874  1.6577  0.4612  0.3417
   10SAPS   C23 1235   5.402   4.038   7.110 -0.5027  0.2610  0.0607
   10SAPS   H3R 1236   5.343   4.092   7.188 -1.7502 -2.0644  0.8291
   10SAPS   H3S 1237   5.455   4.116   7.052  1.6995 -0.7865  0.5703
   10SAPS   C24 1238   5.499   3.938   7.179  0.2355  0.1255  0.0365
   10SAPS   H4R 1239   5.572   3.995   7.240  1.6558 -1.7312  0.1935
   10SAPS   H4S 1240   5.548   3.876   7.100 -0.3910 -0.8175  0.3641
   10SAPS   C25 1241   5.415   3.842   7.268 -0.3479 -0.3663  0.5641
   10SAPS   H5R 1242   5.371   3.761   7.208  1.1272 -0.0760 -0.9982
   10SAPS   C26 1243   5.403   3.864   7.403 -0.6658 -0.0591 -0.3327
   10SAPS   H6R 1244   5.340   3.804   7.470 -1.2898  1.5675  0.6170
   10SAPS   C27 1245   5.465   3.977   7.475 -0.4504 -0.4802  0.8319
   10SAPS   H7R 1246   5.402   4.026   7.553  0.4737 -0.0567  1.3275
   10SAPS   H7S 1247   5.482   4.071   7.418  0.5250 -0.2196  1.5281
   10SAPS   C28 1248   5.591   3.935   7.545 -0.3831  0.1564  0.2262
   10SAPS   H8R 1249   5.684   3.924   7.488 -0.7972 -3.3474 -0.0259
   10SAPS   C29 1250   5.602   3.890   7.672  0.2025  0.8144 -0.8213
   10SAPS   H9R 1251   5.700   3.854   7.708 -0.4147  2.5431  3.0158
   10SAPS  C210 1252   5.487   3.860   7.764  0.2312 -0.4338  0.0493
   10SAPS  H10R 1253   5.394   3.862   7.703  1.1526  1.4506 -1.4212
   10SAPS  H10S 1254   5.475   3.938   7.842  0.7193 -0.7390  0.4318
   10SAPS  C211 1255   5.509   3.728   7.828  0.0017 -0.2155  0.0782
   10SAPS  H11R 1256   5.535   3.653   7.752  1.3679  0.0562  0.2514
   10SAPS  C212 1257   5.495   3.689   7.959  0.1960 -0.0717  0.0266
   10SAPS  H12R 1258   5.515   3.584   7.986  0.5984  0.1254  0.5133
   10SAPS  C213 1259   5.462   3.782   8.071  0.1341 -0.0731  0.3229
   10SAPS  H13R 1260   5.399   3.867   8.035 -0.5452 -0.4536  0.5936
   10SAPS  H13S 1261   5.559   3.833   8.087 -0.8637  2.7458 -1.6920
   10SAPS  C214 1262   5.413   3.722   8.202  0.4943 -0.6837  0.5824
   10SAPS  H14R 1263   5.305   3.742   8.216  0.2776  3.4626 -4.0361
   10SAPS  C215 1264   5.499   3.670   8.297  0.9905 -0.3957  0.6215
   10SAPS  H15R 1265   5.454   3.617   8.382 -1.7934 -0.3295 -0.7058
   10SAPS  C216 1266   5.644   3.647   8.282  0.5329 -0.4907 -0.7267
   10SAPS  H16R 1267   5.690   3.695   8.192 -0.5717 -1.9393 -2.1118
   10SAPS  H16S 1268   5.674   3.541   8.273  2.3422  0.0629 -1.9819
   10SAPS  C217 1269   5.725   3.689   8.407 -0.2245 -1.0793 -0.3768
   10SAPS  H17R 1270   5.822   3.636   8.411 -0.0724 -0.8628 -1.1247
   10SAPS  H17S 1271   5.664   3.655   8.493  0.5620 -0.8768  0.2738
   10SAPS  C218 1272   5.749   3.842   8.412  0.1863  0.2719 -0.3595
   10SAPS  H18R 1273   5.654   3.895   8.436  0.4869  1.4165 -1.5891
   10SAPS  H18S 1274   5.792   3.882   8.318  2.6642 -0.0070  0.5796
   10SAPS  C219 1275   5.858   3.881   8.520  0.4078 -0.0763  0.8263
   10SAPS  H19R 1276   5.826   3.830   8.614 -0.6083 -0.5655  0.2341
   10SAPS  H19S 1277   5.862   3.992   8.525  0.5787 -0.1065  1.5269
   10SAPS  C220 1278   5.996   3.834   8.480 -0.3302  0.7683  0.3089
   10SAPS  H20R 1279   6.015   3.725   8.489 -0.4683  0.7546  0.4390
   10SAPS  H20S 1280   6.076   3.887   8.537  1.3223 -1.2056 -0.0790
   10SAPS  H20T 1281   6.019   3.861   8.375  0.0556 -0.0881  0.1680
   10SAPS   C33 1282   4.837   3.873   6.938  0.0212 -0.6104 -0.5842
   10SAPS   H3X 1283   4.934   3.828   6.907  0.9127  1.0128 -0.2547
   10SAPS   H3Y 1284   4.767   3.788   6.951 -0.6714  0.1766  1.1465
   10SAPS   C34 1285   4.846   3.924   7.084 -0.5609  0.2094 -0.4835
   10SAPS   H4X 1286   4.739   3.943   7.106 -0.0492  0.9101  1.5708
   10SAPS   H4Y 1287   4.897   4.023   7.085 -2.1533  1.0858  1.3261
   10SAPS   C35 1288   4.903   3.815   7.179 -0.2174  0.4425  0.1271
   10SAPS   H5X 1289   4.998   3.782   7.133 -0.4123  2.2834 -1.7452
   10SAPS   H5Y 1290   4.838   3.726   7.162 -2.0955  1.8385 -0.3003
   10SAPS   C36 1291   4.907   3.833   7.334 -0.0541 -0.2593  0.8611
   10SAPS   H6X 1292   4.874   3.738   7.382 -0.9084 -1.0397 -1.1792
   10SAPS   H6Y 1293   4.837   3.916   7.358  0.0772  0.2416 -0.4308
   10SAPS   C37 1294   5.041   3.895   7.387  0.9878  0.1771  0.0323
   10SAPS   H7X 1295   5.075   3.973   7.315 -0.3947  0.4638 -0.3482
   10SAPS   H7Y 1296   5.102   3.804   7.406 -2.6877 -2.5177  0.0750
   10SAPS   C38 1297   5.032   3.961   7.529  0.0067 -1.1816 -0.2472
   10SAPS   H8X 1298   4.948   4.034   7.539  0.1602 -0.9390 -0.6930
   10SAPS   H8Y 1299   5.135   4.001   7.541 -0.8485  1.1606 -0.1120
   10SAPS   C39 1300   5.011   3.859   7.636  0.0413  0.5237 -0.9283
   10SAPS   H9X 1301   5.059   3.762   7.613  0.2563  0.0837  1.1507
   10SAPS   H9Y 1302   4.903   3.832   7.635  0.2387 -0.4813  0.6626
   10SAPS  C310 1303   5.045   3.904   7.774  0.2197  0.4200  0.4253
   10SAPS  H10X 1304   5.011   4.005   7.805 -0.5306  0.4591 -0.4848
   10SAPS  H10Y 1305   5.155   3.907   7.790  0.3113 -0.3704 -0.0185
   10SAPS  C311 1306   5.004   3.792   7.862 -0.3390  0.5372 -0.4952
   10SAPS  H11X 1307   5.031   3.693   7.820 -0.1071  0.1874  0.4441
   10SAPS  H11Y 1308   4.894   3.785   7.876 -0.6355  0.2494 -2.6514
   10SAPS  C312 1309   5.058   3.800   8.008 -0.3125  0.2882  0.0892
   10SAPS  H12X 1310   5.164   3.833   7.997 -1.0646  2.9294  0.0935
   10SAPS  H12Y 1311   5.061   3.695   8.045  0.5744 -0.0281 -0.8326
   10SAPS  C313 1312   4.987   3.895   8.108  0.1449  0.7861  0.1137
   10SAPS  H13X 1313   4.893   3.847   8.144  2.0661 -2.3517  1.3534
   10SAPS  H13Y 1314   4.969   3.998   8.071 -0.8402  0.6371  0.1375
   10SAPS  C314 1315   5.076   3.913   8.233  0.2078  0.2215  0.4101
   10SAPS  H14X 1316   5.162   3.977   8.208 -1.4812  2.1841 -0.6829
   10SAPS  H14Y 1317   5.114   3.814   8.267  0.6588  0.0953 -0.4396
   10SAPS  C315 1318   4.996   3.992   8.338 -0.4840  0.0039  0.1183
   10SAPS  H15X 1319   5.048   3.961   8.431  0.1627  0.3288 -0.1269
   10SAPS  H15Y 1320   4.892   3.951   8.338 -0.3388 -0.3795 -0.3001
   10SAPS  C316 1321   4.986   4.137   8.305  0.8734  0.0978 -0.4428
   10SAPS  H16X 1322   4.934   4.168   8.212  0.1938  0.8600  0.1781
   10SAPS  H16Y 1323   5.086   4.185   8.309 -0.2881  2.6047  0.8972
   10SAPS  C317 1324   4.901   4.200   8.419  1.1403 -0.5829  0.3481
   10SAPS  H17X 1325   4.941   4.167   8.518  2.0580  2.2287  1.0080
   10SAPS  H17Y 1326   4.800   4.157   8.404  0.9501 -0.4724  1.2426
   10SAPS  C318 1327   4.901   4.351   8.406  0.7895 -0.2561  0.4074
   10SAPS  H18X 1328   4.990   4.400   8.451  0.1305  0.7829  0.6177
   10SAPS  H18Y 1329   4.807   4.383   8.457 -0.0141 -1.3126 -0.3671
   10SAPS  H18Z 1330   4.909   4.396   8.305  1.6330  0.2158  0.6812
   11SAPS     N 1331   1.416   5.490   5.775 -0.5354  0.3640 -0.6265
   11SAPS   HN1 1332   1.332   5.472   5.833 -1.4318  2.3199 -1.2118
   11SAPS   HN2 1333   1.496   5.526   5.831 -1.5372  1.3882  0.1970
   11SAPS   HN3 1334   1.396   5.567   5.709  0.0124 -0.4150 -1.7365
   11SAPS   C12 1335   1.463   5.359   5.713  0.0821  0.3180 -0.3759
   11SAPS  H12A 1336   1.406   5.343   5.622 -1.8602  0.2882  0.7789
   11SAPS   C13 1337   1.613   5.363   5.675 -0.0566  0.2019  0.1627
   11SAPS  O13A 1338   1.675   5.470   5.690  0.3316  0.3934 -0.8047
   11SAPS  O13B 1339   1.660   5.265   5.617 -0.6150  0.4722  0.2977
   11SAPS   C11 1340   1.444   5.235   5.811 -0.5043 -0.1545  0.6955
   11SAPS  H11A 1341   1.499   5.259   5.904  1.2066 -0.3098 -0.2310
   11SAPS  H11B 1342   1.485   5.145   5.759  0.1150  1.3417 -1.5568
   11SAPS     P 1343   1.284   5.098   5.948  0.3174 -0.4894  0.1436
   11SAPS   O13 1344   1.140   5.107   5.985  0.3389  0.3482  0.9199
   11SAPS   O14 1345   1.325   4.976   5.873 -0.4485  0.3192  0.2766
   11SAPS   O12 1346   1.310   5.217   5.847  0.8268  0.4560  0.3790
   11SAPS   O11 1347   1.367   5.120   6.081 -0.0849  0.0168 -0.2192
   11SAPS    C1 1348   1.383   5.256   6.144  0.8092  0.1051 -0.1677
   11SAPS    HA 1349   1.488   5.289   6.129  0.8144  0.2639  0.2013
   11SAPS    HB 1350   1.317   5.335   6.103  0.3176  0.5168  1.3440
   11SAPS    C2 1351   1.355   5.260   6.300 -0.2862 -0.1745  0.6547
   11SAPS    HS 1352   1.392   5.349   6.354 -0.8965  1.4067 -1.4198
   11SAPS   O21 1353   1.411   5.143   6.370  0.7681 -0.1263  0.3257
   11SAPS   C21 1354   1.536   5.170   6.402 -0.2376  0.1890 -0.5978
   11SAPS   O22 1355   1.602   5.267   6.369  0.0225 -0.3708  0.5168
   11SAPS   C22 1356   1.582   5.061   6.496 -0.1611 -0.2895 -0.0923
   11SAPS   H2R 1357   1.497   5.034   6.561 -1.6997  0.4657 -1.7191
   11SAPS   H2S 1358   1.612   4.977   6.429  2.6259  0.0392  0.5911
   11SAPS    C3 1359   1.199   5.275   6.323 -0.3156 -0.3482  0.5067
   11SAPS    HX 1360   1.150   5.181   6.290  2.5552 -0.9363 -2.5335
   11SAPS    HY 1361   1.162   5.359   6.260  0.6652 -0.6677 -0.5057
   11SAPS   O31 1362   1.186   5.314   6.461  0.2248  0.2573 -1.1098
   11SAPS   C31 1363   1.155   5.225   6.550  0.0850 -0.3508  0.5676
   11SAPS   O32 1364   1.115   5.112   6.525  0.1226  0.0646 -0.3686
   11SAPS   C32 1365   1.170   5.282   6.694  0.3237  0.0896 -0.6649
   11SAPS   H2X 1366   1.067   5.276   6.737  0.5433 -0.9451 -0.2511
   11SAPS   H2Y 1367   1.191   5.391   6.689 -0.5667  0.5099  2.5142
   11SAPS   C23 1368   1.702   5.114   6.575  0.4855  0.3042  0.4110
   11SAPS   H3R 1369   1.772   5.174   6.512 -1.7136 -0.2952 -2.8706
   11SAPS   H3S 1370   1.760   5.035   6.627  0.4982  0.9047  1.3196
   11SAPS   C24 1371   1.651   5.195   6.692  0.4000  0.0939 -0.4291
   11SAPS   H4R 1372   1.587   5.133   6.759  0.6152  0.5048  0.1677
   11SAPS   H4S 1373   1.592   5.278   6.649 -1.1952 -0.1537  1.1553
   11SAPS   C25 1374   1.762   5.266   6.760  0.1688 -0.2818 -0.1305
   11SAPS   H5R 1375   1.816   5.325   6.685  0.9666 -2.6427 -1.4973
   11SAPS   C26 1376   1.797   5.277   6.886 -0.2727 -0.2133 -0.2287
   11SAPS   H6R 1377   1.881   5.340   6.919 -1.0607  1.2741 -0.9837
   11SAPS   C27 1378   1.734   5.195   6.999  0.4156  0.3676  0.0581
   11SAPS   H7R 1379   1.644   5.134   6.978  0.3996 -0.5533  2.5010
   11SAPS   H7S 1380   1.697   5.265   7.076  1.1912  1.1808 -0.2807
   11SAPS   C28 1381   1.835   5.095   7.046 -0.3767 -0.0240 -0.1065
   11SAPS   H8R 1382   1.873   5.017   6.979  0.5120 -1.0592  1.5584
   11SAPS   C29 1383   1.891   5.101   7.168  0.9245 -0.5776 -0.0248
   11SAPS   H9R 1384   1.942   5.009   7.199 -1.6228 -2.0956 -0.1172
   11SAPS  C210 1385   1.855   5.200   7.280  0.3498 -0.6338 -0.1833
   11SAPS  H10R 1386   1.840   5.302   7.239  0.3797  1.0870  3.6819
   11SAPS  H10S 1387   1.937   5.208   7.355 -0.6588 -2.1767  1.1512
   11SAPS  C211 1388   1.720   5.157   7.341  0.3738  0.1923  0.1609
   11SAPS  H11R 1389   1.634   5.170   7.274  0.0808  0.8011  0.6521
   11SAPS  C212 1390   1.704   5.107   7.466  0.1862 -0.4473  0.4397
   11SAPS  H12R 1391   1.603   5.101   7.510  0.3650  3.3099  1.7413
   11SAPS  C213 1392   1.804   5.091   7.568 -0.1022  0.5771  0.0153
   11SAPS  H13R 1393   1.806   5.168   7.648 -0.1123 -0.0399  0.6258
   11SAPS  H13S 1394   1.910   5.100   7.534 -0.0281  0.9478  0.3412
   11SAPS  C214 1395   1.792   4.968   7.645  0.1840 -0.3925 -0.2595
   11SAPS  H14R 1396   1.764   4.886   7.577  1.0171  0.5666 -1.8070
   11SAPS  C215 1397   1.822   4.943   7.772 -0.3682 -0.0943 -0.4826
   11SAPS  H15R 1398   1.802   4.841   7.809 -1.2793 -0.0593 -0.8397
   11SAPS  C216 1399   1.869   5.038   7.882  0.1595 -0.8600  0.1688
   11SAPS  H16R 1400   1.780   5.083   7.931  0.9657  1.4755 -0.3788
   11SAPS  H16S 1401   1.911   5.130   7.836 -0.9833 -0.4054  0.0079
   11SAPS  C217 1402   1.967   4.968   7.977 -0.6049 -0.4955  0.1568
   11SAPS  H17R 1403   2.049   4.913   7.926  1.6654  0.4669  2.5606
   11SAPS  H17S 1404   1.922   4.891   8.043  2.2763  0.0720  3.0252
   11SAPS  C218 1405   2.038   5.060   8.083  0.2768 -0.3453  0.2474
   11SAPS  H18R 1406   1.963   5.125   8.133 -1.2040  0.2189 -2.5310
   11SAPS  H18S 1407   2.111   5.131   8.040  0.0615 -1.2810 -1.7439
   11SAPS  C219 1408   2.125   4.981   8.191 -0.4492 -0.3575  0.4881
   11SAPS  H19R 1409   2.205   5.043   8.237  0.3937 -0.6008 -0.6044
   11SAPS  H19S 1410   2.172   4.896   8.136  0.0773  0.5586 -0.5316
   11SAPS  C220 1411   2.040   4.915   8.293 -0.1232 -0.3228 -0.4722
   11SAPS  H20R 1412   2.102   4.872   8.374  0.7989  0.8191 -0.5354
   11SAPS  H20S 1413   1.985   4.826   8.257  1.3051 -1.2328 -0.5083
   11SAPS  H20T 1414   1.968   4.989   8.335  1.3926  0.9352  0.0191
   11SAPS   C33 1415   1.286   5.234   6.791  0.0101 -0.6379  0.2226
   11SAPS   H3X 1416   1.386   5.270   6.756 -0.4253 -0.0545 -0.4319
   11SAPS   H3Y 1417   1.282   5.123   6.796 -2.3839 -0.5805  0.6718
   11SAPS   C34 1418   1.266   5.300   6.922 -0.1663 -0.5964  0.2044
   11SAPS   H4X 1419   1.162   5.291   6.959  0.2264  1.3479  1.9882
   11SAPS   H4Y 1420   1.285   5.409   6.914 -1.5595 -0.1710  1.9946
   11SAPS   C35 1421   1.359   5.240   7.026 -0.2959  0.9387 -0.6480
   11SAPS   H5X 1422   1.459   5.226   6.978  0.6462 -0.0389  1.4481
   11SAPS   H5Y 1423   1.322   5.138   7.049 -2.8297  2.2940  1.7716
   11SAPS   C36 1424   1.367   5.331   7.146  0.2230  0.0410  0.1156
   11SAPS   H6X 1425   1.380   5.436   7.111 -2.2176  0.7400  1.0436
   11SAPS   H6Y 1426   1.443   5.294   7.217 -1.0795  0.2412  1.6853
   11SAPS   C37 1427   1.238   5.335   7.225  0.0962 -0.1136 -0.4023
   11SAPS   H7X 1428   1.206   5.229   7.234 -0.3400 -0.2898 -3.1283
   11SAPS   H7Y 1429   1.168   5.407   7.177  0.8720  0.9590  0.0506
   11SAPS   C38 1430   1.273   5.382   7.371 -0.2124 -0.5261 -0.2676
   11SAPS   H8X 1431   1.304   5.488   7.367  0.3995 -0.6350  1.0411
   11SAPS   H8Y 1432   1.360   5.328   7.415 -0.8636 -0.1532  1.5602
   11SAPS   C39 1433   1.163   5.359   7.472  0.3650 -1.0238  0.4827
   11SAPS   H9X 1434   1.124   5.256   7.459  1.1316 -1.3224  0.4682
   11SAPS   H9Y 1435   1.084   5.434   7.451  1.4867  0.4628  1.4011
   11SAPS  C310 1436   1.207   5.359   7.619  0.3636 -0.0919 -0.2180
   11SAPS  H10X 1437   1.245   5.461   7.638  1.5035 -0.7190  1.1044
   11SAPS  H10Y 1438   1.292   5.288   7.626 -0.9514 -1.6765  0.5081
   11SAPS  C311 1439   1.105   5.333   7.730 -0.3371  0.0769 -0.9016
   11SAPS  H11X 1440   1.080   5.226   7.743  2.2518 -0.2876  2.7910
   11SAPS  H11Y 1441   1.018   5.398   7.705 -0.3987  0.3019 -0.1440
   11SAPS  C312 1442   1.153   5.375   7.870  0.2543 -0.4332  0.1767
   11SAPS  H12X 1443   1.203   5.474   7.878  1.4313 -1.0431  0.7061
   11SAPS  H12Y 1444   1.232   5.311   7.915 -2.5863 -2.6436  2.3729
   11SAPS  C313 1445   1.034   5.377   7.962 -0.4377  0.0393  0.5476
   11SAPS  H13X 1446   0.984   5.278   7.968  0.8571 -0.6721 -0.0105
   11SAPS  H13Y 1447   0.957   5.445   7.920 -0.2331 -0.3762 -0.5258
   11SAPS  C314 1448   1.065   5.447   8.098 -0.4728 -0.0369  0.3366
   11SAPS  H14X 1449   1.108   5.549   8.090 -2.2007  0.6696 -0.7905
   11SAPS  H14Y 1450   1.146   5.391   8.149  0.4031  0.5826 -0.3345
   11SAPS  C315 1451   0.938   5.458   8.197  0.4140  0.6036  0.2179
   11SAPS  H15X 1452   0.852   5.494   8.137 -0.7091  0.4054  1.6459
   11SAPS  H15Y 1453   0.970   5.529   8.276  1.5880  2.5000 -1.8356
   11SAPS  C316 1454   0.889   5.314   8.246 -0.0252 -0.3591  0.1608
   11SAPS  H16X 1455   0.971   5.243   8.269 -2.0457 -3.0065 -0.3997
   11SAPS  H16Y 1456   0.828   5.267   8.166 -0.0261 -0.4373  0.2076
   11SAPS  C317 1457   0.792   5.330   8.364  0.1199 -0.6606 -0.0159
   11SAPS  H17X 1458   0.689   5.357   8.333 -0.5611 -1.5116  1.4034
   11SAPS  H17Y 1459   0.844   5.397   8.436 -1.6067 -1.8027  2.4402
   11SAPS  C318 1460   0.785   5.207   8.459 -0.2993 -0.9823  0.4753
   11SAPS  H18X 1461   0.715   5.134   8.410  0.0476 -0.5583 -0.6990
   11SAPS  H18Y 1462   0.750   5.236   8.560 -0.8276  2.0630 -0.4891
   11SAPS  H18Z 1463   0.880   5.151   8.469  0.2832 -0.3282 -1.0325
   12SAPS     N 1464   3.601   6.756   6.310 -0.0381 -0.2905 -0.4697
   12SAPS   HN1 1465   3.519   6.699   6.280 -0.5357 -0.0938  0.4827
   12SAPS   HN2 1466   3.662   6.692   6.364  3.1928  1.5366 -1.6518
   12SAPS   HN3 1467   3.568   6.836   6.367  1.6425  1.4428 -1.8234
   12SAPS   C12 1468   3.685   6.804   6.194  0.5551  0.1308 -0.0180
   12SAPS  H12A 1469   3.761   6.859   6.248 -0.7607  1.8207  0.1982
   12SAPS   C13 1470   3.747   6.694   6.108  0.1977 -0.2368 -0.4664
   12SAPS  O13A 1471   3.738   6.572   6.141 -0.4684  0.0921 -0.0238
   12SAPS  O13B 1472   3.834   6.731   6.025  0.0405 -0.3389  0.1713
   12SAPS   C11 1473   3.592   6.905   6.114  0.2491  0.1142  0.6280
   12SAPS  H11A 1474   3.515   6.837   6.072  0.2549 -0.2448  1.1928
   12SAPS  H11B 1475   3.637   6.953   6.024 -0.5552  0.5921  0.4746
   12SAPS     P 1476   3.410   7.086   6.176  0.0593 -0.8317  0.1382
   12SAPS   O13 1477   3.410   7.216   6.249  0.6208  0.3904 -0.6410
   12SAPS   O14 1478   3.365   7.081   6.034 -0.8118  0.1232 -0.2294
   12SAPS   O12 1479   3.544   7.013   6.193 -1.0183 -0.0720  0.3401
   12SAPS   O11 1480   3.318   6.985   6.259 -0.0478  0.2939 -0.4945
   12SAPS    C1 1481   3.178   6.974   6.270 -0.0041 -0.2773  0.1305
   12SAPS    HA 1482   3.141   7.078   6.256 -1.0502 -0.8049 -1.1885
   12SAPS    HB 1483   3.135   6.908   6.191  1.0672 -0.0148 -0.7025
   12SAPS    C2 1484   3.144   6.927   6.408  0.4677  0.2412 -0.9342
   12SAPS    HS 1485   3.035   6.941   6.427  0.4865 -1.4253  0.7239
   12SAPS   O21 1486   3.216   7.001   6.507 -0.3692 -0.4029 -0.1795
   12SAPS   C21 1487   3.187   7.129   6.532 -0.0320 -0.0925 -0.9382
   12SAPS   O22 1488   3.098   7.191   6.489 -0.3100  0.4113  0.3361
   12SAPS   C22 1489   3.291   7.176   6.635 -0.1906 -0.1063  0.7476
   12SAPS   H2R 1490   3.389   7.135   6.603 -0.1834  1.0138 -0.7809
   12SAPS   H2S 1491   3.294   7.286   6.622 -1.0809  0.1277  2.2544
   12SAPS    C3 1492   3.176   6.779   6.429 -0.2799  0.2451 -0.0711
   12SAPS    HX 1493   3.286   6.764   6.426 -0.3165 -0.1599  0.4143
   12SAPS    HY 1494   3.124   6.724   6.349  0.9698  0.0769 -0.7963
   12SAPS   O31 1495   3.122   6.724   6.548 -0.1380 -0.0634  0.2065
   12SAPS   C31 1496   3.191   6.708   6.657  0.2606  0.4251 -0.1379
   12SAPS   O32 1497   3.312   6.726   6.671 -0.2788  0.0557  0.2636
   12SAPS   C32 1498   3.098   6.652   6.766  0.0344  1.3496  0.6943
   12SAPS   H2X 1499   3.087   6.542   6.760 -0.9734  1.4716  0.1121
   12SAPS   H2Y 1500   2.996   6.689   6.743  0.3599  1.5951 -0.4115
   12SAPS   C23 1501   3.260   7.152   6.784 -0.2955  0.3503 -0.5045
   12SAPS   H3R 1502   3.188   7.068   6.791 -0.4028  0.4665 -0.2294
   12SAPS   H3S 1503   3.212   7.240   6.830 -0.9920 -0.9839  1.4424
   12SAPS   C24 1504   3.391   7.126   6.868  0.6719 -0.0607  0.7638
   12SAPS   H4R 1505   3.463   7.088   6.791  2.2911  0.5751  1.9228
   12SAPS   H4S 1506   3.378   7.042   6.940  1.7741  0.3225  1.4364
   12SAPS   C25 1507   3.449   7.251   6.933  0.2689 -0.3525  0.3903
   12SAPS   H5R 1508   3.486   7.326   6.861 -1.0876 -0.1290 -0.1242
   12SAPS   C26 1509   3.468   7.282   7.056 -0.4014 -0.0185 -0.2197
   12SAPS   H6R 1510   3.521   7.374   7.083  2.0514 -1.1869 -0.7667
   12SAPS   C27 1511   3.428   7.196   7.178  0.2468  0.6486  0.6303
   12SAPS   H7R 1512   3.507   7.223   7.252  0.9975 -1.6139  0.7337
   12SAPS   H7S 1513   3.454   7.089   7.164 -0.4961  0.5846 -0.3541
   12SAPS   C28 1514   3.285   7.222   7.218 -0.2293  0.2004  0.5258
   12SAPS   H8R 1515   3.218   7.271   7.145  0.4287  1.2927  0.6350
   12SAPS   C29 1516   3.225   7.202   7.337  0.2382 -0.0707  0.1757
   12SAPS   H9R 1517   3.117   7.225   7.338 -0.1505 -1.6854 -0.8271
   12SAPS  C210 1518   3.274   7.137   7.463 -0.8246  0.2452 -0.3870
   12SAPS  H10R 1519   3.383   7.119   7.455 -1.0810 -0.5458 -3.0852
   12SAPS  H10S 1520   3.239   7.032   7.457 -0.7827  0.2656 -1.1125
   12SAPS  C211 1521   3.227   7.213   7.586 -0.2492  0.1508  0.3035
   12SAPS  H11R 1522   3.188   7.313   7.566 -1.3350 -0.6512 -1.9134
   12SAPS  C212 1523   3.228   7.153   7.710  0.1932 -0.9394  0.1089
   12SAPS  H12R 1524   3.188   7.212   7.794 -0.3591 -1.3968  0.1782
   12SAPS  C213 1525   3.268   7.005   7.731 -0.2601 -0.2890  0.0681
   12SAPS  H13R 1526   3.365   6.979   7.683  1.1883 -0.2086  2.7674
   12SAPS  H13S 1527   3.193   6.930   7.697  0.7955 -1.0330 -0.6584
   12SAPS  C214 1528   3.306   6.978   7.879  0.5445 -0.3812  0.6058
   12SAPS  H14R 1529   3.409   6.941   7.887  0.1560 -1.7143 -0.1938
   12SAPS  C215 1530   3.231   6.988   7.987 -0.3166 -0.5278  0.7990
   12SAPS  H15R 1531   3.282   6.979   8.084 -0.1101 -1.1669  0.6309
   12SAPS  C216 1532   3.089   7.038   7.996  0.7499 -1.0310  0.8087
   12SAPS  H16R 1533   3.024   6.957   8.036  0.5527 -1.2538  0.0432
   12SAPS  H16S 1534   3.049   7.060   7.895  3.0046 -0.6681 -0.0699
   12SAPS  C217 1535   3.064   7.168   8.078 -0.0055  1.2241  0.4895
   12SAPS  H17R 1536   2.956   7.190   8.065 -0.8816 -2.8213 -0.6133
   12SAPS  H17S 1537   3.108   7.257   8.028  1.0094 -0.1180 -1.1505
   12SAPS  C218 1538   3.087   7.154   8.232 -0.4867 -0.5751 -0.3825
   12SAPS  H18R 1539   3.126   7.058   8.273 -2.1663 -0.7269  0.9658
   12SAPS  H18S 1540   2.990   7.168   8.285 -1.2280 -1.5597 -1.4117
   12SAPS  C219 1541   3.199   7.250   8.284  0.7374  0.1471  0.0992
   12SAPS  H19R 1542   3.160   7.351   8.259 -2.4258 -1.0766 -0.3959
   12SAPS  H19S 1543   3.291   7.239   8.223  0.0112 -0.3270 -0.9493
   12SAPS  C220 1544   3.227   7.248   8.435  0.6068 -0.4503  0.6237
   12SAPS  H20R 1545   3.138   7.268   8.498  1.1294 -0.9584  1.5431
   12SAPS  H20S 1546   3.299   7.330   8.456 -0.0827  0.4375 -0.3874
   12SAPS  H20T 1547   3.266   7.149   8.468 -0.8514 -1.1812  0.2329
   12SAPS   C33 1548   3.152   6.701   6.901  0.0648 -0.4659 -0.0800
   12SAPS   H3X 1549   3.166   6.811   6.907 -1.1746 -0.3621  1.7423
   12SAPS   H3Y 1550   3.250   6.651   6.919 -0.8127 -1.6043  1.7894
   12SAPS   C34 1551   3.054   6.680   7.014  0.1638 -0.2249  0.5067
   12SAPS   H4X 1552   3.010   6.579   7.006 -0.1195 -0.0530 -0.2179
   12SAPS   H4Y 1553   2.973   6.752   6.992  0.3240 -0.3885 -0.6827
   12SAPS   C35 1554   3.101   6.701   7.154  0.3384 -0.2757  0.7733
   12SAPS   H5X 1555   3.142   6.804   7.163 -1.3020  0.4871 -0.0860
   12SAPS   H5Y 1556   3.184   6.638   7.193  0.1703 -0.6703  0.5066
   12SAPS   C36 1557   2.987   6.688   7.250  0.6236 -0.6583  0.3102
   12SAPS   H6X 1558   2.941   6.587   7.247  0.5848 -0.6952  1.5867
   12SAPS   H6Y 1559   2.902   6.759   7.236  0.7268 -0.6366 -0.2182
   12SAPS   C37 1560   3.041   6.725   7.391  0.6977 -0.0752 -0.6608
   12SAPS   H7X 1561   3.080   6.829   7.392 -0.0965  0.2359 -1.0656
   12SAPS   H7Y 1562   3.119   6.650   7.413  1.5277  0.7923 -0.5769
   12SAPS   C38 1563   2.932   6.719   7.503  0.1001  0.4539  0.6677
   12SAPS   H8X 1564   2.874   6.625   7.500  0.5722  0.1641  0.6602
   12SAPS   H8Y 1565   2.852   6.793   7.480  0.2181  0.2867 -0.3226
   12SAPS   C39 1566   2.990   6.727   7.645  0.5020  0.0398 -0.2299
   12SAPS   H9X 1567   3.032   6.827   7.673 -0.8819  0.8103 -0.8392
   12SAPS   H9Y 1568   3.074   6.657   7.665  1.8089  2.1633  2.5543
   12SAPS  C310 1569   2.881   6.699   7.748  0.2701 -0.4257  0.2796
   12SAPS  H10X 1570   2.818   6.619   7.703 -1.8708  0.9362  0.6952
   12SAPS  H10Y 1571   2.808   6.783   7.739 -0.1549 -0.5530  2.0938
   12SAPS  C311 1572   2.926   6.682   7.897  0.0227  0.0146  0.4874
   12SAPS  H11X 1573   2.990   6.770   7.922  0.2182 -0.2900  1.0846
   12SAPS  H11Y 1574   3.000   6.599   7.895  0.0643  0.0370  0.8796
   12SAPS  C312 1575   2.826   6.655   8.007  0.5258  0.5183 -0.4121
   12SAPS  H12X 1576   2.878   6.597   8.087 -2.0816  0.3270  1.2567
   12SAPS  H12Y 1577   2.749   6.588   7.964 -0.9674 -0.3915  3.2517
   12SAPS  C313 1578   2.763   6.783   8.049 -0.3093 -0.3832 -0.2856
   12SAPS  H13X 1579   2.718   6.835   7.962  1.5189 -0.4685 -1.3306
   12SAPS  H13Y 1580   2.851   6.842   8.082 -0.1299 -0.5658 -0.4321
   12SAPS  C314 1581   2.673   6.783   8.174  0.2103 -0.0579 -0.1157
   12SAPS  H14X 1582   2.675   6.888   8.212 -1.7026  0.5152 -1.4601
   12SAPS  H14Y 1583   2.716   6.716   8.251  2.3552 -2.0589 -2.8643
   12SAPS  C315 1584   2.526   6.743   8.145 -0.1461  0.3109 -0.4917
   12SAPS  H15X 1585   2.524   6.640   8.103 -1.1286 -0.2344  0.8448
   12SAPS  H15Y 1586   2.472   6.809   8.074 -0.6928  0.3080 -0.0869
   12SAPS  C316 1587   2.447   6.745   8.278 -0.0252  0.2453 -0.1346
   12SAPS  H16X 1588   2.468   6.841   8.330  1.7083  0.1638 -0.6155
   12SAPS  H16Y 1589   2.485   6.660   8.339  0.2941 -0.3021 -1.0818
   12SAPS  C317 1590   2.292   6.734   8.263 -0.7649  0.2812  0.4891
   12SAPS  H17X 1591   2.273   6.634   8.219  1.2319  0.2412 -0.3986
   12SAPS  H17Y 1592   2.257   6.818   8.199  1.9799 -0.2704 -1.9485
   12SAPS  C318 1593   2.222   6.751   8.399 -0.0703 -0.2651  0.2364
   12SAPS  H18X 1594   2.238   6.856   8.433  1.6704 -0.4189 -0.0386
   12SAPS  H18Y 1595   2.260   6.683   8.478 -2.1933 -0.2483  1.3538
   12SAPS  H18Z 1596   2.113   6.733   8.383  0.2464 -1.5928 -0.5315
   13SAPS     N 1597   2.517   3.395   6.171  0.2373 -0.4293  0.6149
   13SAPS   HN1 1598   2.604   3.387   6.115 -0.9247  1.2021 -1.6039
   13SAPS   HN2 1599   2.543   3.437   6.262 -0.4700 -0.0119  0.6297
   13SAPS   HN3 1600   2.477   3.300   6.186  1.2589 -1.2828 -1.4924
   13SAPS   C12 1601   2.429   3.494   6.106  0.4934  0.6849  0.4808
   13SAPS  H12A 1602   2.490   3.576   6.071  0.2025 -0.1315 -2.1014
   13SAPS   C13 1603   2.362   3.443   5.976 -0.0935 -0.1325 -0.7260
   13SAPS  O13A 1604   2.399   3.335   5.920  0.2825  0.0758  0.2611
   13SAPS  O13B 1605   2.293   3.522   5.901 -0.2563 -0.0691 -0.0570
   13SAPS   C11 1606   2.317   3.528   6.204  0.3794  0.2775 -0.4770
   13SAPS  H11A 1607   2.259   3.436   6.231  0.5986 -0.2146 -1.6480
   13SAPS  H11B 1608   2.242   3.599   6.163 -0.9264  0.2847  1.7098
   13SAPS     P 1609   2.383   3.733   6.344 -0.1174  0.5141  0.1844
   13SAPS   O13 1610   2.464   3.770   6.458 -0.4818 -0.0473  0.1957
   13SAPS   O14 1611   2.420   3.785   6.211 -0.4968 -0.0736 -0.5202
   13SAPS   O12 1612   2.373   3.573   6.332  0.5015 -0.0248  0.2740
   13SAPS   O11 1613   2.235   3.784   6.381  0.1115 -0.1819  0.8158
   13SAPS    C1 1614   2.128   3.692   6.411  0.0743 -0.6411 -0.1722
   13SAPS    HA 1615   2.037   3.754   6.399  0.0673 -0.2090  1.7717
   13SAPS    HB 1616   2.115   3.606   6.341 -0.6590  0.6188 -1.6505
   13SAPS    C2 1617   2.122   3.648   6.561 -0.3915  0.3437 -0.3670
   13SAPS    HS 1618   2.014   3.622   6.572  0.0042 -0.9359  0.6170
   13SAPS   O21 1619   2.159   3.757   6.647  0.1321  0.4361  0.3150
   13SAPS   C21 1620   2.080   3.861   6.652 -0.7081  0.4215 -0.2845
   13SAPS   O22 1621   1.973   3.872   6.592 -0.1650 -0.3439 -0.0007
   13SAPS   C22 1622   2.154   3.966   6.735 -0.2537 -1.3241  0.2261
   13SAPS   H2R 1623   2.175   3.927   6.837  1.8596 -0.1579  0.2923
   13SAPS   H2S 1624   2.252   3.980   6.685 -1.4391 -1.2990 -2.2465
   13SAPS    C3 1625   2.202   3.519   6.610 -0.0047 -0.5310  0.6401
   13SAPS    HX 1626   2.310   3.542   6.618 -0.2209  0.8924 -0.0311
   13SAPS    HY 1627   2.190   3.444   6.529 -1.6388 -0.9592  1.2299
   13SAPS   O31 1628   2.156   3.468   6.735 -0.3155 -0.2861  0.1014
   13SAPS   C31 1629   2.034   3.406   6.743 -0.0569 -0.4637  0.4495
   13SAPS   O32 1630   1.950   3.403   6.655  0.6652  0.2904 -0.5349
   13SAPS   C32 1631   2.000   3.338   6.879 -0.5580  0.4565 -0.4780
   13SAPS   H2X 1632   1.946   3.246   6.847  0.4281  0.2567 -1.6291
   13SAPS   H2Y 1633   1.935   3.399   6.945  2.3206 -0.9556  4.0431
   13SAPS   C23 1634   2.109   4.120   6.740  0.2353 -0.0433 -0.0409
   13SAPS   H3R 1635   2.020   4.135   6.805  0.6464 -0.2199  0.5714
   13SAPS   H3S 1636   2.084   4.154   6.637  0.5181  0.7278  0.1362
   13SAPS   C24 1637   2.216   4.192   6.822 -0.2929  0.4411  0.0371
   13SAPS   H4R 1638   2.312   4.198   6.765 -0.4053 -0.9455 -0.3255
   13SAPS   H4S 1639   2.246   4.134   6.912 -3.3975 -0.7022  0.4388
   13SAPS   C25 1640   2.165   4.326   6.864 -0.3051  0.1218 -0.1945
   13SAPS   H5R 1641   2.131   4.396   6.786  1.4109  0.1749 -0.9298
   13SAPS   C26 1642   2.153   4.374   6.987 -0.0285 -0.7573  0.2053
   13SAPS   H6R 1643   2.108   4.473   6.996 -1.3728 -1.2936 -0.3415
   13SAPS   C27 1644   2.184   4.313   7.123 -0.0965 -0.2653  0.4617
   13SAPS   H7R 1645   2.262   4.376   7.172  1.5662  0.1024 -2.3935
   13SAPS   H7S 1646   2.227   4.211   7.120  2.5220  0.7884 -0.8834
   13SAPS   C28 1647   2.059   4.315   7.219  0.5827  0.7179  0.0392
   13SAPS   H8R 1648   1.970   4.363   7.177  1.1352  2.2625  0.5722
   13SAPS   C29 1649   2.046   4.274   7.344 -0.6895 -0.2293 -0.2507
   13SAPS   H9R 1650   1.949   4.289   7.393 -0.1833  0.9763  0.4245
   13SAPS  C210 1651   2.147   4.201   7.434  0.0241 -0.3945 -0.4290
   13SAPS  H10R 1652   2.245   4.212   7.384 -1.0819 -0.6225 -2.7929
   13SAPS  H10S 1653   2.143   4.090   7.442  0.4038 -0.3751  0.0813
   13SAPS  C211 1654   2.145   4.249   7.575 -0.4853  0.3647  0.0730
   13SAPS  H11R 1655   2.056   4.226   7.637  0.5489  1.9081  2.2629
   13SAPS  C212 1656   2.242   4.308   7.646  0.3879  0.7170  0.3800
   13SAPS  H12R 1657   2.217   4.336   7.749  0.6954 -0.1654  0.7069
   13SAPS  C213 1658   2.380   4.347   7.603 -0.7408 -0.1783 -0.3360
   13SAPS  H13R 1659   2.403   4.312   7.500 -0.3695  1.8451 -0.9811
   13SAPS  H13S 1660   2.453   4.304   7.674 -1.2381 -0.8774 -0.2331
   13SAPS  C214 1661   2.388   4.502   7.611  0.4506  1.2324  0.1978
   13SAPS  H14R 1662   2.313   4.533   7.537  0.7631 -1.2038 -1.2461
   13SAPS  C215 1663   2.460   4.580   7.687  0.0164 -0.6993  0.1031
   13SAPS  H15R 1664   2.445   4.688   7.677 -3.1833 -1.0643 -0.0976
   13SAPS  C216 1665   2.558   4.536   7.792  0.3391 -0.3822 -0.4201
   13SAPS  H16R 1666   2.662   4.569   7.771 -0.0950  1.8533  0.6503
   13SAPS  H16S 1667   2.575   4.427   7.805  2.1647  0.1535  2.5955
   13SAPS  C217 1668   2.522   4.589   7.931  0.2696  0.2484  0.2879
   13SAPS  H17R 1669   2.433   4.541   7.978  2.9381 -5.7410  0.0691
   13SAPS  H17S 1670   2.519   4.700   7.937  1.9235  0.2279  2.8982
   13SAPS  C218 1671   2.634   4.555   8.024 -0.1812 -0.9996 -0.2692
   13SAPS  H18R 1672   2.732   4.592   7.986 -0.4456  0.3300  0.2964
   13SAPS  H18S 1673   2.648   4.445   8.035  1.1483 -1.0027 -1.6834
   13SAPS  C219 1674   2.622   4.619   8.160  0.4425 -0.2991 -0.9070
   13SAPS  H19R 1675   2.532   4.585   8.214 -0.5189 -0.2777 -2.4427
   13SAPS  H19S 1676   2.617   4.730   8.157 -0.6168 -0.3347 -0.6111
   13SAPS  C220 1677   2.743   4.580   8.244 -0.0603 -0.0393 -0.2615
   13SAPS  H20R 1678   2.723   4.482   8.292 -1.0322  0.6219  0.7357
   13SAPS  H20S 1679   2.759   4.648   8.330  0.9439 -0.7220  0.1107
   13SAPS  H20T 1680   2.840   4.582   8.191 -0.2463 -0.9362 -0.6592
   13SAPS   C33 1681   2.118   3.305   6.980 -0.0737 -0.9054  0.1391
   13SAPS   H3X 1682   2.185   3.391   6.962  0.2907 -1.8525 -4.1067
   13SAPS   H3Y 1683   2.167   3.211   6.946 -0.1100 -1.8843  2.5836
   13SAPS   C34 1684   2.088   3.292   7.128 -0.0191 -0.2703 -0.1844
   13SAPS   H4X 1685   2.023   3.203   7.142 -1.1186  0.6466  0.7878
   13SAPS   H4Y 1686   2.024   3.377   7.159 -1.3840 -0.5875 -1.9790
   13SAPS   C35 1687   2.222   3.275   7.207 -0.0197  0.4646 -0.2067
   13SAPS   H5X 1688   2.298   3.354   7.194  0.9364 -0.6733 -1.9294
   13SAPS   H5Y 1689   2.270   3.188   7.158 -2.9959  0.4304 -3.4803
   13SAPS   C36 1690   2.203   3.225   7.350 -1.1358 -0.0924  0.5965
   13SAPS   H6X 1691   2.136   3.136   7.351 -1.8775  0.4556  1.2286
   13SAPS   H6Y 1692   2.153   3.304   7.410 -0.7777  0.4132  0.2335
   13SAPS   C37 1693   2.339   3.200   7.417 -0.0818 -0.4626 -0.3983
   13SAPS   H7X 1694   2.405   3.286   7.440 -0.2009 -0.6452  0.6513
   13SAPS   H7Y 1695   2.397   3.128   7.355  1.3762 -0.7210  1.1944
   13SAPS   C38 1696   2.318   3.127   7.555  0.0657  0.3177  0.1606
   13SAPS   H8X 1697   2.222   3.072   7.548  0.5957 -0.5917 -0.1606
   13SAPS   H8Y 1698   2.313   3.201   7.638  2.2140  0.7499 -0.0315
   13SAPS   C39 1699   2.436   3.030   7.573 -1.1214  0.8062 -0.3750
   13SAPS   H9X 1700   2.528   3.092   7.575  0.4906 -1.4183  2.5976
   13SAPS   H9Y 1701   2.434   2.956   7.490 -2.7167 -1.6299  1.6823
   13SAPS  C310 1702   2.441   2.962   7.713  0.0016  0.5646  0.6447
   13SAPS  H10X 1703   2.344   2.909   7.719 -0.1589  0.4733 -1.7169
   13SAPS  H10Y 1704   2.450   3.039   7.792 -1.6236  0.0131  1.4047
   13SAPS  C311 1705   2.557   2.866   7.731 -0.0669  0.7177  0.4082
   13SAPS  H11X 1706   2.645   2.929   7.706 -0.4409  0.5779 -1.4450
   13SAPS  H11Y 1707   2.547   2.779   7.661 -1.4297  0.1144  1.3155
   13SAPS  C312 1708   2.561   2.805   7.871  0.6789 -0.3183 -0.0047
   13SAPS  H12X 1709   2.479   2.730   7.874  0.9956 -0.6693 -0.0419
   13SAPS  H12Y 1710   2.536   2.884   7.945 -1.6551 -0.0449 -1.0133
   13SAPS  C313 1711   2.695   2.751   7.912 -0.1484 -0.8834 -0.2710
   13SAPS  H13X 1712   2.782   2.804   7.867  0.3351 -1.8912 -0.5633
   13SAPS  H13Y 1713   2.700   2.647   7.873 -2.1129 -0.6866 -1.1757
   13SAPS  C314 1714   2.702   2.749   8.061 -0.3197 -0.4950 -0.1349
   13SAPS  H14X 1715   2.747   2.650   8.082 -1.8419 -1.2749 -0.4299
   13SAPS  H14Y 1716   2.600   2.730   8.100 -1.2307  0.6699 -1.8021
   13SAPS  C315 1717   2.781   2.865   8.133  0.2500  0.2535 -0.0649
   13SAPS  H15X 1718   2.890   2.858   8.110 -0.1527 -0.8305 -1.7610
   13SAPS  H15Y 1719   2.764   2.851   8.242 -1.1173 -0.3070 -0.3281
   13SAPS  C316 1720   2.753   3.010   8.091 -0.0971 -0.9889 -0.1342
   13SAPS  H16X 1721   2.642   3.013   8.101  0.0199 -1.7516  1.7167
   13SAPS  H16Y 1722   2.779   3.030   7.984  0.1118  0.2706  0.1321
   13SAPS  C317 1723   2.794   3.126   8.189  0.1998 -1.1693 -0.0363
   13SAPS  H17X 1724   2.903   3.130   8.209  0.4638 -0.4818 -1.4876
   13SAPS  H17Y 1725   2.753   3.094   8.287  1.2584  1.3051  1.3151
   13SAPS  C318 1726   2.736   3.266   8.160 -0.3047 -0.2629  0.1619
   13SAPS  H18X 1727   2.635   3.275   8.205 -1.1729  3.4412 -2.0604
   13SAPS  H18Y 1728   2.718   3.301   8.056  1.7787  0.0653 -0.1365
   13SAPS  H18Z 1729   2.794   3.348   8.209 -0.5749  0.5002 -0.7670
   14SAPS     N 1730   1.211   6.216   5.987 -0.2095  0.2343 -0.1672
   14SAPS   HN1 1731   1.202   6.291   6.058 -0.3350 -0.7692  0.9030
   14SAPS   HN2 1732   1.120   6.197   5.940 -0.5285 -1.2206  0.9482
   14SAPS   HN3 1733   1.238   6.126   6.033 -0.7001 -0.4049 -1.0742
   14SAPS   C12 1734   1.318   6.247   5.884 -0.3835 -0.2641 -0.2260
   14SAPS  H12A 1735   1.406   6.269   5.943  0.2555 -0.5615 -1.0604
   14SAPS   C13 1736   1.354   6.138   5.779  0.1245  0.1776  0.0346
   14SAPS  O13A 1737   1.267   6.051   5.756  0.2243 -0.3611  0.3042
   14SAPS  O13B 1738   1.458   6.155   5.711 -0.1130  0.0633  0.1992
   14SAPS   C11 1739   1.278   6.376   5.808  0.0364 -0.3003  0.0769
   14SAPS  H11A 1740   1.191   6.348   5.745  0.0822  2.2834 -1.2790
   14SAPS  H11B 1741   1.363   6.400   5.741 -0.0296 -2.3418 -0.7867
   14SAPS     P 1742   1.288   6.632   5.852  0.0169  0.0794  0.4760
   14SAPS   O13 1743   1.427   6.633   5.805 -0.1064  0.2351 -0.3505
   14SAPS   O14 1744   1.187   6.685   5.754 -0.0765 -0.2582 -0.9802
   14SAPS   O12 1745   1.245   6.486   5.897 -0.2580 -0.5811  0.6165
   14SAPS   O11 1746   1.287   6.708   5.985 -0.1628  0.2483  0.1259
   14SAPS    C1 1747   1.223   6.659   6.102  0.4631 -0.1512 -0.5680
   14SAPS    HA 1748   1.203   6.750   6.163 -0.6786 -0.9596  0.2984
   14SAPS    HB 1749   1.125   6.612   6.079 -0.1520  0.9861 -0.3763
   14SAPS    C2 1750   1.325   6.584   6.200 -0.5485  0.1669  1.0487
   14SAPS    HS 1751   1.374   6.503   6.142  1.6013  2.0679  0.0252
   14SAPS   O21 1752   1.270   6.527   6.321  0.0204 -0.4639 -0.4203
   14SAPS   C21 1753   1.207   6.409   6.311  0.4517 -0.1633 -0.3467
   14SAPS   O22 1754   1.184   6.351   6.207 -0.0139  0.0347  0.1063
   14SAPS   C22 1755   1.174   6.357   6.451 -0.6641 -0.1228 -0.4434
   14SAPS   H2R 1756   1.229   6.421   6.523 -2.6509  2.7076 -1.2930
   14SAPS   H2S 1757   1.067   6.380   6.469 -0.2717  0.8078  0.8126
   14SAPS    C3 1758   1.442   6.676   6.249  0.3055 -0.5801 -0.0364
   14SAPS    HX 1759   1.516   6.702   6.171  2.9375 -1.3365  2.0395
   14SAPS    HY 1760   1.504   6.607   6.310  0.7615  0.6717  0.9761
   14SAPS   O31 1761   1.395   6.779   6.332  0.1917 -0.1352  0.0469
   14SAPS   C31 1762   1.493   6.854   6.379 -0.2192  0.0115  0.2708
   14SAPS   O32 1763   1.611   6.844   6.354  0.4832  0.4299 -0.4655
   14SAPS   C32 1764   1.434   6.967   6.468 -0.1228 -0.3346  0.2002
   14SAPS   H2X 1765   1.394   6.916   6.558  0.7475  1.1959  1.5111
   14SAPS   H2Y 1766   1.349   7.014   6.414  0.1112  0.5461  0.5667
   14SAPS   C23 1767   1.205   6.203   6.479 -0.1008  0.2120  0.3453
   14SAPS   H3R 1768   1.312   6.177   6.493 -0.3939 -1.4716 -0.2505
   14SAPS   H3S 1769   1.169   6.145   6.391 -1.0041  0.5953  0.4459
   14SAPS   C24 1770   1.134   6.155   6.601 -0.3478  0.3692  0.3525
   14SAPS   H4R 1771   1.028   6.186   6.594 -0.4826 -0.3034 -0.7411
   14SAPS   H4S 1772   1.178   6.205   6.690  3.8513 -1.2985 -0.5423
   14SAPS   C25 1773   1.137   6.002   6.617 -0.1372 -0.4185  0.8013
   14SAPS   H5R 1774   1.145   5.947   6.523 -0.8285 -1.5310  1.3744
   14SAPS   C26 1775   1.142   5.930   6.730 -0.0918  0.0272  0.1696
   14SAPS   H6R 1776   1.136   5.821   6.713 -1.6604 -0.1205  1.4725
   14SAPS   C27 1777   1.146   5.983   6.871 -0.5577  0.2630 -0.2103
   14SAPS   H7R 1778   1.039   6.004   6.891 -0.6520 -0.4495  0.0492
   14SAPS   H7S 1779   1.209   6.073   6.885  0.1406 -0.1244 -0.8237
   14SAPS   C28 1780   1.214   5.878   6.961  0.2095  0.4356  0.0223
   14SAPS   H8R 1781   1.300   5.831   6.912 -0.8717 -0.6328 -0.9088
   14SAPS   C29 1782   1.172   5.829   7.080 -0.1148 -0.1139  0.0156
   14SAPS   H9R 1783   1.220   5.747   7.135 -1.6639 -1.0433  0.0486
   14SAPS  C210 1784   1.050   5.884   7.151 -0.5000  0.3537 -0.6582
   14SAPS  H10R 1785   0.985   5.949   7.089 -0.4697  1.2723  0.2422
   14SAPS  H10S 1786   1.079   5.946   7.239 -0.9252  0.5379 -0.6465
   14SAPS  C211 1787   0.976   5.758   7.201 -0.2354  0.0085 -0.4247
   14SAPS  H11R 1788   0.925   5.700   7.123  2.0980 -1.9233 -0.6508
   14SAPS  C212 1789   0.957   5.729   7.331  0.3615 -0.0026 -0.0013
   14SAPS  H12R 1790   0.896   5.639   7.350  2.0862 -0.7929  2.2465
   14SAPS  C213 1791   1.019   5.810   7.444 -0.5650  0.4716  0.2648
   14SAPS  H13R 1792   0.992   5.918   7.446 -0.3857  0.5120  1.1770
   14SAPS  H13S 1793   1.128   5.817   7.428 -0.4843  0.4562  0.7960
   14SAPS  C214 1794   1.008   5.742   7.577 -0.3379  0.0249  0.2161
   14SAPS  H14R 1795   1.012   5.632   7.578  1.5290  0.0517 -0.0039
   14SAPS  C215 1796   0.988   5.813   7.693 -0.1595  0.1159  0.6458
   14SAPS  H15R 1797   0.985   5.748   7.782  1.3234  1.0346  1.4051
   14SAPS  C216 1798   0.963   5.959   7.704  0.7148 -0.1542  0.0020
   14SAPS  H16R 1799   0.928   5.994   7.604  1.0705 -2.6314 -1.0721
   14SAPS  H16S 1800   1.055   6.017   7.728 -0.1032  0.5150  1.6118
   14SAPS  C217 1801   0.857   6.010   7.800  0.2133 -0.2447 -0.2135
   14SAPS  H17R 1802   0.884   5.962   7.897  1.7694  0.1880 -0.4047
   14SAPS  H17S 1803   0.753   5.975   7.783 -0.1237 -0.0647  1.3443
   14SAPS  C218 1804   0.856   6.162   7.812  0.2821  0.2724  0.3860
   14SAPS  H18R 1805   0.835   6.201   7.710  0.8324  0.8320  0.4827
   14SAPS  H18S 1806   0.954   6.200   7.849  0.3069  0.2649  0.3290
   14SAPS  C219 1807   0.749   6.207   7.904 -0.4312 -0.0166 -0.6172
   14SAPS  H19R 1808   0.782   6.306   7.941  1.8053 -1.1581  0.6482
   14SAPS  H19S 1809   0.753   6.140   7.993 -0.1866  2.5967  1.4627
   14SAPS  C220 1810   0.606   6.222   7.842 -0.6419 -0.1304  0.3228
   14SAPS  H20R 1811   0.611   6.283   7.749 -1.3961 -0.5353  0.0107
   14SAPS  H20S 1812   0.529   6.270   7.907 -1.7884 -0.2281 -0.9141
   14SAPS  H20T 1813   0.569   6.125   7.805 -0.4481 -0.2169  0.3546
   14SAPS   C33 1814   1.538   7.075   6.518  0.8515  0.3115  0.3628
   14SAPS   H3X 1815   1.503   7.169   6.471  1.4436 -1.1648 -3.4386
   14SAPS   H3Y 1816   1.641   7.049   6.484  1.3923  1.4063  1.1114
   14SAPS   C34 1817   1.534   7.088   6.665  0.9959  0.2332 -0.4392
   14SAPS   H4X 1818   1.425   7.088   6.684  0.7417 -1.7963 -1.6466
   14SAPS   H4Y 1819   1.578   7.186   6.695 -0.5062  1.6326 -2.5387
   14SAPS   C35 1820   1.579   6.966   6.751  0.3527  0.1666  0.8459
   14SAPS   H5X 1821   1.690   6.963   6.742  0.2603  0.3054 -0.4932
   14SAPS   H5Y 1822   1.546   6.873   6.699 -2.4220  0.9653  1.0093
   14SAPS   C36 1823   1.547   6.972   6.896 -0.2345  0.7181  0.1130
   14SAPS   H6X 1824   1.436   6.978   6.907 -0.1683  1.8666  0.2654
   14SAPS   H6Y 1825   1.605   7.050   6.949 -0.7147  0.4456  1.0664
   14SAPS   C37 1826   1.573   6.838   6.969  0.3879 -0.0446  0.0766
   14SAPS   H7X 1827   1.674   6.794   6.958  0.6708  0.0442  2.0474
   14SAPS   H7Y 1828   1.504   6.768   6.916  1.5675  0.1713 -1.8137
   14SAPS   C38 1829   1.546   6.857   7.117 -0.2210 -0.0490 -0.3585
   14SAPS   H8X 1830   1.456   6.920   7.133 -0.8823 -0.6873 -1.4035
   14SAPS   H8Y 1831   1.633   6.908   7.164 -1.6307  1.8653  0.3040
   14SAPS   C39 1832   1.530   6.723   7.184  0.0408  0.1490 -0.1457
   14SAPS   H9X 1833   1.628   6.672   7.172  1.3607  1.6267  2.9283
   14SAPS   H9Y 1834   1.455   6.677   7.117  1.5288  1.2408 -2.6771
   14SAPS  C310 1835   1.482   6.736   7.336  0.4954 -0.0740  0.4436
   14SAPS  H10X 1836   1.563   6.786   7.395  0.2714  2.3232 -1.1423
   14SAPS  H10Y 1837   1.461   6.634   7.373  0.2671 -0.0732  0.3145
   14SAPS  C311 1838   1.343   6.805   7.348 -0.0202 -0.4644  0.0925
   14SAPS  H11X 1839   1.263   6.746   7.298  0.5156 -1.9173  0.8601
   14SAPS  H11Y 1840   1.354   6.911   7.318  2.9417 -0.0332  2.1637
   14SAPS  C312 1841   1.296   6.814   7.496  0.0307  0.3436 -0.0185
   14SAPS  H12X 1842   1.186   6.830   7.499  0.1800  1.3051  1.9742
   14SAPS  H12Y 1843   1.348   6.900   7.545  2.9194 -1.2929  0.0263
   14SAPS  C313 1844   1.323   6.689   7.575 -0.7261  0.0914  0.0976
   14SAPS  H13X 1845   1.429   6.693   7.610  0.1300  0.5571 -2.3712
   14SAPS  H13Y 1846   1.300   6.596   7.517 -1.6592  1.8449 -2.5143
   14SAPS  C314 1847   1.237   6.676   7.705  0.9507  0.3690  0.0825
   14SAPS  H14X 1848   1.130   6.683   7.677  1.1322 -0.5001 -0.8674
   14SAPS  H14Y 1849   1.267   6.748   7.784  1.7912  1.0519 -0.8413
   14SAPS  C315 1850   1.256   6.542   7.783  0.2530  0.0426  0.5715
   14SAPS  H15X 1851   1.360   6.543   7.821  1.1897  2.4134 -1.7265
   14SAPS  H15Y 1852   1.251   6.457   7.712 -0.6280  0.2316  0.3965
   14SAPS  C316 1853   1.150   6.514   7.889  0.6538 -0.1197 -0.2995
   14SAPS  H16X 1854   1.062   6.486   7.827  0.9853  0.0493 -0.8541
   14SAPS  H16Y 1855   1.118   6.603   7.948 -0.2962  0.4618 -1.6395
   14SAPS  C317 1856   1.194   6.404   7.993  0.1018  0.1798  0.4504
   14SAPS  H17X 1857   1.282   6.433   8.054  0.6821  1.4566 -0.9118
   14SAPS  H17Y 1858   1.219   6.320   7.925  2.9377 -0.4752  2.1744
   14SAPS  C318 1859   1.083   6.364   8.092  0.4097  0.1375 -0.5244
   14SAPS  H18X 1860   1.119   6.330   8.191 -1.5293  1.6719  0.7985
   14SAPS  H18Y 1861   1.019   6.285   8.048 -0.9123  0.3270  0.9286
   14SAPS  H18Z 1862   1.010   6.447   8.106  0.8305  0.4960 -0.4180
   15SAPS     N 1863   1.869   5.111   5.690  0.9315 -0.0216 -0.3107
   15SAPS   HN1 1864   1.925   5.084   5.607  1.7541  1.4425 -0.2706
   15SAPS   HN2 1865   1.797   5.171   5.646  0.3765  1.1511  2.0327
   15SAPS   HN3 1866   1.924   5.174   5.752  1.8917  0.2877 -1.4526
   15SAPS   C12 1867   1.815   4.996   5.762 -0.1349  0.2173 -0.5517
   15SAPS  H12A 1868   1.771   5.053   5.843 -2.2226 -0.0671 -1.4121
   15SAPS   C13 1869   1.716   4.904   5.686 -0.2839  0.2936  0.3584
   15SAPS  O13A 1870   1.685   4.930   5.566 -0.3173 -0.2617 -0.2259
   15SAPS  O13B 1871   1.677   4.795   5.733 -0.4347  0.1054 -0.4831
   15SAPS   C11 1872   1.936   4.908   5.816 -0.2962  0.3424 -0.2837
   15SAPS  H11A 1873   1.989   4.870   5.726 -1.5579 -0.0711 -0.8703
   15SAPS  H11B 1874   1.893   4.817   5.864 -0.3566  0.2485 -0.5150
   15SAPS     P 1875   2.147   4.927   5.976 -0.0756 -0.3326  0.2609
   15SAPS   O13 1876   2.185   4.798   5.916  0.1417  0.3963  0.4307
   15SAPS   O14 1877   2.252   5.030   5.976  0.4454 -0.8146 -0.1259
   15SAPS   O12 1878   2.019   4.982   5.902  0.0549 -0.4383  0.0157
   15SAPS   O11 1879   2.094   4.898   6.121  0.1760  0.1644 -0.3556
   15SAPS    C1 1880   1.993   4.985   6.180 -0.7295  0.3258  0.4267
   15SAPS    HA 1881   2.026   5.091   6.177 -0.2817  0.1768 -1.5286
   15SAPS    HB 1882   1.898   4.973   6.124  0.5454  1.0911 -2.0595
   15SAPS    C2 1883   1.972   4.949   6.333 -0.2901 -0.3122  0.3659
   15SAPS    HS 1884   1.896   5.022   6.369 -0.0145  1.7343 -2.8158
   15SAPS   O21 1885   2.100   4.958   6.404  0.2449 -0.6639 -0.3231
   15SAPS   C21 1886   2.135   5.077   6.455  0.1406 -0.4637  0.4992
   15SAPS   O22 1887   2.071   5.180   6.438  0.3907  0.9000  0.0890
   15SAPS   C22 1888   2.254   5.061   6.541  0.4351 -0.2710 -0.0005
   15SAPS   H2R 1889   2.317   4.987   6.487 -2.5240 -3.3315  0.4118
   15SAPS   H2S 1890   2.299   5.162   6.526 -1.5566  0.6763  0.0886
   15SAPS    C3 1891   1.914   4.808   6.345  0.2839  0.4914 -0.3760
   15SAPS    HX 1892   1.984   4.735   6.299  0.7015  0.5210  0.2024
   15SAPS    HY 1893   1.821   4.800   6.285  0.4049 -0.5644 -0.4426
   15SAPS   O31 1894   1.873   4.775   6.481 -0.1119 -0.0668 -0.2780
   15SAPS   C31 1895   1.967   4.730   6.561 -0.7347 -0.2261 -0.1756
   15SAPS   O32 1896   2.078   4.698   6.532 -0.3102 -0.4278 -0.2597
   15SAPS   C32 1897   1.899   4.711   6.702  0.1445  0.0474  0.6684
   15SAPS   H2X 1898   1.870   4.604   6.702 -0.0514  0.0636 -1.3101
   15SAPS   H2Y 1899   1.805   4.770   6.710 -0.0533 -0.2651  0.6645
   15SAPS   C23 1900   2.235   5.023   6.685  0.7082  0.4848 -0.1425
   15SAPS   H3R 1901   2.334   4.996   6.727  0.2417  0.1859  0.8170
   15SAPS   H3S 1902   2.171   4.933   6.698  0.7558  0.7517  2.4901
   15SAPS   C24 1903   2.169   5.141   6.770  0.3303 -1.2763  0.2206
   15SAPS   H4R 1904   2.069   5.160   6.728  0.1475 -3.5033 -0.4992
   15SAPS   H4S 1905   2.244   5.222   6.757  0.8409 -1.7885 -0.1082
   15SAPS   C25 1906   2.164   5.097   6.914  0.4395 -0.1706 -0.3444
   15SAPS   H5R 1907   2.111   5.002   6.930 -1.8344  1.2617  1.3272
   15SAPS   C26 1908   2.208   5.167   7.019 -0.1794 -0.0491 -0.5438
   15SAPS   H6R 1909   2.188   5.122   7.117  1.0272  1.2606  0.3402
   15SAPS   C27 1910   2.273   5.298   7.014 -0.0504 -0.3624  0.0467
   15SAPS   H7R 1911   2.240   5.357   7.102  1.7401  4.0217 -1.9039
   15SAPS   H7S 1912   2.238   5.364   6.932 -1.7839 -2.3201 -0.8948
   15SAPS   C28 1913   2.425   5.289   7.004 -0.3299  0.2251  0.2397
   15SAPS   H8R 1914   2.469   5.267   6.906 -0.1182  0.7629  0.2140
   15SAPS   C29 1915   2.517   5.295   7.100  0.3142  0.1294  0.1976
   15SAPS   H9R 1916   2.622   5.281   7.070  0.2275 -1.1252  0.3857
   15SAPS  C210 1917   2.506   5.307   7.249  0.0756  0.2439  0.3401
   15SAPS  H10R 1918   2.551   5.217   7.296  0.1103 -0.6569 -1.3371
   15SAPS  H10S 1919   2.395   5.303   7.257  0.0459 -2.3203 -0.3618
   15SAPS  C211 1920   2.548   5.430   7.314 -0.2652  0.2925  0.4916
   15SAPS  H11R 1921   2.614   5.496   7.256 -0.6240 -0.9013 -1.3362
   15SAPS  C212 1922   2.484   5.478   7.425 -0.6919  0.3628 -0.2401
   15SAPS  H12R 1923   2.507   5.574   7.474 -0.7769  0.1253  0.2673
   15SAPS  C213 1924   2.382   5.395   7.502  0.9241 -0.4540  0.0130
   15SAPS  H13R 1925   2.396   5.426   7.608  0.2011 -0.5290  0.1363
   15SAPS  H13S 1926   2.393   5.284   7.499 -1.5455 -0.7758 -3.5060
   15SAPS  C214 1927   2.240   5.423   7.446 -0.1675  0.1700  0.3416
   15SAPS  H14R 1928   2.234   5.435   7.337 -1.3998  1.2825  0.5107
   15SAPS  C215 1929   2.124   5.394   7.507 -0.1351 -0.7099  0.4238
   15SAPS  H15R 1930   2.034   5.422   7.451 -0.6283  3.0588  2.7340
   15SAPS  C216 1931   2.104   5.340   7.651  0.3593 -0.4497 -0.0835
   15SAPS  H16R 1932   2.208   5.338   7.691  0.5266 -0.8258 -0.5298
   15SAPS  H16S 1933   2.054   5.241   7.648  3.3971 -2.1109 -0.1462
   15SAPS  C217 1934   2.021   5.433   7.737  0.3458  0.9200 -0.6600
   15SAPS  H17R 1935   1.919   5.395   7.715  1.0623 -2.0026  0.5639
   15SAPS  H17S 1936   2.035   5.536   7.698  1.2609  1.0595 -0.0054
   15SAPS  C218 1937   2.051   5.425   7.888  0.2421 -1.0366  0.2769
   15SAPS  H18R 1938   2.162   5.425   7.896  0.5193  0.9564 -2.1569
   15SAPS  H18S 1939   2.019   5.322   7.916  1.7512 -2.2842 -2.2040
   15SAPS  C219 1940   1.983   5.528   7.973 -0.4964 -1.0345 -0.3997
   15SAPS  H19R 1941   1.983   5.622   7.914  1.0856 -2.3590 -2.7094
   15SAPS  H19S 1942   2.029   5.546   8.072 -1.1535 -1.6657  0.0368
   15SAPS  C220 1943   1.844   5.493   8.015  0.4232  0.0623 -0.0026
   15SAPS  H20R 1944   1.785   5.453   7.930 -0.9385 -0.5446  1.1903
   15SAPS  H20S 1945   1.780   5.574   8.056  0.5593 -0.6964  1.8147
   15SAPS  H20T 1946   1.837   5.415   8.094 -3.1720 -2.4476 -2.5184
   15SAPS   C33 1947   1.991   4.740   6.823 -0.2735  0.0069  0.4893
   15SAPS   H3X 1948   1.998   4.851   6.825 -2.9384  0.2931 -1.2801
   15SAPS   H3Y 1949   2.092   4.702   6.795  0.0702  1.6836 -0.7016
   15SAPS   C34 1950   1.934   4.691   6.951 -0.8624 -1.0003  0.5801
   15SAPS   H4X 1951   1.940   4.580   6.949  2.0331 -0.9176  0.8185
   15SAPS   H4Y 1952   1.824   4.711   6.951 -1.2260 -2.7432 -0.6192
   15SAPS   C35 1953   2.006   4.749   7.073  0.2234  0.0571 -0.2173
   15SAPS   H5X 1954   2.032   4.857   7.071 -0.4385  0.2546  1.2078
   15SAPS   H5Y 1955   2.104   4.699   7.084  0.5792  0.5939 -0.8728
   15SAPS   C36 1956   1.918   4.732   7.204  0.1415  0.5769  0.3589
   15SAPS   H6X 1957   1.863   4.640   7.175 -0.6857  1.0924  0.2354
   15SAPS   H6Y 1958   1.846   4.815   7.225  0.2323  0.5857  0.6351
   15SAPS   C37 1959   2.001   4.708   7.325 -0.4371  0.2590 -0.5390
   15SAPS   H7X 1960   2.048   4.802   7.361  3.6593 -1.4823 -0.7824
   15SAPS   H7Y 1961   2.082   4.636   7.303  1.2493  1.2653  1.9883
   15SAPS   C38 1962   1.916   4.659   7.443 -0.6124  0.2748  0.9035
   15SAPS   H8X 1963   1.895   4.552   7.424 -0.0255  0.4817 -1.2114
   15SAPS   H8Y 1964   1.825   4.722   7.448  1.1146  2.8559  2.3938
   15SAPS   C39 1965   2.000   4.662   7.574 -0.0223  0.1068 -0.3971
   15SAPS   H9X 1966   2.009   4.771   7.596 -1.1674  0.1277  0.0105
   15SAPS   H9Y 1967   2.100   4.621   7.549  0.6421  1.4503 -0.0627
   15SAPS  C310 1968   1.963   4.583   7.701  0.1683 -0.1033 -0.6395
   15SAPS  H10X 1969   1.968   4.475   7.676 -0.4937 -0.1167 -0.7484
   15SAPS  H10Y 1970   1.857   4.606   7.726 -0.1610  0.0015 -2.0504
   15SAPS  C311 1971   2.053   4.614   7.819  0.5641  0.0022 -0.0619
   15SAPS  H11X 1972   2.044   4.722   7.844  0.4825 -0.0254  0.0262
   15SAPS  H11Y 1973   2.162   4.596   7.803  0.4060 -0.2134 -0.9593
   15SAPS  C312 1974   2.003   4.546   7.948  0.2115 -0.2612  0.4992
   15SAPS  H12X 1975   2.034   4.440   7.940 -2.0376 -1.1466  2.4352
   15SAPS  H12Y 1976   1.892   4.552   7.950  0.2321  0.3770  0.2456
   15SAPS  C313 1977   2.047   4.616   8.078 -0.1108  0.1354 -0.6852
   15SAPS  H13X 1978   1.987   4.705   8.108  0.0129 -0.4826  1.5536
   15SAPS  H13Y 1979   2.154   4.644   8.068 -0.3749  1.7949  0.6729
   15SAPS  C314 1980   2.047   4.515   8.190  0.1326 -0.1033  0.4110
   15SAPS  H14X 1981   2.072   4.562   8.288  0.3041  1.7534 -0.4947
   15SAPS  H14Y 1982   2.112   4.429   8.162  1.9976  1.7299 -1.2641
   15SAPS  C315 1983   1.907   4.442   8.203  0.0654  0.3699  0.6457
   15SAPS  H15X 1984   1.882   4.372   8.120 -0.9056  1.0154  0.3739
   15SAPS  H15Y 1985   1.825   4.517   8.210 -0.6747 -0.5513  2.5720
   15SAPS  C316 1986   1.914   4.359   8.336 -0.0556  0.4075 -0.4132
   15SAPS  H16X 1987   1.957   4.423   8.416 -1.4404  1.3623 -0.3866
   15SAPS  H16Y 1988   1.975   4.269   8.314  0.2479  0.3254  0.7069
   15SAPS  C317 1989   1.777   4.312   8.372  0.2197 -0.9932  0.2158
   15SAPS  H17X 1990   1.770   4.205   8.404  1.4815 -1.3917 -0.7777
   15SAPS  H17Y 1991   1.722   4.311   8.275  1.3096  0.8353 -0.4547
   15SAPS  C318 1992   1.715   4.403   8.480  0.3409 -0.9302 -0.0423
   15SAPS  H18X 1993   1.608   4.379   8.498 -0.1549  0.1029 -1.4059
   15SAPS  H18Y 1994   1.728   4.510   8.457  1.9061 -1.1572 -0.2698
   15SAPS  H18Z 1995   1.776   4.379   8.569 -0.7849 -0.6977  0.8204
   16SAPS     N 1996   3.831   1.540   6.341 -0.0335  0.0868 -0.1260
   16SAPS   HN1 1997   3.811   1.469   6.414 -0.7318  1.2445  0.8650
   16SAPS   HN2 1998   3.848   1.497   6.247  1.4086  4.5379 -2.1852
   16SAPS   HN3 1999   3.918   1.594   6.355 -0.6463  0.7890  1.1552
   16SAPS   C12 2000   3.720   1.641   6.345 -0.1165 -0.4132  0.2175
   16SAPS  H12A 2001   3.764   1.736   6.318  1.8186 -0.7569  1.9268
   16SAPS   C13 2002   3.612   1.623   6.238  0.2426  0.6356 -1.4070
   16SAPS  O13A 2003   3.631   1.539   6.143  0.2295 -0.1398  0.3072
   16SAPS  O13B 2004   3.509   1.697   6.232 -0.0029 -0.8613  0.5250
   16SAPS   C11 2005   3.665   1.651   6.490 -0.5151 -0.4927 -0.2585
   16SAPS  H11A 2006   3.620   1.752   6.497  0.1318 -0.2066 -0.0857
   16SAPS  H11B 2007   3.753   1.657   6.558 -1.5614  1.5407  0.9947
   16SAPS     P 2008   3.623   1.405   6.585  0.1874  0.1376 -0.0815
   16SAPS   O13 2009   3.511   1.314   6.544  0.1692  0.9726  0.1782
   16SAPS   O14 2010   3.758   1.366   6.533 -0.0045 -0.7266  0.2528
   16SAPS   O12 2011   3.576   1.547   6.536 -0.5180 -0.4374  0.0315
   16SAPS   O11 2012   3.627   1.412   6.738  0.2073 -0.1410 -0.3067
   16SAPS    C1 2013   3.538   1.506   6.801 -0.0560  0.3396 -0.0394
   16SAPS    HA 2014   3.578   1.608   6.783  1.9025 -0.1801  1.1494
   16SAPS    HB 2015   3.438   1.509   6.752  0.5720  2.0496 -1.3289
   16SAPS    C2 2016   3.509   1.465   6.950  0.1586  0.2446  0.2212
   16SAPS    HS 2017   3.606   1.497   6.995  0.8740  0.4345 -1.3882
   16SAPS   O21 2018   3.493   1.321   6.970 -0.5034  0.6838  0.3578
   16SAPS   C21 2019   3.407   1.249   6.893  0.6846  1.0072 -0.2861
   16SAPS   O22 2020   3.321   1.291   6.823  0.7432 -0.8218  0.2400
   16SAPS   C22 2021   3.417   1.097   6.924  0.1134  0.2034  0.4148
   16SAPS   H2R 2022   3.310   1.070   6.936  0.0724 -0.7899 -1.7176
   16SAPS   H2S 2023   3.454   1.050   6.831 -0.2888 -0.0456  0.3814
   16SAPS    C3 2024   3.397   1.551   7.012 -0.0578  0.1252 -0.5424
   16SAPS    HX 2025   3.301   1.500   6.988  1.3856 -4.4083  2.1025
   16SAPS    HY 2026   3.395   1.655   6.972  2.3039  1.2841  2.0330
   16SAPS   O31 2027   3.409   1.559   7.158 -0.2996  0.4618  0.1173
   16SAPS   C31 2028   3.503   1.645   7.201  0.3972 -0.5208  0.9505
   16SAPS   O32 2029   3.576   1.714   7.130  0.0817 -0.3369 -0.2888
   16SAPS   C32 2030   3.488   1.657   7.353  0.1778 -0.0778 -0.1346
   16SAPS   H2X 2031   3.387   1.622   7.381  1.0596 -1.4620  1.5223
   16SAPS   H2Y 2032   3.502   1.765   7.375  1.3055 -0.0507 -0.8730
   16SAPS   C23 2033   3.513   1.071   7.040  0.2123  0.5248 -0.1597
   16SAPS   H3R 2034   3.485   1.123   7.134  0.6299  1.8127 -0.7308
   16SAPS   H3S 2035   3.611   1.106   7.002 -1.6496  4.4231 -1.9628
   16SAPS   C24 2036   3.511   0.918   7.070 -0.1690  0.2153 -0.1653
   16SAPS   H4R 2037   3.541   0.853   6.985  2.7163  2.1450 -0.7719
   16SAPS   H4S 2038   3.408   0.894   7.106  0.5349 -2.4653  0.3084
   16SAPS   C25 2039   3.616   0.890   7.178 -0.2216  0.0805 -1.0020
   16SAPS   H5R 2040   3.721   0.889   7.145  0.0150 -1.2832 -0.2694
   16SAPS   C26 2041   3.602   0.877   7.310  0.1977  0.2008 -0.3286
   16SAPS   H6R 2042   3.687   0.853   7.375 -0.5315 -2.6168 -0.3131
   16SAPS   C27 2043   3.472   0.875   7.384  0.6241  0.0625 -0.1894
   16SAPS   H7R 2044   3.390   0.922   7.326 -0.2954  0.2863  1.2474
   16SAPS   H7S 2045   3.482   0.943   7.471 -0.0590 -0.7289  0.5212
   16SAPS   C28 2046   3.425   0.730   7.409 -0.0648 -0.5465 -0.1492
   16SAPS   H8R 2047   3.386   0.671   7.325  2.0457  0.2773 -1.7861
   16SAPS   C29 2048   3.431   0.672   7.530  0.4411  1.0007 -0.3301
   16SAPS   H9R 2049   3.410   0.564   7.524  0.2186  0.9946  0.4568
   16SAPS  C210 2050   3.471   0.719   7.669 -0.1926  0.2137  0.8347
   16SAPS  H10R 2051   3.458   0.828   7.683  0.3411  0.3585  0.2606
   16SAPS  H10S 2052   3.579   0.700   7.685 -0.4414 -0.3219  1.9647
   16SAPS  C211 2053   3.397   0.654   7.784  0.0181 -0.8180  0.7566
   16SAPS  H11R 2054   3.310   0.591   7.763 -3.0141  3.5445 -1.2697
   16SAPS  C212 2055   3.434   0.660   7.908 -0.9182 -0.6719 -0.6775
   16SAPS  H12R 2056   3.388   0.593   7.982 -0.5525 -1.3823 -1.0761
   16SAPS  C213 2057   3.561   0.735   7.961 -0.4636 -0.1799 -0.7193
   16SAPS  H13R 2058   3.540   0.821   8.028 -1.0892 -0.9045  0.0342
   16SAPS  H13S 2059   3.630   0.763   7.879  0.3177  0.0441  0.0015
   16SAPS  C214 2060   3.643   0.632   8.037 -0.0652 -0.1889 -0.4433
   16SAPS  H14R 2061   3.711   0.567   7.980  0.5675  2.1176 -2.4851
   16SAPS  C215 2062   3.627   0.600   8.169  0.5288 -0.5769 -0.4574
   16SAPS  H15R 2063   3.683   0.521   8.221  2.3927  2.2661  2.2101
   16SAPS  C216 2064   3.534   0.676   8.268 -0.1527  0.4672  0.1829
   16SAPS  H16R 2065   3.436   0.625   8.275 -0.1535  0.4832  0.2869
   16SAPS  H16S 2066   3.522   0.785   8.247  0.1652  0.2883 -0.9739
   16SAPS  C217 2067   3.595   0.666   8.408 -0.3089  0.2886  0.2949
   16SAPS  H17R 2068   3.605   0.556   8.427 -1.4446 -0.4853 -2.9713
   16SAPS  H17S 2069   3.513   0.686   8.481 -0.6396 -2.5213  0.8122
   16SAPS  C218 2070   3.733   0.733   8.426  0.5447  0.3180  0.8419
   16SAPS  H18R 2071   3.729   0.840   8.397  1.0014 -0.4208 -2.3134
   16SAPS  H18S 2072   3.798   0.681   8.353  1.7339  1.2467  1.2079
   16SAPS  C219 2073   3.784   0.703   8.564  0.7182  0.4337  0.2054
   16SAPS  H19R 2074   3.799   0.594   8.577  0.8538  0.3360 -0.6856
   16SAPS  H19S 2075   3.706   0.738   8.635 -0.6076 -1.9673  0.0328
   16SAPS  C220 2076   3.912   0.771   8.605  0.3612  0.5976 -0.4379
   16SAPS  H20R 2077   3.993   0.765   8.530  0.7241  1.2835 -0.1096
   16SAPS  H20S 2078   3.937   0.725   8.703 -0.8212  0.6291 -0.1078
   16SAPS  H20T 2079   3.900   0.875   8.642 -0.9129  0.7895 -1.3220
   16SAPS   C33 2080   3.596   1.589   7.433  0.0000 -0.5232 -0.7111
   16SAPS   H3X 2081   3.693   1.606   7.382 -0.5408  0.2067 -1.5180
   16SAPS   H3Y 2082   3.581   1.479   7.441  1.9861 -0.7427  1.0652
   16SAPS   C34 2083   3.595   1.643   7.571 -0.4413 -0.4729 -0.6822
   16SAPS   H4X 2084   3.492   1.647   7.611 -0.5348  0.9795 -1.0233
   16SAPS   H4Y 2085   3.637   1.745   7.568  1.4532 -1.2063 -0.6590
   16SAPS   C35 2086   3.678   1.552   7.670  0.2868 -0.0572 -0.9526
   16SAPS   H5X 2087   3.778   1.555   7.623  0.6259 -1.9804 -0.4161
   16SAPS   H5Y 2088   3.659   1.445   7.651  0.9128 -0.3889  0.2119
   16SAPS   C36 2089   3.671   1.572   7.820  0.3942 -0.0556 -0.4788
   16SAPS   H6X 2090   3.715   1.669   7.850 -1.3616 -0.5568  4.6187
   16SAPS   H6Y 2091   3.743   1.499   7.864  0.2254  0.0876  0.0307
   16SAPS   C37 2092   3.536   1.576   7.884  0.1985  0.4464 -0.6300
   16SAPS   H7X 2093   3.488   1.478   7.863  2.2239 -0.6908 -0.2378
   16SAPS   H7Y 2094   3.468   1.653   7.841 -2.4273 -1.3305  0.1503
   16SAPS   C38 2095   3.526   1.619   8.030 -0.0341  0.5160  0.0601
   16SAPS   H8X 2096   3.559   1.725   8.038  2.5748 -0.2238  0.0777
   16SAPS   H8Y 2097   3.604   1.563   8.086 -1.1575 -1.1333  0.0426
   16SAPS   C39 2098   3.380   1.590   8.090  0.6772 -0.1910 -0.2468
   16SAPS   H9X 2099   3.372   1.479   8.095 -0.3936 -0.0438  2.3123
   16SAPS   H9Y 2100   3.298   1.613   8.019  1.4684  2.7560 -0.3492
   16SAPS  C310 2101   3.362   1.656   8.227 -0.6116 -0.5461 -0.1401
   16SAPS  H10X 2102   3.259   1.654   8.270  0.1686  3.5856  2.5183
   16SAPS  H10Y 2103   3.383   1.765   8.221 -1.5054 -0.3089  0.6552
   16SAPS  C311 2104   3.459   1.607   8.339 -0.4337 -0.9926  0.2321
   16SAPS  H11X 2105   3.560   1.648   8.320 -0.2654 -0.4007  2.1479
   16SAPS  H11Y 2106   3.454   1.498   8.322 -2.3806 -1.1298  1.3011
   16SAPS  C312 2107   3.412   1.649   8.485 -0.1702  0.5569  0.3240
   16SAPS  H12X 2108   3.473   1.600   8.563  1.1347  0.1107 -0.9239
   16SAPS  H12Y 2109   3.308   1.613   8.503  0.6679 -2.1618  0.2490
   16SAPS  C313 2110   3.408   1.791   8.518  0.1678  0.3455  0.5790
   16SAPS  H13X 2111   3.373   1.846   8.427 -1.4799 -0.1425  0.8938
   16SAPS  H13Y 2112   3.510   1.833   8.531  0.9486 -0.7855 -1.4164
   16SAPS  C314 2113   3.295   1.811   8.620  0.5096 -0.2455  0.0831
   16SAPS  H14X 2114   3.308   1.745   8.708  0.2348 -0.1590  0.1906
   16SAPS  H14Y 2115   3.194   1.788   8.579  0.0424  0.1958  0.9734
   16SAPS  C315 2116   3.286   1.963   8.653  0.7884 -0.2789 -0.8594
   16SAPS  H15X 2117   3.260   2.025   8.565 -2.3358  1.4609  1.0879
   16SAPS  H15Y 2118   3.380   1.996   8.702  0.0428 -2.0081  2.0358
   16SAPS  C316 2119   3.166   1.985   8.754 -0.1630  0.0594 -0.0160
   16SAPS  H16X 2120   3.180   1.923   8.846  2.2396  2.1689  1.1642
   16SAPS  H16Y 2121   3.074   1.965   8.696 -0.1043  0.7075 -0.3446
   16SAPS  C317 2122   3.165   2.132   8.794  0.1224 -0.8654 -0.0895
   16SAPS  H17X 2123   3.064   2.170   8.822  0.9142 -1.0624  3.5529
   16SAPS  H17Y 2124   3.193   2.200   8.711 -0.7812  1.4509  1.3856
   16SAPS  C318 2125   3.246   2.180   8.922  0.4528  0.1725 -0.4824
   16SAPS  H18X 2126   3.283   2.284   8.909 -1.7865  0.9818 -0.9546
   16SAPS  H18Y 2127   3.327   2.105   8.929 -2.1873 -2.8434  0.4785
   16SAPS  H18Z 2128   3.173   2.166   9.005 -0.1306 -1.8679 -1.2877
   17SAPC     N 2129   2.714   5.198  10.507 -0.0037  0.5336 -0.7279
   17SAPC   C12 2130   2.671   5.345  10.536  0.3228 -0.1345 -0.2871
   17SAPC  H12A 2131   2.753   5.385  10.593 -0.8078  0.8471  0.6923
   17SAPC  H12B 2132   2.584   5.347  10.600  0.5069 -1.9127  0.0651
   17SAPC   C13 2133   2.604   5.125  10.445 -0.0297  0.5854  0.7292
   17SAPC  H13A 2134   2.636   5.024  10.424  1.4316  0.5331  2.8677
   17SAPC  H13B 2135   2.515   5.121  10.507  0.3388 -1.8886  1.2252
   17SAPC  H13C 2136   2.574   5.168  10.351 -0.0832 -1.9827 -0.5093
   17SAPC   C14 2137   2.830   5.186  10.415 -0.2637 -0.7503  0.0557
   17SAPC  H14A 2138   2.914   5.242  10.453 -1.0234  1.8598 -1.7682
   17SAPC  H14B 2139   2.865   5.086  10.397  0.3342 -0.4282 -0.6046
   17SAPC  H14C 2140   2.800   5.228  10.320 -1.8051  1.0702  1.2750
   17SAPC   C15 2141   2.740   5.124  10.641  0.7345  0.4563  0.1282
   17SAPC  H15A 2142   2.728   5.018  10.624 -1.6234  0.2938  2.2322
   17SAPC  H15B 2143   2.845   5.134  10.665  1.0753  1.7776 -1.7361
   17SAPC  H15C 2144   2.672   5.139  10.723  1.6758  1.8520  0.7027
   17SAPC   C11 2145   2.636   5.433  10.411 -0.6207  0.3148 -0.3819
   17SAPC  H11A 2146   2.716   5.431  10.335 -1.2223  1.5809 -1.0826
   17SAPC  H11B 2147   2.628   5.531  10.463  1.9679 -0.3318  1.4264
   17SAPC     P 2148   2.465   5.485  10.222 -0.1062  0.0308  0.0895
   17SAPC   O13 2149   2.484   5.625  10.257 -0.3554  0.0438  0.2847
   17SAPC   O14 2150   2.533   5.437  10.100  0.5651  0.1201 -0.4947
   17SAPC   O12 2151   2.507   5.408  10.351  0.1738 -0.1005 -0.1232
   17SAPC   O11 2152   2.308   5.457  10.206  0.8030  0.2170 -0.2293
   17SAPC    C1 2153   2.227   5.559  10.152 -0.0415  0.2250  0.0733
   17SAPC    HA 2154   2.242   5.655  10.205  1.9858 -0.6988  1.2840
   17SAPC    HB 2155   2.258   5.585  10.049  0.6308 -0.1763  0.1665
   17SAPC    C2 2156   2.080   5.510  10.160  0.3234 -0.1906  0.4603
   17SAPC    HS 2157   2.061   5.500  10.269  3.6897  0.3307  1.1987
   17SAPC   O21 2158   2.070   5.385  10.086  0.1923 -0.0949 -0.2900
   17SAPC   C21 2159   1.964   5.312  10.126 -0.2673 -0.0518 -0.1350
   17SAPC   O22 2160   1.895   5.337  10.224  0.1452 -0.3840 -0.0285
   17SAPC   C22 2161   1.947   5.192  10.032 -0.6132  0.6109 -0.1466
   17SAPC   H2R 2162   1.942   5.229   9.927 -0.8415 -1.4595 -0.9161
   17SAPC   H2S 2163   2.034   5.123  10.041 -0.3560  0.7863 -1.1566
   17SAPC    C3 2164   1.996   5.627  10.101  0.1905 -0.4283  0.1468
   17SAPC    HX 2165   2.012   5.717  10.165 -0.4910 -0.5527  0.5037
   17SAPC    HY 2166   1.890   5.595  10.110  0.0211  0.4886  1.8846
   17SAPC   O31 2167   2.037   5.668   9.967  0.4386  0.1391  0.0111
   17SAPC   C31 2168   1.987   5.604   9.867  0.3027 -0.5590 -0.4468
   17SAPC   O32 2169   1.890   5.534   9.874  0.9361  0.2161  0.1515
   17SAPC   C32 2170   2.058   5.639   9.738  0.1672  0.0940  0.5486
   17SAPC   H2X 2171   2.166   5.615   9.750 -0.0852 -1.9935 -0.8659
   17SAPC   H2Y 2172   2.033   5.746   9.721 -1.5665 -0.5890 -1.6411
   17SAPC   C23 2173   1.810   5.120  10.061  0.4257  0.1160  0.3885
   17SAPC   H3R 2174   1.734   5.199  10.042  0.2673 -0.1524 -0.0988
   17SAPC   H3S 2175   1.801   5.092  10.168 -0.5875  0.6829  0.4670
   17SAPC   C24 2176   1.771   5.006   9.970 -0.5468  0.3151  0.5862
   17SAPC   H4R 2177   1.847   4.925   9.968 -1.1067 -0.2241  0.7990
   17SAPC   H4S 2178   1.776   5.047   9.866 -0.9694  0.9545  0.8121
   17SAPC   C25 2179   1.636   4.954  10.009 -0.4946 -0.1735  0.0349
   17SAPC   H5R 2180   1.562   5.036  10.015 -2.1353 -1.6695  1.0112
   17SAPC   C26 2181   1.612   4.840  10.070  0.2558 -0.5448  0.2100
   17SAPC   H6R 2182   1.505   4.819  10.090 -0.3038  0.0380 -1.9146
   17SAPC   C27 2183   1.702   4.723  10.096  0.2770  0.1341 -0.4840
   17SAPC   H7R 2184   1.791   4.765  10.148 -0.9430  2.0533  0.1200
   17SAPC   H7S 2185   1.750   4.672  10.009  0.6573  1.1397 -0.8731
   17SAPC   C28 2186   1.644   4.618  10.196 -0.3982 -0.8811 -0.1319
   17SAPC   H8R 2187   1.614   4.658  10.294 -1.7109  0.4685 -1.0544
   17SAPC   C29 2188   1.628   4.488  10.171  0.2603  0.4967 -0.1498
   17SAPC   H9R 2189   1.609   4.429  10.262 -0.3316  1.9135  0.6768
   17SAPC  C210 2190   1.670   4.420  10.043 -0.5996  1.5280 -0.6730
   17SAPC  H10R 2191   1.663   4.486   9.955 -1.8007 -1.8991 -3.3920
   17SAPC  H10S 2192   1.596   4.339  10.025  0.3853  0.0231  1.5514
   17SAPC  C211 2193   1.807   4.361  10.056 -0.4170 -0.0460  0.5311
   17SAPC  H11R 2194   1.837   4.319  10.154  0.6212 -0.3532  0.0898
   17SAPC  C212 2195   1.888   4.335   9.952 -0.1593 -0.3470 -0.0320
   17SAPC  H12R 2196   1.984   4.285   9.970 -1.3855 -2.8460 -0.0053
   17SAPC  C213 2197   1.856   4.355   9.799 -0.6839  0.0760 -0.2872
   17SAPC  H13R 2198   1.884   4.460   9.779 -0.4995  0.1875  0.5395
   17SAPC  H13S 2199   1.748   4.331   9.783 -0.8962  1.4810 -1.0817
   17SAPC  C214 2200   1.926   4.259   9.714 -0.1100 -0.5855 -0.0337
   17SAPC  H14R 2201   1.963   4.168   9.763 -0.6638 -0.2732  0.9835
   17SAPC  C215 2202   1.953   4.262   9.583  0.2046 -0.7788  0.6856
   17SAPC  H15R 2203   2.020   4.187   9.538  1.4007  0.3210  0.5739
   17SAPC  C216 2204   1.920   4.374   9.491 -1.0536  0.5182 -0.4557
   17SAPC  H16R 2205   2.010   4.435   9.466 -1.4960  1.2215 -0.3713
   17SAPC  H16S 2206   1.850   4.451   9.530  0.4440  2.4735 -1.4464
   17SAPC  C217 2207   1.855   4.318   9.365  0.0778  0.0942  0.3404
   17SAPC  H17R 2208   1.755   4.271   9.372  0.2874 -0.3903  0.1241
   17SAPC  H17S 2209   1.927   4.245   9.322  0.6233  1.2940 -0.8426
   17SAPC  C218 2210   1.842   4.438   9.266 -0.2316 -0.1177 -0.5299
   17SAPC  H18R 2211   1.794   4.400   9.173 -1.1314 -0.6356  0.1356
   17SAPC  H18S 2212   1.941   4.482   9.240  0.0166 -0.7646 -0.7014
   17SAPC  C219 2213   1.756   4.556   9.305 -0.8533  0.2429 -0.2582
   17SAPC  H19R 2214   1.783   4.633   9.230  0.5072 -0.0332 -0.0838
   17SAPC  H19S 2215   1.793   4.605   9.398  1.5891 -0.0673 -0.9785
   17SAPC  C220 2216   1.611   4.534   9.314  0.0869  0.9764 -0.4858
   17SAPC  H20R 2217   1.600   4.456   9.393 -1.3508  0.4088 -1.2092
   17SAPC  H20S 2218   1.575   4.512   9.212 -1.3574  1.3840 -0.0821
   17SAPC  H20T 2219   1.559   4.620   9.361  1.2453  0.5721  1.6877
   17SAPC   C33 2220   1.997   5.565   9.615  0.9735  0.4386 -0.1956
   17SAPC   H3X 2221   1.892   5.531   9.625  0.5312  1.5027 -1.0231
   17SAPC   H3Y 2222   2.055   5.471   9.607  0.7864  0.2913  0.1366
   17SAPC   C34 2223   2.008   5.648   9.484  0.1356 -0.4428 -0.3645
   17SAPC   H4X 2224   2.118   5.651   9.470  0.1966 -1.4687 -0.1732
   17SAPC   H4Y 2225   1.972   5.752   9.500 -0.8082 -0.8047 -0.0939
   17SAPC   C35 2226   1.930   5.577   9.375 -1.0462  0.1457 -0.1743
   17SAPC   H5X 2227   1.823   5.565   9.401 -0.9748  1.1705  0.6394
   17SAPC   H5Y 2228   1.956   5.471   9.355 -3.1128 -0.0329 -2.3557
   17SAPC   C36 2229   1.922   5.657   9.244 -0.4843  0.3770  0.0429
   17SAPC   H6X 2230   2.002   5.733   9.252  0.3723 -0.6749  2.0179
   17SAPC   H6Y 2231   1.824   5.709   9.241 -0.3897  0.5089 -1.3296
   17SAPC   C37 2232   1.936   5.569   9.114  0.0694 -0.0280  0.5175
   17SAPC   H7X 2233   1.852   5.497   9.105  1.0471 -1.3121  1.3609
   17SAPC   H7Y 2234   2.031   5.513   9.127 -0.3645 -2.0525 -3.3386
   17SAPC   C38 2235   1.934   5.656   8.981 -1.1937 -0.2550 -0.2733
   17SAPC   H8X 2236   1.875   5.746   9.011 -1.5834 -1.1081  1.7131
   17SAPC   H8Y 2237   1.889   5.604   8.894  0.0472 -0.8539 -0.5746
   17SAPC   C39 2238   2.073   5.702   8.936  0.1427 -0.4296  0.0031
   17SAPC   H9X 2239   2.141   5.616   8.917 -0.0083 -0.8669  1.3188
   17SAPC   H9Y 2240   2.119   5.766   9.014 -1.4741  0.9121 -0.0896
   17SAPC  C310 2241   2.061   5.790   8.809 -0.0793 -0.0120  0.2017
   17SAPC  H10X 2242   2.001   5.730   8.737  1.7455 -0.3947 -1.0861
   17SAPC  H10Y 2243   2.161   5.798   8.762 -0.2676  2.1501  0.0703
   17SAPC  C311 2244   2.013   5.934   8.816  0.0436 -0.1228 -0.1689
   17SAPC  H11X 2245   2.084   5.999   8.871  0.0933  1.5528 -2.0874
   17SAPC  H11Y 2246   1.910   5.940   8.857 -0.5245 -2.0640 -1.1716
   17SAPC  C312 2247   2.001   5.992   8.669 -0.0732  0.8686 -0.1873
   17SAPC  H12X 2248   1.960   5.911   8.605 -1.7821  0.9708  0.7283
   17SAPC  H12Y 2249   2.105   5.993   8.630  0.1477 -2.3925  0.0027
   17SAPC  C313 2250   1.931   6.128   8.642  0.9154 -0.6371 -0.0863
   17SAPC  H13X 2251   1.829   6.128   8.684  2.0008  2.4553  3.0466
   17SAPC  H13Y 2252   1.919   6.145   8.533 -1.1447  1.1974  0.3610
   17SAPC  C314 2253   2.000   6.243   8.715 -0.2588 -0.3670  0.1177
   17SAPC  H14X 2254   2.110   6.236   8.703 -0.2298 -1.2895  0.7837
   17SAPC  H14Y 2255   1.991   6.211   8.821  0.1459 -3.9862 -0.8075
   17SAPC  C315 2256   1.951   6.386   8.690  0.2585  1.0538 -0.1873
   17SAPC  H15X 2257   1.997   6.417   8.594  0.7952  2.4768  0.4933
   17SAPC  H15Y 2258   2.004   6.443   8.770  2.8717 -0.1022 -0.9896
   17SAPC  C316 2259   1.802   6.406   8.686 -0.1754 -0.8564 -0.3689
   17SAPC  H16X 2260   1.771   6.458   8.779  1.4335 -0.9442  0.2488
   17SAPC  H16Y 2261   1.739   6.316   8.702 -0.7172 -0.5307 -0.6849
   17SAPC  C317 2262   1.745   6.479   8.563 -0.5153  0.6687 -0.0470
   17SAPC  H17X 2263   1.636   6.490   8.583 -0.6842 -1.9026  0.7514
   17SAPC  H17Y 2264   1.770   6.414   8.477 -0.3357  1.9742 -1.0088
   17SAPC  C318 2265   1.813   6.611   8.529  0.5916 -0.1261  0.0410
   17SAPC  H18X 2266   1.815   6.682   8.615  2.7951  0.4445 -0.4007
   17SAPC  H18Y 2267   1.912   6.579   8.489  1.2403  0.9374  0.7290
   17SAPC  H18Z 2268   1.751   6.661   8.451 -1.1730  0.1125  1.5306
   18SAPC     N 2269   3.980   4.719  10.406  0.5315  0.0411  0.1926
   18SAPC   C12 2270   3.868   4.780  10.489 -0.3485 -0.4234 -0.7192
   18SAPC  H12A 2271   3.881   4.752  10.592 -0.4016  0.9883 -0.3124
   18SAPC  H12B 2272   3.777   4.732  10.455  0.9830 -3.5028 -0.3302
   18SAPC   C13 2273   4.114   4.762  10.448 -0.7388 -0.4285 -0.1002
   18SAPC  H13A 2274   4.190   4.712  10.389 -1.5549  1.0983 -2.5986
   18SAPC  H13B 2275   4.139   4.866  10.437  0.7480 -0.6577  0.7991
   18SAPC  H13C 2276   4.138   4.741  10.551  3.6112  0.8885 -0.6324
   18SAPC   C14 2277   3.976   4.565  10.417 -0.1066  0.2843 -0.6040
   18SAPC  H14A 2278   3.992   4.533  10.519 -0.8313 -0.2701 -0.6620
   18SAPC  H14B 2279   3.881   4.530  10.380 -0.1740  0.3144 -0.4586
   18SAPC  H14C 2280   4.064   4.531  10.365 -1.0853 -2.6848 -0.5034
   18SAPC   C15 2281   3.962   4.756  10.260  0.0082 -0.3019 -0.1100
   18SAPC  H15A 2282   3.942   4.862  10.248 -0.7678 -0.6036 -1.9740
   18SAPC  H15B 2283   4.052   4.743  10.202 -0.4489 -0.7675 -0.7270
   18SAPC  H15C 2284   3.880   4.697  10.221  0.5125 -2.6184  2.1117
   18SAPC   C11 2285   3.838   4.934  10.496  0.1888  0.6114  0.1840
   18SAPC  H11A 2286   3.923   4.988  10.542  0.2062  0.6122  0.1512
   18SAPC  H11B 2287   3.752   4.953  10.564  0.4264  0.1501  0.6207
   18SAPC     P 2288   3.681   4.970  10.278  0.1675 -0.2720 -0.0116
   18SAPC   O13 2289   3.586   5.071  10.330 -0.1061 -0.5505 -0.5057
   18SAPC   O14 2290   3.706   4.974  10.131 -0.2380  0.0641  0.3622
   18SAPC   O12 2291   3.816   4.984  10.365 -0.1524 -0.2799  0.7365
   18SAPC   O11 2292   3.639   4.822  10.319 -0.2418 -0.4037 -0.0963
   18SAPC    C1 2293   3.522   4.790  10.386 -0.5550  0.2434 -0.6353
   18SAPC    HA 2294   3.526   4.834  10.488  1.1224  1.8964 -1.3589
   18SAPC    HB 2295   3.434   4.821  10.327 -1.0420  0.8388  0.3827
   18SAPC    C2 2296   3.529   4.635  10.398  0.1148  0.6131  0.2888
   18SAPC    HS 2297   3.612   4.596  10.461 -0.4663  0.0454  0.7162
   18SAPC   O21 2298   3.550   4.576  10.267  0.1767 -0.1279  0.2945
   18SAPC   C21 2299   3.546   4.445  10.261  0.0519  0.2396  0.1204
   18SAPC   O22 2300   3.542   4.370  10.357 -0.0722  0.4079 -0.0287
   18SAPC   C22 2301   3.547   4.407  10.110 -0.3245  0.0606 -0.2106
   18SAPC   H2R 2302   3.524   4.496  10.047  1.0331  0.9419  0.4873
   18SAPC   H2S 2303   3.653   4.380  10.095 -0.3463 -0.5979  0.7548
   18SAPC    C3 2304   3.398   4.593  10.466 -0.1715 -0.1093  0.1414
   18SAPC    HX 2305   3.377   4.659  10.553 -1.3970  0.6880 -0.7395
   18SAPC    HY 2306   3.402   4.493  10.515 -2.2254 -2.3290 -3.7432
   18SAPC   O31 2307   3.293   4.600  10.371 -0.2698 -0.1278  0.4314
   18SAPC   C31 2308   3.199   4.515  10.391  0.6017  0.6362  0.4155
   18SAPC   O32 2309   3.202   4.425  10.476 -0.3973 -0.1252 -0.2165
   18SAPC   C32 2310   3.078   4.535  10.309  0.4072 -0.3600 -0.1099
   18SAPC   H2X 2311   3.068   4.646  10.301 -2.3701 -0.2719  2.4880
   18SAPC   H2Y 2312   2.990   4.503  10.370  0.2638 -0.3279 -0.2984
   18SAPC   C23 2313   3.455   4.290  10.068  0.0881 -0.0123 -0.3962
   18SAPC   H3R 2314   3.409   4.334   9.977 -1.3405 -1.3483 -0.3610
   18SAPC   H3S 2315   3.370   4.274  10.138  0.3011 -2.9680 -0.7204
   18SAPC   C24 2316   3.517   4.153  10.031 -0.6741  0.5631 -0.3193
   18SAPC   H4R 2317   3.565   4.111  10.122 -1.8541 -0.9420 -0.3523
   18SAPC   H4S 2318   3.610   4.165   9.971  0.1185  0.8292  0.9306
   18SAPC   C25 2319   3.431   4.043   9.964  0.5315  0.3104 -0.0713
   18SAPC   H5R 2320   3.392   3.973  10.039  0.1026  0.2507 -0.3493
   18SAPC   C26 2321   3.395   4.030   9.836 -0.8050  0.6589 -0.0160
   18SAPC   H6R 2322   3.336   3.943   9.805  0.6502 -0.3950  0.1139
   18SAPC   C27 2323   3.436   4.114   9.721  0.0644  0.3600 -0.5014
   18SAPC   H7R 2324   3.486   4.049   9.647  1.2354 -0.7684  1.1988
   18SAPC   H7S 2325   3.516   4.186   9.750  0.2290  0.0651 -0.2164
   18SAPC   C28 2326   3.322   4.194   9.663  0.6214  0.1960 -0.5439
   18SAPC   H8R 2327   3.264   4.249   9.739  1.3146 -0.1402  0.2582
   18SAPC   C29 2328   3.282   4.219   9.540 -0.2519  0.8804 -0.5806
   18SAPC   H9R 2329   3.197   4.287   9.527 -0.1808  1.0623 -0.1360
   18SAPC  C210 2330   3.339   4.175   9.406  1.0492  0.2807 -0.4374
   18SAPC  H10R 2331   3.449   4.172   9.419  0.7430 -1.8118  2.7323
   18SAPC  H10S 2332   3.315   4.258   9.336  0.2354  0.5824  0.1812
   18SAPC  C211 2333   3.287   4.039   9.375  0.3608 -0.5502 -0.1032
   18SAPC  H11R 2334   3.260   3.975   9.461 -0.9259  1.4453  1.0355
   18SAPC  C212 2335   3.263   3.989   9.254  0.5376 -0.6444  0.0487
   18SAPC  H12R 2336   3.216   3.890   9.243 -0.1060 -0.4347  0.8431
   18SAPC  C213 2337   3.287   4.059   9.123  0.2956  0.0568  0.1963
   18SAPC  H13R 2338   3.325   4.158   9.157  0.7857 -0.5698  1.5904
   18SAPC  H13S 2339   3.192   4.057   9.066  0.7926  0.1342 -0.6508
   18SAPC  C214 2340   3.396   3.973   9.048 -0.3442 -0.1821 -0.7180
   18SAPC  H14R 2341   3.478   3.951   9.118 -1.8476 -0.7187  0.9575
   18SAPC  C215 2342   3.388   3.922   8.925 -0.5842  0.4718  0.9502
   18SAPC  H15R 2343   3.463   3.857   8.875 -2.1492 -0.4572 -0.2849
   18SAPC  C216 2344   3.258   3.942   8.847 -0.0441  0.6723  0.5443
   18SAPC  H16R 2345   3.229   4.048   8.830 -0.0634  0.4632 -0.8404
   18SAPC  H16S 2346   3.176   3.898   8.908  1.0684  0.0822  1.6882
   18SAPC  C217 2347   3.263   3.859   8.718 -0.4851 -0.2538  0.0346
   18SAPC  H17R 2348   3.289   3.753   8.742  0.0763  0.2183  1.6455
   18SAPC  H17S 2349   3.341   3.889   8.646  0.1614 -2.8602 -0.4570
   18SAPC  C218 2350   3.130   3.855   8.648 -0.1717 -0.1477 -0.0036
   18SAPC  H18R 2351   3.089   3.957   8.634 -0.8828  0.1708  3.5281
   18SAPC  H18S 2352   3.051   3.799   8.702  1.2318 -2.3332 -0.0907
   18SAPC  C219 2353   3.143   3.780   8.516  0.4548  0.0080 -0.8169
   18SAPC  H19R 2354   3.179   3.682   8.556 -2.2734 -0.9292 -0.4589
   18SAPC  H19S 2355   3.219   3.831   8.453  1.2161  0.1740  0.1999
   18SAPC  C220 2356   3.001   3.781   8.454  0.6682  0.5946 -0.1412
   18SAPC  H20R 2357   3.012   3.770   8.344  0.9364  1.4180 -0.2045
   18SAPC  H20S 2358   2.950   3.879   8.467 -1.2515 -0.3130 -0.5157
   18SAPC  H20T 2359   2.944   3.695   8.495  0.2700  2.0597  2.6164
   18SAPC   C33 2360   3.085   4.453  10.178 -0.5919 -0.7180 -0.7736
   18SAPC   H3X 2361   3.053   4.350  10.203 -0.3941 -0.2460  1.7241
   18SAPC   H3Y 2362   3.190   4.442  10.142 -0.0827  2.9411 -0.8805
   18SAPC   C34 2363   2.995   4.513  10.060 -0.2159 -0.0425 -0.2308
   18SAPC   H4X 2364   3.034   4.615  10.036 -2.2552  0.5584 -1.2005
   18SAPC   H4Y 2365   2.896   4.529  10.106 -1.0907 -1.5228 -1.5166
   18SAPC   C35 2366   2.991   4.431   9.935  0.0942  0.3307 -0.0147
   18SAPC   H5X 2367   2.958   4.326   9.956  1.6148  0.0821  1.3565
   18SAPC   H5Y 2368   3.095   4.424   9.897  0.5256 -1.6689  1.3392
   18SAPC   C36 2369   2.913   4.494   9.824 -0.1101 -0.1714  0.1252
   18SAPC   H6X 2370   2.963   4.587   9.789  1.3314 -0.4057  1.4838
   18SAPC   H6Y 2371   2.816   4.514   9.875  0.7252  3.5580  0.5264
   18SAPC   C37 2372   2.902   4.407   9.692  0.2405  0.0530 -0.2013
   18SAPC   H7X 2373   2.849   4.314   9.720 -0.7550  0.9429  1.0026
   18SAPC   H7Y 2374   3.003   4.377   9.658  0.5648 -0.6010  1.2631
   18SAPC   C38 2375   2.818   4.474   9.576 -0.5102 -0.5799  0.0922
   18SAPC   H8X 2376   2.848   4.581   9.573  3.0331 -1.4267  0.5295
   18SAPC   H8Y 2377   2.709   4.466   9.597 -1.5205  2.2921 -3.1495
   18SAPC   C39 2378   2.825   4.395   9.444  0.0356  0.4302  0.1384
   18SAPC   H9X 2379   2.738   4.417   9.378  1.8611  0.3798 -2.4244
   18SAPC   H9Y 2380   2.816   4.291   9.481 -2.0534  0.6071  0.2345
   18SAPC  C310 2381   2.954   4.422   9.364 -0.1142  0.0816  0.1713
   18SAPC  H10X 2382   3.030   4.442   9.443 -1.7913 -0.4359  1.9803
   18SAPC  H10Y 2383   2.947   4.518   9.310 -0.4263 -0.3173 -0.5019
   18SAPC  C311 2384   2.997   4.319   9.272 -0.1638 -0.0573  0.8369
   18SAPC  H11X 2385   3.020   4.221   9.319  0.6733 -1.1100 -1.5632
   18SAPC  H11Y 2386   3.095   4.344   9.226 -0.4336 -3.3751 -2.0312
   18SAPC  C312 2387   2.903   4.297   9.151 -0.4235  0.3762  0.3601
   18SAPC  H12X 2388   2.872   4.397   9.112 -0.8487  1.1363  2.5014
   18SAPC  H12Y 2389   2.813   4.241   9.185  1.1582 -2.4896  0.1105
   18SAPC  C313 2390   2.954   4.215   9.035 -0.6272 -0.1965 -0.0012
   18SAPC  H13X 2391   2.989   4.115   9.071  2.8656  0.6306 -0.7251
   18SAPC  H13Y 2392   3.041   4.276   9.002 -0.8538  0.2591  0.2397
   18SAPC  C314 2393   2.856   4.206   8.918  0.7080 -0.5474  0.5320
   18SAPC  H14X 2394   2.837   4.310   8.885  0.1178 -0.9533 -0.4847
   18SAPC  H14Y 2395   2.762   4.154   8.948 -0.2845  1.9686  2.0781
   18SAPC  C315 2396   2.922   4.133   8.801  0.3074 -0.9361 -0.5607
   18SAPC  H15X 2397   2.946   4.029   8.832 -2.5827 -1.7900 -0.8616
   18SAPC  H15Y 2398   3.016   4.187   8.777  0.2561 -0.6924 -0.2176
   18SAPC  C316 2399   2.837   4.130   8.669  0.0206 -0.0176 -0.5114
   18SAPC  H16X 2400   2.885   4.057   8.600  2.2318 -1.7482  2.5717
   18SAPC  H16Y 2401   2.843   4.230   8.622  1.0938  0.1837  0.0206
   18SAPC  C317 2402   2.687   4.088   8.692 -0.0472 -0.3733 -0.0302
   18SAPC  H17X 2403   2.626   4.178   8.715 -1.8182 -1.8411  1.2808
   18SAPC  H17Y 2404   2.683   4.028   8.785  1.3308 -0.5657 -0.0708
   18SAPC  C318 2405   2.626   4.012   8.581  0.0836 -0.1047 -0.5050
   18SAPC  H18X 2406   2.531   3.963   8.611  0.0273 -0.3655 -1.0848
   18SAPC  H18Y 2407   2.694   3.927   8.558  0.8096  0.2239  0.3583
   18SAPC  H18Z 2408   2.607   4.077   8.493 -1.4020  0.7074  0.3763
   19SAPC     N 2409   2.115   6.822  11.124 -0.2563  0.8137 -0.3891
   19SAPC   C12 2410   2.198   6.737  11.027 -0.3522  0.2431 -0.0012
   19SAPC  H12A 2411   2.237   6.656  11.087  1.4009  1.4368  0.5346
   19SAPC  H12B 2412   2.285   6.795  11.001 -1.0204  1.1570 -0.2720
   19SAPC   C13 2413   2.217   6.894  11.212 -0.2673  0.5887  0.4542
   19SAPC  H13A 2414   2.262   6.829  11.285  3.2023  0.1044 -1.8586
   19SAPC  H13B 2415   2.289   6.934  11.142 -1.0022  0.1997 -0.5494
   19SAPC  H13C 2416   2.164   6.969  11.269  0.5189 -1.3478  4.0918
   19SAPC   C14 2417   2.040   6.918  11.035 -0.3002  0.6314 -0.7231
   19SAPC  H14A 2418   1.993   6.996  11.093 -1.2065 -1.1073  0.9623
   19SAPC  H14B 2419   2.103   6.966  10.961  0.1826  0.1099 -0.6552
   19SAPC  H14C 2420   1.964   6.867  10.978 -1.2239 -1.8906  2.4695
   19SAPC   C15 2421   2.029   6.732  11.206 -0.0087 -0.7763  0.1746
   19SAPC  H15A 2422   1.984   6.656  11.144  0.3233 -0.0629 -0.9714
   19SAPC  H15B 2423   2.087   6.674  11.277 -0.8768 -0.8017  0.8822
   19SAPC  H15C 2424   1.959   6.790  11.265  1.5748  1.3505  0.0553
   19SAPC   C11 2425   2.143   6.688  10.891  0.6488  0.2369 -0.2919
   19SAPC  H11A 2426   2.213   6.608  10.860  0.6190  1.2372 -3.3181
   19SAPC  H11B 2427   2.143   6.771  10.816  0.7944 -1.0453 -1.7690
   19SAPC     P 2428   1.885   6.646  10.821 -0.1764  0.1282  0.4159
   19SAPC   O13 2429   1.815   6.520  10.801 -0.6054  0.2333  0.4286
   19SAPC   O14 2430   1.815   6.748  10.891 -0.2282 -0.3920 -0.6357
   19SAPC   O12 2431   2.020   6.618  10.902  0.0579 -0.4280 -0.2389
   19SAPC   O11 2432   1.949   6.697  10.682  0.3340 -0.0311 -0.3799
   19SAPC    C1 2433   1.887   6.807  10.621 -0.0436 -0.2353 -0.9932
   19SAPC    HA 2434   1.885   6.894  10.690 -1.3812 -0.3986 -0.8081
   19SAPC    HB 2435   1.963   6.836  10.545  1.2727 -1.4892 -0.2062
   19SAPC    C2 2436   1.747   6.790  10.554 -0.5196 -0.8608 -0.6420
   19SAPC    HS 2437   1.682   6.752  10.635  0.0524 -0.3098  0.0815
   19SAPC   O21 2438   1.754   6.697  10.450  0.7057  0.0824 -0.4891
   19SAPC   C21 2439   1.634   6.644  10.413  0.1706 -0.0815 -0.8368
   19SAPC   O22 2440   1.529   6.667  10.471  0.5142 -0.3647 -0.1288
   19SAPC   C22 2441   1.666   6.568  10.287 -0.2904  0.7387  0.1749
   19SAPC   H2R 2442   1.720   6.639  10.221 -1.0485 -1.2360 -2.8179
   19SAPC   H2S 2443   1.733   6.485  10.316 -1.3036 -1.0393 -2.1940
   19SAPC    C3 2444   1.685   6.931  10.512  0.2067  0.1865  0.0438
   19SAPC    HX 2445   1.669   6.991  10.605 -0.9931  0.8565 -0.5736
   19SAPC    HY 2446   1.585   6.910  10.469  0.8805  1.2717 -2.1768
   19SAPC   O31 2447   1.768   7.003  10.419 -0.0501 -0.3412  0.9642
   19SAPC   C31 2448   1.743   6.974  10.294 -0.6197 -0.5497  0.5601
   19SAPC   O32 2449   1.668   6.891  10.250 -0.5362  0.3015 -0.1751
   19SAPC   C32 2450   1.825   7.067  10.196 -0.5339 -0.4887 -0.0977
   19SAPC   H2X 2451   1.921   7.015  10.177 -1.0718 -1.4570 -0.2350
   19SAPC   H2Y 2452   1.833   7.167  10.244 -2.7242 -0.3707  0.1317
   19SAPC   C23 2453   1.540   6.501  10.232 -0.0387  0.5860 -0.8845
   19SAPC   H3R 2454   1.460   6.499  10.309 -0.3311  1.5641 -1.1553
   19SAPC   H3S 2455   1.565   6.395  10.210 -0.2705  0.6433 -1.4524
   19SAPC   C24 2456   1.477   6.580  10.114 -1.0260  0.2683 -0.3598
   19SAPC   H4R 2457   1.549   6.582  10.029  0.3451  1.2531  0.7725
   19SAPC   H4S 2458   1.463   6.686  10.146  0.7536  0.4742 -0.1440
   19SAPC   C25 2459   1.339   6.529  10.078  0.2178  0.1722 -0.1264
   19SAPC   H5R 2460   1.261   6.538  10.155 -1.8655 -0.6904 -2.0388
   19SAPC   C26 2461   1.310   6.469   9.965  0.1793  0.2728  0.0164
   19SAPC   H6R 2462   1.204   6.449   9.942 -0.3048  2.3473  0.2453
   19SAPC   C27 2463   1.415   6.429   9.865  0.0932 -0.3800 -0.0269
   19SAPC   H7R 2464   1.380   6.333   9.820  2.0054 -0.1135 -2.2688
   19SAPC   H7S 2465   1.513   6.393   9.902  0.8675  0.3949 -1.2480
   19SAPC   C28 2466   1.439   6.526   9.753 -0.0998 -0.0964  0.5015
   19SAPC   H8R 2467   1.449   6.633   9.779 -0.9238 -0.6017  3.2347
   19SAPC   C29 2468   1.431   6.486   9.624 -0.4905  0.0715 -0.6645
   19SAPC   H9R 2469   1.451   6.571   9.557  2.7421  0.4564  0.6327
   19SAPC  C210 2470   1.399   6.350   9.563  0.0728 -0.5559  0.4708
   19SAPC  H10R 2471   1.440   6.269   9.627 -0.3844 -0.8804  0.3548
   19SAPC  H10S 2472   1.462   6.326   9.474 -2.0594  0.2930 -1.3489
   19SAPC  C211 2473   1.248   6.332   9.537 -0.5850 -0.1480  0.2379
   19SAPC  H11R 2474   1.189   6.287   9.619 -2.3822  0.3149 -0.7470
   19SAPC  C212 2475   1.174   6.362   9.424 -0.8132 -0.0803 -0.2460
   19SAPC  H12R 2476   1.066   6.338   9.427 -1.3184  1.9059 -1.3797
   19SAPC  C213 2477   1.223   6.414   9.296  0.1489 -0.2492 -0.6593
   19SAPC  H13R 2478   1.329   6.445   9.312 -0.0631 -0.4998  1.5849
   19SAPC  H13S 2479   1.160   6.503   9.276 -2.3353 -1.5357  0.9401
   19SAPC  C214 2480   1.214   6.308   9.185 -0.5514 -0.4688 -0.8916
   19SAPC  H14R 2481   1.257   6.211   9.212  0.6142  0.5012  0.9619
   19SAPC  C215 2482   1.166   6.330   9.064  0.5169  0.1700 -0.1674
   19SAPC  H15R 2483   1.151   6.246   8.995  3.1009 -0.6274  0.1521
   19SAPC  C216 2484   1.120   6.461   9.006 -0.0796 -0.0437  0.2707
   19SAPC  H16R 2485   1.096   6.535   9.085 -0.5331 -0.3328  0.4100
   19SAPC  H16S 2486   1.020   6.452   8.958 -0.1051  0.0501  0.3058
   19SAPC  C217 2487   1.215   6.522   8.903  0.5115  0.5696 -0.2095
   19SAPC  H17R 2488   1.315   6.499   8.946  0.9410  1.0459 -0.9265
   19SAPC  H17S 2489   1.188   6.629   8.899 -2.2445 -0.0727 -0.5346
   19SAPC  C218 2490   1.198   6.464   8.763 -0.5463  0.2245 -0.2177
   19SAPC  H18R 2491   1.092   6.458   8.729 -0.4407 -1.1055 -0.3706
   19SAPC  H18S 2492   1.245   6.366   8.786  3.1455  2.0964  1.0535
   19SAPC  C219 2493   1.295   6.528   8.663 -1.4428 -0.4378 -0.6854
   19SAPC  H19R 2494   1.390   6.527   8.720 -0.2543 -2.4162 -2.5232
   19SAPC  H19S 2495   1.266   6.631   8.635 -0.0514 -0.2659 -1.6030
   19SAPC  C220 2496   1.320   6.455   8.528 -0.0605  0.1895 -0.3589
   19SAPC  H20R 2497   1.365   6.354   8.534 -0.6211 -0.0818 -0.5896
   19SAPC  H20S 2498   1.373   6.516   8.452  0.0750  0.2252 -0.2341
   19SAPC  H20T 2499   1.219   6.438   8.483 -0.6783 -0.0943  1.0822
   19SAPC   C33 2500   1.758   7.074  10.059  0.9741 -0.2047  0.1556
   19SAPC   H3X 2501   1.758   6.970  10.022  1.3665 -0.2332  0.2225
   19SAPC   H3Y 2502   1.823   7.133   9.991 -2.3378  0.3892 -2.7132
   19SAPC   C34 2503   1.612   7.141  10.053 -0.2209  0.7948 -0.4407
   19SAPC   H4X 2504   1.626   7.248  10.078  2.3401  0.9069 -2.0026
   19SAPC   H4Y 2505   1.559   7.086  10.134  0.4796 -1.6396 -1.5316
   19SAPC   C35 2506   1.537   7.138   9.920  0.4154  0.3315  0.4017
   19SAPC   H5X 2507   1.434   7.176   9.931 -0.2256 -1.0914 -0.4173
   19SAPC   H5Y 2508   1.522   7.030   9.900  1.0676  0.6699 -2.3434
   19SAPC   C36 2509   1.618   7.199   9.804 -0.4321 -0.5277 -0.6192
   19SAPC   H6X 2510   1.724   7.167   9.810 -0.1073  0.6089  0.0503
   19SAPC   H6Y 2511   1.627   7.309   9.818 -0.4416 -0.4133 -1.4677
   19SAPC   C37 2512   1.555   7.171   9.670 -0.0600  0.3054  0.2515
   19SAPC   H7X 2513   1.460   7.228   9.675  0.5748  1.2659  2.4858
   19SAPC   H7Y 2514   1.523   7.065   9.657  0.4726  0.0911  0.6611
   19SAPC   C38 2515   1.648   7.207   9.549 -0.3163 -0.0747 -0.1554
   19SAPC   H8X 2516   1.733   7.136   9.545 -0.7673 -0.5868 -1.1881
   19SAPC   H8Y 2517   1.693   7.306   9.572  2.4789 -1.7737  2.2893
   19SAPC   C39 2518   1.563   7.196   9.421 -0.6503  0.2684  0.0582
   19SAPC   H9X 2519   1.483   7.273   9.429 -0.8246  0.0545  0.4030
   19SAPC   H9Y 2520   1.515   7.095   9.414 -4.4272  1.7492  1.6271
   19SAPC  C310 2521   1.637   7.237   9.296 -0.1788 -0.2854  0.1211
   19SAPC  H10X 2522   1.718   7.166   9.271 -1.4584 -1.9210  0.4210
   19SAPC  H10Y 2523   1.676   7.336   9.326 -0.4491 -0.4152  0.9180
   19SAPC  C311 2524   1.546   7.252   9.171 -0.1055  0.3718 -0.6488
   19SAPC  H11X 2525   1.459   7.312   9.205  1.4356  2.2391  0.1838
   19SAPC  H11Y 2526   1.514   7.148   9.148 -1.1903 -0.1220  2.5313
   19SAPC  C312 2527   1.631   7.309   9.049  0.0946  0.1701  0.1286
   19SAPC  H12X 2528   1.737   7.275   9.052 -0.3873 -1.5169 -0.6464
   19SAPC  H12Y 2529   1.636   7.419   9.064  0.6004  0.3347 -1.1029
   19SAPC  C313 2530   1.564   7.276   8.912  0.2871 -0.1181 -0.0227
   19SAPC  H13X 2531   1.458   7.306   8.902  0.3558  0.7558  1.4908
   19SAPC  H13Y 2532   1.586   7.169   8.891  0.0503 -0.2307  0.3032
   19SAPC  C314 2533   1.629   7.363   8.800 -0.4413  0.3547 -0.0100
   19SAPC  H14X 2534   1.610   7.310   8.705 -0.7222  1.3810 -0.5400
   19SAPC  H14Y 2535   1.740   7.365   8.812 -0.3036  1.5046 -1.2557
   19SAPC  C315 2536   1.569   7.501   8.783 -0.2503 -0.4041  0.0207
   19SAPC  H15X 2537   1.563   7.543   8.885  0.8720  0.8689 -0.4046
   19SAPC  H15Y 2538   1.467   7.496   8.739  0.4368  1.5463 -2.0065
   19SAPC  C316 2539   1.654   7.598   8.695  0.8485 -0.4201  0.0819
   19SAPC  H16X 2540   1.761   7.586   8.722  0.9253 -0.8232 -0.3761
   19SAPC  H16Y 2541   1.625   7.698   8.733 -1.9285 -0.7761 -0.8450
   19SAPC  C317 2542   1.627   7.591   8.542  0.0970  0.0981 -0.3585
   19SAPC  H17X 2543   1.519   7.616   8.537  0.5196  2.9215  2.1576
   19SAPC  H17Y 2544   1.641   7.486   8.506 -1.6338 -0.2947  0.0316
   19SAPC  C318 2545   1.696   7.690   8.452 -0.4453  0.2973  0.1846
   19SAPC  H18X 2546   1.652   7.791   8.466 -0.1162  0.2323  1.9002
   19SAPC  H18Y 2547   1.679   7.653   8.349  1.7611  0.3163 -0.2396
   19SAPC  H18Z 2548   1.807   7.691   8.461 -0.3369 -1.7611 -0.5240
   20SAPC     N 2549   1.396   2.671  10.778 -0.2957  0.8173 -0.6363
   20SAPC   C12 2550   1.413   2.614  10.634  0.6129 -0.2696 -0.5987
   20SAPC  H12A 2551   1.336   2.655  10.569 -0.0719 -1.2564 -0.4184
   20SAPC  H12B 2552   1.387   2.510  10.630 -1.9530  0.2242  0.7272
   20SAPC   C13 2553   1.510   2.617  10.867 -0.0115 -0.4437 -0.0823
   20SAPC  H13A 2554   1.601   2.619  10.808 -1.6240 -0.5495 -2.7490
   20SAPC  H13B 2555   1.525   2.681  10.953  0.9207  0.0570 -0.5981
   20SAPC  H13C 2556   1.488   2.513  10.885 -0.0460 -0.9177 -2.5266
   20SAPC   C14 2557   1.409   2.821  10.771 -0.6546  0.3081  0.5837
   20SAPC  H14A 2558   1.399   2.861  10.870 -2.9099 -0.3633  0.6794
   20SAPC  H14B 2559   1.505   2.843  10.727 -1.5962  2.5833 -0.5086
   20SAPC  H14C 2560   1.332   2.852  10.701  0.4209  0.1257 -0.7319
   20SAPC   C15 2561   1.257   2.638  10.834  0.3589  0.2907  0.7316
   20SAPC  H15A 2562   1.250   2.534  10.860 -1.3063  0.0927 -0.3636
   20SAPC  H15B 2563   1.229   2.712  10.907 -0.8375 -0.0927  0.6712
   20SAPC  H15C 2564   1.191   2.652  10.751  1.4853 -1.6426 -0.5744
   20SAPC   C11 2565   1.544   2.630  10.557 -0.3623  0.4624 -0.3403
   20SAPC  H11A 2566   1.579   2.732  10.583 -2.4880  1.2580 -0.3919
   20SAPC  H11B 2567   1.537   2.612  10.447  1.7187  0.2906 -0.5002
   20SAPC     P 2568   1.623   2.382  10.595 -0.0420  0.3808 -0.0547
   20SAPC   O13 2569   1.745   2.310  10.639 -0.3020 -0.3089  0.2874
   20SAPC   O14 2570   1.496   2.345  10.669 -0.2928 -0.2411  0.2688
   20SAPC   O12 2571   1.640   2.537  10.603  0.1839  0.3825  0.0647
   20SAPC   O11 2572   1.608   2.350  10.441  0.2252 -0.3925 -0.3719
   20SAPC    C1 2573   1.710   2.401  10.354  0.6049  0.6025 -0.3379
   20SAPC    HA 2574   1.738   2.506  10.373 -2.1418  1.0147  2.2165
   20SAPC    HB 2575   1.802   2.339  10.360 -0.4888 -0.9800  1.3404
   20SAPC    C2 2576   1.661   2.398  10.210  0.4643  0.4797 -0.3958
   20SAPC    HS 2577   1.576   2.469  10.207 -1.5111 -1.6460  1.3419
   20SAPC   O21 2578   1.626   2.265  10.167 -0.4711  0.8953 -0.4413
   20SAPC   C21 2579   1.527   2.260  10.078 -0.0588 -0.1098  0.8572
   20SAPC   O22 2580   1.464   2.357  10.038 -0.2685 -0.3597 -0.3653
   20SAPC   C22 2581   1.503   2.114  10.047  0.4855 -0.4578 -0.3198
   20SAPC   H2R 2582   1.602   2.066  10.027  0.1532 -0.5451 -1.8802
   20SAPC   H2S 2583   1.452   2.069  10.135  0.7279  0.5382  0.3429
   20SAPC    C3 2584   1.777   2.448  10.124 -0.3272  0.5896 -0.7639
   20SAPC    HX 2585   1.847   2.362  10.137 -0.8871  0.2016 -0.2307
   20SAPC    HY 2586   1.813   2.542  10.170  0.2698  0.3186 -0.6683
   20SAPC   O31 2587   1.742   2.448   9.979 -0.4010  0.4448 -0.2299
   20SAPC   C31 2588   1.786   2.556   9.920  0.2090  0.5469 -0.2633
   20SAPC   O32 2589   1.854   2.640   9.971 -0.2827  0.3457 -0.4713
   20SAPC   C32 2590   1.753   2.544   9.771 -0.4412 -0.1010  0.4975
   20SAPC   H2X 2591   1.644   2.566   9.769 -0.6460 -1.1309 -0.3241
   20SAPC   H2Y 2592   1.768   2.442   9.730 -0.7696  0.8350 -2.0730
   20SAPC   C23 2593   1.416   2.100   9.921  0.0490 -0.2679 -0.1489
   20SAPC   H3R 2594   1.333   2.173   9.927 -0.6779 -0.9364 -1.5450
   20SAPC   H3S 2595   1.375   1.997   9.924  0.9014 -0.6739 -1.4376
   20SAPC   C24 2596   1.491   2.131   9.790  0.3974  0.2818 -0.4255
   20SAPC   H4R 2597   1.574   2.060   9.767 -0.1385 -0.0486 -1.4076
   20SAPC   H4S 2598   1.538   2.231   9.797  1.2091 -0.1486  0.5580
   20SAPC   C25 2599   1.388   2.132   9.681 -0.2513  0.2989  0.5180
   20SAPC   H5R 2600   1.312   2.054   9.693  0.0002  0.4252  3.6156
   20SAPC   C26 2601   1.369   2.228   9.590  0.0087  0.5629  0.2268
   20SAPC   H6R 2602   1.279   2.234   9.526 -0.9644  0.1613  1.5327
   20SAPC   C27 2603   1.459   2.344   9.574  0.3469 -0.0013 -0.2685
   20SAPC   H7R 2604   1.470   2.368   9.466 -1.8347 -1.3867 -0.8680
   20SAPC   H7S 2605   1.561   2.333   9.617 -0.3313  1.6610  1.9504
   20SAPC   C28 2606   1.401   2.466   9.646  0.9726 -0.3283  0.0901
   20SAPC   H8R 2607   1.432   2.464   9.751  1.5470 -1.9198 -0.0861
   20SAPC   C29 2608   1.348   2.576   9.599  0.2866 -0.1292  0.2999
   20SAPC   H9R 2609   1.316   2.648   9.676  1.2308  1.4442 -0.7245
   20SAPC  C210 2610   1.307   2.611   9.463  0.7115 -0.0130  0.7472
   20SAPC  H10R 2611   1.351   2.536   9.394 -0.1276  0.5352 -0.4111
   20SAPC  H10S 2612   1.352   2.710   9.439 -0.8287  0.4080 -0.5348
   20SAPC  C211 2613   1.163   2.619   9.434 -0.1799  0.0782 -0.0653
   20SAPC  H11R 2614   1.100   2.630   9.524  1.3597  0.5871  0.9978
   20SAPC  C212 2615   1.107   2.626   9.314  0.2088  0.1747  0.3668
   20SAPC  H12R 2616   0.999   2.644   9.311  0.5297  2.0832 -1.0585
   20SAPC  C213 2617   1.177   2.619   9.175  0.0440 -0.2748 -0.1844
   20SAPC  H13R 2618   1.189   2.516   9.136 -0.0866 -0.9772  1.5415
   20SAPC  H13S 2619   1.282   2.653   9.190  0.6841 -2.5021  0.7884
   20SAPC  C214 2620   1.107   2.725   9.086 -0.1834  0.1407  1.1612
   20SAPC  H14R 2621   1.012   2.770   9.121 -1.9388 -2.1003 -0.4240
   20SAPC  C215 2622   1.154   2.778   8.969  0.3960 -0.0059  0.0234
   20SAPC  H15R 2623   1.088   2.856   8.929 -2.2101 -0.8360  2.3932
   20SAPC  C216 2624   1.283   2.751   8.895 -0.1462  0.4328  0.8463
   20SAPC  H16R 2625   1.325   2.652   8.923 -1.7583 -0.3073  0.7815
   20SAPC  H16S 2626   1.361   2.828   8.913  1.5244 -1.0200  0.1393
   20SAPC  C217 2627   1.250   2.732   8.742  0.7378  0.1877 -0.3996
   20SAPC  H17R 2628   1.193   2.638   8.723 -1.3787  1.0980  1.0506
   20SAPC  H17S 2629   1.344   2.730   8.683  0.8677  0.0958 -0.1890
   20SAPC  C218 2630   1.170   2.850   8.674  0.0398  0.7061  0.1894
   20SAPC  H18R 2631   1.253   2.924   8.675  1.0562 -0.3782  2.7532
   20SAPC  H18S 2632   1.082   2.897   8.724 -2.2912 -2.1859 -0.8937
   20SAPC  C219 2633   1.121   2.819   8.536  0.3080 -0.3911  0.0239
   20SAPC  H19R 2634   1.044   2.742   8.557  0.1996 -0.1138  0.6392
   20SAPC  H19S 2635   1.204   2.779   8.473  1.0647 -0.7651  1.2150
   20SAPC  C220 2636   1.054   2.933   8.451  0.6625 -0.2040 -0.5780
   20SAPC  H20R 2637   1.017   2.883   8.359 -1.3511  2.3498 -1.2504
   20SAPC  H20S 2638   1.126   3.014   8.428  1.2339 -0.9029 -1.2985
   20SAPC  H20T 2639   0.972   2.984   8.507  0.4919  0.2904 -1.2762
   20SAPC   C33 2640   1.828   2.655   9.676 -0.3804 -0.1273  0.6064
   20SAPC   H3X 2641   1.930   2.613   9.664 -1.0894 -1.3029 -1.7733
   20SAPC   H3Y 2642   1.845   2.748   9.734  0.8114  0.5980 -0.8350
   20SAPC   C34 2643   1.767   2.682   9.542  0.2125  0.0428  0.1604
   20SAPC   H4X 2644   1.808   2.777   9.504 -0.8814  1.5405  2.4904
   20SAPC   H4Y 2645   1.658   2.695   9.560  0.0446 -1.1441  0.1127
   20SAPC   C35 2646   1.765   2.576   9.432  0.2585 -0.8995 -0.2095
   20SAPC   H5X 2647   1.744   2.474   9.470 -2.1422  0.1064  1.3503
   20SAPC   H5Y 2648   1.871   2.578   9.398  0.5757 -4.0970  0.3068
   20SAPC   C36 2649   1.677   2.596   9.307  0.2128  0.5695  0.3344
   20SAPC   H6X 2650   1.573   2.591   9.346 -0.2687  0.3992 -0.9463
   20SAPC   H6Y 2651   1.703   2.514   9.237  0.7160  0.8705  0.1567
   20SAPC   C37 2652   1.691   2.730   9.233  0.6984  0.0710 -0.0097
   20SAPC   H7X 2653   1.799   2.729   9.203  0.3363 -1.7883 -1.4821
   20SAPC   H7Y 2654   1.673   2.822   9.292  0.0298  0.0674 -0.2088
   20SAPC   C38 2655   1.625   2.727   9.102 -0.5634 -0.5726  0.6264
   20SAPC   H8X 2656   1.611   2.829   9.060  3.0602  0.6354  2.0111
   20SAPC   H8Y 2657   1.525   2.681   9.119 -1.3585  1.7307  2.8104
   20SAPC   C39 2658   1.702   2.646   8.992  0.0174 -0.5355 -0.4780
   20SAPC   H9X 2659   1.745   2.549   9.025  0.0588 -0.0797  0.8459
   20SAPC   H9Y 2660   1.794   2.705   8.972  0.7119 -1.2226  0.5976
   20SAPC  C310 2661   1.615   2.628   8.865 -0.4911  0.3135 -0.1376
   20SAPC  H10X 2662   1.570   2.730   8.855 -2.0140 -0.4441 -1.4412
   20SAPC  H10Y 2663   1.537   2.555   8.894  0.6395 -0.2673  1.5874
   20SAPC  C311 2664   1.673   2.589   8.729 -0.7094 -0.3165 -0.1258
   20SAPC  H11X 2665   1.757   2.656   8.702 -0.8119 -0.6155 -1.2348
   20SAPC  H11Y 2666   1.587   2.614   8.661 -1.4353  0.4741  1.0441
   20SAPC  C312 2667   1.693   2.439   8.720 -0.0173  0.1455 -0.6721
   20SAPC  H12X 2668   1.596   2.393   8.748 -0.4474 -0.5087 -3.0682
   20SAPC  H12Y 2669   1.762   2.409   8.803 -3.0651  2.4201  3.0392
   20SAPC  C313 2670   1.738   2.378   8.585  0.0377 -0.2674 -0.0163
   20SAPC  H13X 2671   1.651   2.397   8.520  0.6535  0.2779 -0.6907
   20SAPC  H13Y 2672   1.757   2.269   8.595  0.5598 -0.1549  0.3040
   20SAPC  C314 2673   1.862   2.455   8.524  0.6225  0.6621  0.7587
   20SAPC  H14X 2674   1.839   2.563   8.517  0.1062  0.4928 -0.2445
   20SAPC  H14Y 2675   1.871   2.414   8.422 -1.3833 -2.8821  1.8332
   20SAPC  C315 2676   1.993   2.441   8.607 -0.2136 -0.6463 -0.5342
   20SAPC  H15X 2677   2.002   2.333   8.628 -0.4185 -0.2479  1.9158
   20SAPC  H15Y 2678   1.968   2.503   8.696  3.0192  0.4586 -0.2661
   20SAPC  C316 2679   2.114   2.494   8.545 -0.3122 -0.5520  0.0592
   20SAPC  H16X 2680   2.100   2.602   8.522  0.1307 -0.2193  1.2816
   20SAPC  H16Y 2681   2.139   2.451   8.446  0.6862  2.9234 -1.3550
   20SAPC  C317 2682   2.243   2.485   8.623  0.4772  0.9728  0.3577
   20SAPC  H17X 2683   2.311   2.559   8.577  0.3333 -0.8936 -3.1749
   20SAPC  H17Y 2684   2.285   2.382   8.614  0.4137  1.1062 -2.1024
   20SAPC  C318 2685   2.231   2.519   8.774  0.6348 -0.3869  0.0089
   20SAPC  H18X 2686   2.336   2.509   8.808  0.4567  0.4069  0.8147
   20SAPC  H18Y 2687   2.166   2.452   8.835  0.0407 -0.8274 -1.0718
   20SAPC  H18Z 2688   2.208   2.626   8.792  1.7403  0.0632 -1.1006
   21SAPC     N 2689   0.170   2.693  10.852  0.1287 -0.3504  0.2625
   21SAPC   C12 2690   0.276   2.634  10.759 -0.5794 -0.3715  0.3056
   21SAPC  H12A 2691   0.242   2.550  10.699  2.8367 -0.0970 -2.2987
   21SAPC  H12B 2692   0.350   2.592  10.825 -1.3253  0.7711  1.9404
   21SAPC   C13 2693   0.058   2.759  10.775  0.7124 -0.1773 -0.0308
   21SAPC  H13A 2694   0.025   2.686  10.703  0.0497  2.7520 -2.9263
   21SAPC  H13B 2695  -0.027   2.786  10.836 -1.2243 -1.7419 -1.8707
   21SAPC  H13C 2696   0.105   2.834  10.713  0.2213 -0.1120 -0.3266
   21SAPC   C14 2697   0.109   2.586  10.932 -0.2910  0.0329 -0.5247
   21SAPC  H14A 2698   0.045   2.622  11.011  1.5775  2.0916  0.1478
   21SAPC  H14B 2699   0.058   2.510  10.875  0.3919 -0.7111 -0.1763
   21SAPC  H14C 2700   0.184   2.530  10.987  1.2344  0.3989 -2.1272
   21SAPC   C15 2701   0.236   2.796  10.936  0.0791  0.3355 -0.3848
   21SAPC  H15A 2702   0.274   2.878  10.878 -0.0659  0.7277  0.0660
   21SAPC  H15B 2703   0.161   2.843  10.998  1.8525  0.6181  1.6531
   21SAPC  H15C 2704   0.313   2.761  11.004 -3.3672 -1.2289  3.1555
   21SAPC   C11 2705   0.342   2.729  10.646  0.4125  0.5146 -0.2745
   21SAPC  H11A 2706   0.258   2.777  10.592 -0.2726 -0.2482  0.0857
   21SAPC  H11B 2707   0.395   2.658  10.578  2.8064  2.9450 -1.1278
   21SAPC     P 2708   0.437   2.976  10.667 -0.1926 -0.0078  0.4658
   21SAPC   O13 2709   0.297   3.028  10.672  0.5154 -0.4013 -0.2360
   21SAPC   O14 2710   0.537   3.048  10.748  0.5726 -0.3842 -0.4539
   21SAPC   O12 2711   0.441   2.819  10.700 -0.6921  0.0527  0.4129
   21SAPC   O11 2712   0.489   2.968  10.515 -0.0159 -0.7713  0.3719
   21SAPC    C1 2713   0.471   3.069  10.414  0.3963  0.1233 -0.3834
   21SAPC    HA 2714   0.386   3.041  10.349 -2.4993  2.4478  2.1007
   21SAPC    HB 2715   0.457   3.170  10.459  2.3939 -0.1359  0.9385
   21SAPC    C2 2716   0.600   3.083  10.328  0.2351 -0.0856 -0.3928
   21SAPC    HS 2717   0.680   3.138  10.382  0.4728 -0.1934 -0.6388
   21SAPC   O21 2718   0.563   3.141  10.201 -0.4826  0.3593  0.7569
   21SAPC   C21 2719   0.547   3.273  10.199  0.1040 -0.2248 -0.3878
   21SAPC   O22 2720   0.576   3.353  10.284 -0.3746 -0.0865 -0.4769
   21SAPC   C22 2721   0.506   3.311  10.057  0.1814 -0.1183 -0.4627
   21SAPC   H2R 2722   0.578   3.265   9.987 -0.1860 -0.3804 -0.6761
   21SAPC   H2S 2723   0.405   3.265  10.050  0.2037 -1.9099  5.3926
   21SAPC    C3 2724   0.659   2.944  10.299  0.3043 -0.2959  0.2808
   21SAPC    HX 2725   0.568   2.885  10.274  0.0780 -0.6009  1.7263
   21SAPC    HY 2726   0.693   2.912  10.400 -1.5685  1.8446  1.7205
   21SAPC   O31 2727   0.757   2.941  10.192 -0.2558  0.2072  0.3774
   21SAPC   C31 2728   0.880   2.970  10.242 -0.2509  0.1217  0.6225
   21SAPC   O32 2729   0.902   3.008  10.357 -0.4017  0.3791 -0.2819
   21SAPC   C32 2730   0.995   2.944  10.140  0.2040 -0.3659  0.0504
   21SAPC   H2X 2731   0.974   2.850  10.085  0.1798 -0.5872  0.4320
   21SAPC   H2Y 2732   1.081   2.919  10.207  2.0196  2.2616 -1.1323
   21SAPC   C23 2733   0.493   3.467  10.038 -0.9883 -0.7601  0.2219
   21SAPC   H3R 2734   0.591   3.516  10.055  1.3418 -4.4080 -1.4885
   21SAPC   H3S 2735   0.415   3.510  10.104 -0.9034 -0.0920 -0.1015
   21SAPC   C24 2736   0.481   3.491   9.883 -0.1683 -0.3914 -0.6270
   21SAPC   H4R 2737   0.400   3.419   9.859  1.2611 -2.3800  0.1983
   21SAPC   H4S 2738   0.579   3.464   9.837 -0.5429 -2.5356 -0.2600
   21SAPC   C25 2739   0.451   3.634   9.853  0.1753  0.2987 -0.3944
   21SAPC   H5R 2740   0.511   3.692   9.924  0.3004 -1.6414  1.1945
   21SAPC   C26 2741   0.369   3.694   9.770 -0.0657  0.3727 -0.4604
   21SAPC   H6R 2742   0.360   3.803   9.783 -0.0373  0.2421  0.7660
   21SAPC   C27 2743   0.277   3.636   9.667 -0.1878  0.3987  0.3144
   21SAPC   H7R 2744   0.179   3.636   9.718 -1.0625  0.2266 -1.3062
   21SAPC   H7S 2745   0.298   3.531   9.636  0.7894  0.5172  0.5292
   21SAPC   C28 2746   0.250   3.716   9.543 -0.0346 -0.1073  0.0996
   21SAPC   H8R 2747   0.250   3.825   9.559  1.7371  0.3804 -2.5497
   21SAPC   C29 2748   0.202   3.673   9.424 -0.2085 -0.2765  0.6593
   21SAPC   H9R 2749   0.190   3.748   9.345 -1.1025  1.7640  2.6098
   21SAPC  C210 2750   0.176   3.531   9.388  0.3398  0.1190 -0.2574
   21SAPC  H10R 2751   0.073   3.503   9.420  0.4925 -0.2328 -0.0650
   21SAPC  H10S 2752   0.252   3.470   9.442  1.6278  0.3719 -1.7386
   21SAPC  C211 2753   0.187   3.500   9.241 -0.0886 -0.3139 -0.1108
   21SAPC  H11R 2754   0.283   3.459   9.206 -0.6590  0.3478 -2.6571
   21SAPC  C212 2755   0.099   3.534   9.147  0.4481  0.1603 -0.0781
   21SAPC  H12R 2756   0.125   3.518   9.041  0.1454  2.0265 -0.4610
   21SAPC  C213 2757  -0.033   3.592   9.174  0.5667 -0.0917  0.3897
   21SAPC  H13R 2758  -0.056   3.585   9.282  1.4284  0.6545  0.6293
   21SAPC  H13S 2759  -0.108   3.535   9.115 -0.6483  0.4963  1.3226
   21SAPC  C214 2760  -0.045   3.737   9.141  0.7092 -0.5525 -0.1066
   21SAPC  H14R 2761   0.041   3.804   9.160 -0.6590  1.1723  0.3039
   21SAPC  C215 2762  -0.147   3.795   9.078  0.4918  0.0825 -0.4450
   21SAPC  H15R 2763  -0.144   3.905   9.067 -1.7935  0.1611 -0.6767
   21SAPC  C216 2764  -0.276   3.736   9.031  0.7518  0.1991  0.7958
   21SAPC  H16R 2765  -0.352   3.810   9.064  0.9705  0.1214  1.4951
   21SAPC  H16S 2766  -0.294   3.637   9.079 -0.7913  1.7581  3.7167
   21SAPC  C217 2767  -0.285   3.725   8.872  0.3663 -0.9855 -0.1428
   21SAPC  H17R 2768  -0.257   3.824   8.830 -0.9835  0.3260  1.8561
   21SAPC  H17S 2769  -0.394   3.709   8.859 -0.2165  2.3864 -0.3701
   21SAPC  C218 2770  -0.201   3.610   8.823  0.1616  0.1617  0.7750
   21SAPC  H18R 2771  -0.217   3.528   8.897 -1.9404  0.4977  0.7667
   21SAPC  H18S 2772  -0.094   3.638   8.811 -0.0707  0.9914  0.6078
   21SAPC  C219 2773  -0.247   3.560   8.686 -0.4062  0.2536  0.4450
   21SAPC  H19R 2774  -0.356   3.537   8.687  0.0051 -1.9637  0.6810
   21SAPC  H19S 2775  -0.192   3.469   8.654  0.4340  0.7304  0.5087
   21SAPC  C220 2776  -0.222   3.655   8.564  0.1245 -0.2569 -0.1345
   21SAPC  H20R 2777  -0.114   3.665   8.539  0.2954 -1.3750  0.0857
   21SAPC  H20S 2778  -0.256   3.756   8.594  1.1022  0.1985 -0.5505
   21SAPC  H20T 2779  -0.279   3.623   8.474 -1.5702 -2.3077  1.5469
   21SAPC   C33 2780   1.026   3.074  10.057  0.5793  0.3672  0.3453
   21SAPC   H3X 2781   1.119   3.056   9.999  0.8150 -0.2632  0.9117
   21SAPC   H3Y 2782   1.036   3.162  10.124 -0.2975  0.2993  0.5808
   21SAPC   C34 2783   0.906   3.095   9.960 -0.1300 -0.1405 -0.4274
   21SAPC   H4X 2784   0.812   3.077  10.016  0.5336 -5.1266 -0.5098
   21SAPC   H4Y 2785   0.900   3.015   9.884 -1.6956  1.7983 -2.4935
   21SAPC   C35 2786   0.918   3.227   9.878  0.0786 -0.4137  0.1619
   21SAPC   H5X 2787   1.025   3.245   9.854  0.4698 -1.8018  0.7675
   21SAPC   H5Y 2788   0.880   3.311   9.941  0.3795  0.5108 -0.8583
   21SAPC   C36 2789   0.842   3.217   9.743 -0.4805 -0.1189 -0.3301
   21SAPC   H6X 2790   0.736   3.192   9.763  0.0505 -1.1655  1.3620
   21SAPC   H6Y 2791   0.866   3.119   9.695 -2.3042 -2.0310  2.3570
   21SAPC   C37 2792   0.863   3.322   9.627 -0.2494  0.3869 -0.1590
   21SAPC   H7X 2793   0.972   3.331   9.607 -0.2614 -1.0054 -0.9477
   21SAPC   H7Y 2794   0.825   3.424   9.652  0.2403  0.4545  0.3313
   21SAPC   C38 2795   0.803   3.279   9.494 -0.2910 -0.0804  1.1899
   21SAPC   H8X 2796   0.708   3.227   9.519 -0.4336 -0.5774 -0.2794
   21SAPC   H8Y 2797   0.872   3.205   9.448  0.7315  1.1834  0.6205
   21SAPC   C39 2798   0.766   3.392   9.400  0.2699 -0.5501 -0.2670
   21SAPC   H9X 2799   0.841   3.466   9.366 -1.1352  0.2138 -1.8924
   21SAPC   H9Y 2800   0.686   3.450   9.450  0.0458 -0.9912 -0.1024
   21SAPC  C310 2801   0.719   3.332   9.266  0.1240 -1.0460  0.6758
   21SAPC  H10X 2802   0.675   3.232   9.282 -1.5894 -0.1194  2.1429
   21SAPC  H10Y 2803   0.790   3.333   9.181 -0.4636  1.6326  0.1293
   21SAPC  C311 2804   0.604   3.427   9.217 -0.7422 -0.9804  0.1323
   21SAPC  H11X 2805   0.647   3.528   9.200  0.7690 -1.5939  0.1548
   21SAPC  H11Y 2806   0.518   3.438   9.287 -2.9098  0.1473 -2.5628
   21SAPC  C312 2807   0.543   3.386   9.081  0.2783  0.7872  0.7492
   21SAPC  H12X 2808   0.619   3.389   9.000 -1.4700 -0.0675 -1.0044
   21SAPC  H12Y 2809   0.462   3.459   9.060  0.7105  0.9069 -0.5879
   21SAPC  C313 2810   0.474   3.246   9.076 -0.1820 -0.4708 -0.4795
   21SAPC  H13X 2811   0.392   3.255   9.151 -0.4370  1.6353 -0.9761
   21SAPC  H13Y 2812   0.547   3.171   9.114 -2.3360 -2.5142 -0.1132
   21SAPC  C314 2813   0.403   3.199   8.950  0.1612  1.1867 -0.4549
   21SAPC  H14X 2814   0.370   3.093   8.943 -1.5421  1.7865 -2.6616
   21SAPC  H14Y 2815   0.475   3.201   8.866  2.1731  0.9006  1.1958
   21SAPC  C315 2816   0.281   3.290   8.900  0.0257  0.0307 -0.4769
   21SAPC  H15X 2817   0.328   3.369   8.837  0.8271 -0.0473  0.0061
   21SAPC  H15Y 2818   0.243   3.340   8.992  0.1840  0.3391 -0.5753
   21SAPC  C316 2819   0.165   3.209   8.831  0.8639  0.4076 -0.3221
   21SAPC  H16X 2820   0.143   3.121   8.896  1.4707  0.9370  0.6153
   21SAPC  H16Y 2821   0.189   3.181   8.726  2.3392  1.0085 -0.1614
   21SAPC  C317 2822   0.039   3.296   8.815 -0.3589  0.3117 -0.3948
   21SAPC  H17X 2823   0.023   3.320   8.708 -0.3077 -0.3113 -0.5467
   21SAPC  H17Y 2824   0.054   3.396   8.862  3.6837 -0.0952 -0.5407
   21SAPC  C318 2825  -0.088   3.221   8.869 -0.1615  0.4309 -0.0377
   21SAPC  H18X 2826  -0.069   3.192   8.975  0.7862 -2.5601 -0.9153
   21SAPC  H18Y 2827  -0.119   3.135   8.806  0.4439 -1.3306  1.9468
   21SAPC  H18Z 2828  -0.180   3.282   8.878 -0.4685  0.0406 -0.4866
   22SAPC     N 2829   2.723   3.868  10.834 -0.0599  0.2599  0.2876
   22SAPC   C12 2830   2.636   3.985  10.802 -0.1287 -0.2829  0.4386
   22SAPC  H12A 2831   2.564   4.016  10.876 -1.3341 -1.9463  0.0347
   22SAPC  H12B 2832   2.567   3.970  10.720 -1.2229  2.5546  0.7308
   22SAPC   C13 2833   2.800   3.888  10.966 -0.1718  0.1536  0.1615
   22SAPC  H13A 2834   2.726   3.908  11.043 -0.8754 -0.1089 -0.4294
   22SAPC  H13B 2835   2.850   3.795  10.987  2.9013  0.6794 -3.6757
   22SAPC  H13C 2836   2.872   3.968  10.962 -2.7601  3.1278  4.1432
   22SAPC   C14 2837   2.629   3.746  10.863 -0.6954 -0.9685  0.7451
   22SAPC  H14A 2838   2.682   3.667  10.915 -1.0351 -0.3611  2.0426
   22SAPC  H14B 2839   2.554   3.778  10.933 -1.2838  0.5153 -0.5091
   22SAPC  H14C 2840   2.592   3.698  10.773  0.0758  1.9355 -1.2599
   22SAPC   C15 2841   2.824   3.834  10.727 -0.1340 -0.2698 -0.3380
   22SAPC  H15A 2842   2.792   3.785  10.636 -1.1001  1.8052 -1.1590
   22SAPC  H15B 2843   2.889   3.918  10.709  2.9954 -2.6778 -1.2384
   22SAPC  H15C 2844   2.897   3.760  10.758 -0.1039 -0.3377 -0.5717
   22SAPC   C11 2845   2.713   4.115  10.765  0.8866 -0.7095  0.7450
   22SAPC  H11A 2846   2.775   4.109  10.673 -0.0202  2.6447 -0.2299
   22SAPC  H11B 2847   2.783   4.154  10.842 -0.6419  1.9377  0.9236
   22SAPC     P 2848   2.540   4.281  10.843  0.1154  0.0222  0.2425
   22SAPC   O13 2849   2.435   4.191  10.890 -0.1248  0.4855  0.4835
   22SAPC   O14 2850   2.638   4.331  10.941 -0.4412 -0.5626  0.2401
   22SAPC   O12 2851   2.604   4.203  10.724 -0.5346  0.5610 -0.3510
   22SAPC   O11 2852   2.466   4.400  10.769 -0.3487 -0.1934  0.2915
   22SAPC    C1 2853   2.528   4.499  10.689 -0.4721 -0.5186 -0.2567
   22SAPC    HA 2854   2.496   4.604  10.709  1.3618  0.2460 -1.0367
   22SAPC    HB 2855   2.636   4.495  10.715 -0.6992  1.9868  1.4533
   22SAPC    C2 2856   2.510   4.483  10.532  0.3222  0.7945  0.5132
   22SAPC    HS 2857   2.400   4.475  10.518  0.5812  0.2145 -1.5205
   22SAPC   O21 2858   2.565   4.364  10.468 -0.0939  0.2596 -0.0425
   22SAPC   C21 2859   2.695   4.346  10.466  0.1799 -0.1333  0.2676
   22SAPC   O22 2860   2.778   4.417  10.515 -0.4891 -0.0519 -0.1221
   22SAPC   C22 2861   2.727   4.225  10.378  0.2343  0.6489  0.1886
   22SAPC   H2R 2862   2.835   4.209  10.396  0.4640  1.5065 -0.3726
   22SAPC   H2S 2863   2.673   4.146  10.434  1.4566  1.4780  2.6743
   22SAPC    C3 2864   2.555   4.615  10.456  0.4961 -0.6532  0.3615
   22SAPC    HX 2865   2.650   4.652  10.500  0.4406  0.0124 -0.0833
   22SAPC    HY 2866   2.491   4.699  10.488 -0.7084 -1.0233 -0.9787
   22SAPC   O31 2867   2.541   4.602  10.308  0.0823  0.1843 -0.0695
   22SAPC   C31 2868   2.621   4.675  10.229 -0.4539 -0.4515  0.6615
   22SAPC   O32 2869   2.708   4.758  10.267  0.1224  0.4980  0.0597
   22SAPC   C32 2870   2.612   4.625  10.086 -0.2103 -0.1379 -0.3460
   22SAPC   H2X 2871   2.659   4.525  10.095  3.5276  1.6525  3.6535
   22SAPC   H2Y 2872   2.684   4.685  10.025 -0.3872  0.5015  0.0693
   22SAPC   C23 2873   2.695   4.253  10.228  0.7008 -0.3000 -0.1268
   22SAPC   H3R 2874   2.766   4.333  10.197  3.0494 -2.1905  0.1034
   22SAPC   H3S 2875   2.587   4.280  10.234  0.2992 -1.9792  0.8491
   22SAPC   C24 2876   2.709   4.126  10.141 -0.5513  0.2981 -0.2749
   22SAPC   H4R 2877   2.645   4.045  10.182  1.0276 -0.4873  0.7091
   22SAPC   H4S 2878   2.811   4.088  10.163 -0.0272  2.7565  2.1389
   22SAPC   C25 2879   2.681   4.151   9.996 -0.1646 -0.3450 -0.0312
   22SAPC   H5R 2880   2.613   4.236   9.980  1.0773  0.7984  0.5516
   22SAPC   C26 2881   2.748   4.093   9.894  0.3564 -0.2504  0.0638
   22SAPC   H6R 2882   2.715   4.124   9.793 -1.2658 -0.4264  0.5060
   22SAPC   C27 2883   2.859   3.993   9.909 -0.4489  0.1704  0.5932
   22SAPC   H7R 2884   2.808   3.896   9.890 -0.6102  0.4448 -0.4448
   22SAPC   H7S 2885   2.899   3.987  10.013 -0.3378  2.2272  0.7155
   22SAPC   C28 2886   2.977   4.026   9.819  0.0648 -0.3819 -0.0329
   22SAPC   H8R 2887   3.051   4.100   9.850 -1.4904  0.2336  2.5179
   22SAPC   C29 2888   2.979   3.980   9.695  0.3324  0.0328 -0.6789
   22SAPC   H9R 2889   3.056   4.019   9.626 -0.2166 -0.1702 -1.4199
   22SAPC  C210 2890   2.884   3.886   9.626  0.7265  0.2783  0.1146
   22SAPC  H10R 2891   2.809   3.833   9.688 -0.6225  1.8814 -0.0754
   22SAPC  H10S 2892   2.949   3.810   9.579 -2.1613 -2.7079  0.5422
   22SAPC  C211 2893   2.788   3.940   9.527  0.3040 -0.0070 -0.4844
   22SAPC  H11R 2894   2.726   4.024   9.562  2.2610  0.9203  0.9734
   22SAPC  C212 2895   2.778   3.901   9.402 -0.4125 -0.3312 -0.2801
   22SAPC  H12R 2896   2.698   3.950   9.346 -0.3380 -0.1855 -0.2600
   22SAPC  C213 2897   2.853   3.791   9.327  0.0056 -0.2057 -0.6867
   22SAPC  H13R 2898   2.783   3.711   9.293  0.6577 -0.7490 -0.7642
   22SAPC  H13S 2899   2.926   3.735   9.389  0.5242 -1.0417 -2.0065
   22SAPC  C214 2900   2.921   3.852   9.207  0.9796 -0.2606  0.6764
   22SAPC  H14R 2901   2.978   3.942   9.235  1.2323 -1.3619  4.3048
   22SAPC  C215 2902   2.937   3.786   9.092  0.6277  0.2784 -0.2101
   22SAPC  H15R 2903   2.974   3.848   9.009  1.0181  0.7914  0.3368
   22SAPC  C216 2904   2.894   3.648   9.048  0.2138 -0.0324 -0.2184
   22SAPC  H16R 2905   2.882   3.576   9.131  1.7202 -0.1585 -0.0702
   22SAPC  H16S 2906   2.970   3.613   8.975 -0.6252  1.4924 -1.8866
   22SAPC  C217 2907   2.760   3.659   8.982 -0.1469 -0.0088 -0.3172
   22SAPC  H17R 2908   2.691   3.725   9.038  2.4949  1.0586  1.9066
   22SAPC  H17S 2909   2.710   3.560   8.976 -0.0755  0.0148 -1.8046
   22SAPC  C218 2910   2.763   3.698   8.840 -1.3687 -0.5784 -0.1370
   22SAPC  H18R 2911   2.828   3.638   8.772  0.2183  3.0030 -2.0249
   22SAPC  H18S 2912   2.807   3.800   8.836 -0.9316 -0.7373  0.3108
   22SAPC  C219 2913   2.625   3.706   8.770 -0.2860 -0.0591 -1.2393
   22SAPC  H19R 2914   2.591   3.601   8.759  0.6927 -0.9018  2.2979
   22SAPC  H19S 2915   2.647   3.743   8.668  1.5427 -0.6149 -1.0698
   22SAPC  C220 2916   2.513   3.782   8.846 -0.3422  0.8243  0.8685
   22SAPC  H20R 2917   2.423   3.799   8.782 -1.4812  1.8254  2.6737
   22SAPC  H20S 2918   2.550   3.872   8.899 -2.1864  0.8882  2.1126
   22SAPC  H20T 2919   2.474   3.714   8.924  0.6356  0.2338  0.8586
   22SAPC   C33 2920   2.472   4.619  10.043 -0.3348  0.9442  0.2880
   22SAPC   H3X 2921   2.422   4.718  10.046  1.3754  2.0603 -2.7654
   22SAPC   H3Y 2922   2.423   4.541  10.104 -0.6736  1.2687  0.4363
   22SAPC   C34 2923   2.462   4.572   9.891  0.0268 -0.3462 -0.0769
   22SAPC   H4X 2924   2.361   4.531   9.872 -0.1779 -0.0129  0.2820
   22SAPC   H4Y 2925   2.540   4.495   9.872 -2.2330 -2.4009 -1.4743
   22SAPC   C35 2926   2.498   4.689   9.798 -0.8494 -0.2537 -0.0707
   22SAPC   H5X 2927   2.601   4.715   9.828 -1.3892 -0.1066  1.7579
   22SAPC   H5Y 2928   2.438   4.782   9.813 -0.2107  0.2304 -0.4724
   22SAPC   C36 2929   2.486   4.647   9.645 -0.4198  0.0255  0.0056
   22SAPC   H6X 2930   2.385   4.615   9.611  0.3148 -1.3878 -0.9057
   22SAPC   H6Y 2931   2.554   4.561   9.632  0.1490  0.4374  0.1977
   22SAPC   C37 2932   2.536   4.756   9.549  0.5494 -0.2361  0.6778
   22SAPC   H7X 2933   2.632   4.798   9.586  0.9258  0.0724 -0.6230
   22SAPC   H7Y 2934   2.465   4.840   9.559  0.1842 -0.4772  0.1625
   22SAPC   C38 2935   2.561   4.694   9.410  0.8936  0.6615  0.6785
   22SAPC   H8X 2936   2.465   4.645   9.379  0.5926  0.1347  2.3296
   22SAPC   H8Y 2937   2.648   4.625   9.410  2.3746  2.4576  1.3425
   22SAPC   C39 2938   2.598   4.801   9.312 -0.2430 -0.8092  0.2158
   22SAPC   H9X 2939   2.706   4.814   9.337 -0.7994  0.6824  2.0742
   22SAPC   H9Y 2940   2.544   4.897   9.324 -1.4517 -1.5814  1.1547
   22SAPC  C310 2941   2.579   4.766   9.158 -0.2965 -0.5488  0.3202
   22SAPC  H10X 2942   2.601   4.851   9.090  1.8549 -0.6730  0.7912
   22SAPC  H10Y 2943   2.481   4.719   9.135  0.1336 -0.7056 -1.3828
   22SAPC  C311 2944   2.683   4.660   9.107  0.0786 -0.9860  0.1793
   22SAPC  H11X 2945   2.686   4.569   9.171  2.9517 -0.2814  1.1733
   22SAPC  H11Y 2946   2.779   4.715   9.110 -0.3841 -0.1955  1.2283
   22SAPC  C312 2947   2.656   4.611   8.965  0.3867 -0.5287  0.3855
   22SAPC  H12X 2948   2.750   4.591   8.910 -0.9562  2.5582 -3.4661
   22SAPC  H12Y 2949   2.612   4.696   8.910  1.1265 -0.7717 -0.6057
   22SAPC  C313 2950   2.561   4.492   8.952  0.7014  0.1143  0.3226
   22SAPC  H13X 2951   2.453   4.508   8.971  0.6972 -1.9315  2.4796
   22SAPC  H13Y 2952   2.593   4.422   9.032  1.8597 -2.1685 -1.9916
   22SAPC  C314 2953   2.567   4.418   8.818  0.0197  0.1003 -0.1503
   22SAPC  H14X 2954   2.524   4.316   8.832 -0.3826  0.3167  0.2182
   22SAPC  H14Y 2955   2.674   4.401   8.792  0.4174 -1.7742  2.3094
   22SAPC  C315 2956   2.507   4.497   8.701  0.2614  0.2935  0.4600
   22SAPC  H15X 2957   2.573   4.586   8.696  0.5871  0.1856  2.2882
   22SAPC  H15Y 2958   2.400   4.524   8.713  0.3353  0.9793 -0.3190
   22SAPC  C316 2959   2.515   4.410   8.578 -0.1157  0.2305  0.5182
   22SAPC  H16X 2960   2.439   4.330   8.584 -1.0274  1.0049 -0.2973
   22SAPC  H16Y 2961   2.611   4.355   8.576  0.2120  0.7946  0.2585
   22SAPC  C317 2962   2.487   4.493   8.452 -0.7065  0.2474 -0.3106
   22SAPC  H17X 2963   2.543   4.439   8.373  2.3365 -1.5885  2.8203
   22SAPC  H17Y 2964   2.533   4.591   8.475 -1.2089 -0.0549  2.3155
   22SAPC  C318 2965   2.336   4.497   8.427  0.0171  0.2801 -0.1719
   22SAPC  H18X 2966   2.296   4.394   8.415  0.6491  0.2246 -2.1333
   22SAPC  H18Y 2967   2.306   4.542   8.330 -0.1706  0.9880  0.2089
   22SAPC  H18Z 2968   2.281   4.554   8.505  0.7361  2.6167 -1.2675
   23SAPC     N 2969   0.101   1.308  10.898  1.1077 -0.0065 -0.0005
   23SAPC   C12 2970   0.144   1.381  10.771 -0.8821 -0.6571 -0.2011
   23SAPC  H12A 2971   0.235   1.430  10.804 -1.6753  0.8635 -0.2081
   23SAPC  H12B 2972   0.079   1.465  10.752  1.3956  0.8692 -1.8549
   23SAPC   C13 2973   0.201   1.209  10.960 -0.0169 -0.1390  0.3620
   23SAPC  H13A 2974   0.161   1.159  11.047 -0.3607 -0.4572  0.0235
   23SAPC  H13B 2975   0.225   1.127  10.894  1.2159 -1.0539  1.8805
   23SAPC  H13C 2976   0.297   1.253  10.980 -0.5333  0.7837  0.8966
   23SAPC   C14 2977   0.056   1.412  11.005 -0.2244  0.1451 -0.6021
   23SAPC  H14A 2978   0.132   1.479  11.041 -0.5730 -1.0689  2.7171
   23SAPC  H14B 2979  -0.020   1.476  10.963  0.2755  1.4637  0.4210
   23SAPC  H14C 2980   0.019   1.363  11.094 -0.8535  1.1587 -0.2894
   23SAPC   C15 2981  -0.023   1.225  10.883 -0.1959 -0.2739 -0.0250
   23SAPC  H15A 2982  -0.057   1.176  10.972 -0.4930 -1.1706 -0.6244
   23SAPC  H15B 2983  -0.099   1.278  10.827  1.1468 -0.3730 -2.0322
   23SAPC  H15C 2984   0.007   1.144  10.819  0.3649 -0.9510  1.0648
   23SAPC   C11 2985   0.163   1.285  10.651  0.5516 -0.0556  0.1102
   23SAPC  H11A 2986   0.170   1.351  10.562  1.6467 -0.9500 -0.4979
   23SAPC  H11B 2987   0.064   1.239  10.632  0.2607  1.4049 -2.2212
   23SAPC     P 2988   0.414   1.221  10.652  0.0365 -0.4131  0.1809
   23SAPC   O13 2989   0.457   1.299  10.772  0.7670  0.2999  0.3469
   23SAPC   O14 2990   0.496   1.107  10.614  0.2983 -0.0655  0.1950
   23SAPC   O12 2991   0.259   1.184  10.672  0.1239 -0.2491  0.0240
   23SAPC   O11 2992   0.406   1.313  10.524 -0.0497  0.2407 -0.5005
   23SAPC    C1 2993   0.365   1.257  10.398  0.6048  0.6400 -0.1959
   23SAPC    HA 2994   0.400   1.156  10.367 -1.9277  0.1747 -1.7697
   23SAPC    HB 2995   0.257   1.232  10.396  0.9726 -1.1313 -0.0177
   23SAPC    C2 2996   0.390   1.359  10.290 -0.0578 -0.5294 -0.4439
   23SAPC    HS 2997   0.490   1.403  10.310 -0.2749  0.2932 -1.1132
   23SAPC   O21 2998   0.287   1.464  10.290  0.5737  0.0961 -0.0840
   23SAPC   C21 2999   0.320   1.584  10.344 -0.2224  0.0930 -0.8280
   23SAPC   O22 3000   0.426   1.606  10.402 -0.4013  0.1789 -0.3378
   23SAPC   C22 3001   0.208   1.684  10.319  1.1053  0.1224  0.6318
   23SAPC   H2R 3002   0.209   1.708  10.211  1.8948 -0.2003  0.5565
   23SAPC   H2S 3003   0.109   1.638  10.342  0.1480  1.2761 -0.9904
   23SAPC    C3 3004   0.390   1.308  10.145 -0.2964 -0.0505  0.4176
   23SAPC    HX 3005   0.285   1.279  10.122 -0.2099  0.4941 -0.7300
   23SAPC    HY 3006   0.456   1.219  10.150 -2.8746 -2.1095  0.2510
   23SAPC   O31 3007   0.425   1.412  10.045 -0.2264 -0.2947 -0.2903
   23SAPC   C31 3008   0.553   1.459  10.043  0.0028  1.1186 -0.7895
   23SAPC   O32 3009   0.638   1.448  10.133  0.4577  0.4337 -0.1804
   23SAPC   C32 3010   0.570   1.529   9.909 -0.3871 -0.1274 -0.0976
   23SAPC   H2X 3011   0.490   1.606   9.905  1.3587  1.8153  0.6846
   23SAPC   H2Y 3012   0.552   1.455   9.829  1.4830 -1.4622  0.6539
   23SAPC   C23 3013   0.208   1.805  10.412 -0.1485  0.1748  1.0826
   23SAPC   H3R 3014   0.286   1.867  10.362 -2.4627 -1.3085 -5.3548
   23SAPC   H3S 3015   0.245   1.788  10.515  4.3168 -2.5895 -0.6473
   23SAPC   C24 3016   0.073   1.880  10.410 -1.1620 -0.1064 -0.1140
   23SAPC   H4R 3017  -0.012   1.822  10.453 -1.5522 -2.2149 -3.3319
   23SAPC   H4S 3018   0.036   1.869  10.305  2.5708  0.7854 -1.6543
   23SAPC   C25 3019   0.089   2.022  10.459  0.5386 -1.1336 -0.2505
   23SAPC   H5R 3020   0.080   2.035  10.567  1.0221  0.6696 -0.4043
   23SAPC   C26 3021   0.117   2.127  10.383 -0.0395 -0.0733  0.3383
   23SAPC   H6R 3022   0.134   2.226  10.427 -0.5703 -0.5223  1.5920
   23SAPC   C27 3023   0.124   2.134  10.232 -0.0081  0.6155  0.1551
   23SAPC   H7R 3024   0.023   2.120  10.188 -0.1073 -0.1028  0.5828
   23SAPC   H7S 3025   0.167   2.040  10.192  1.3308  0.6480  1.4553
   23SAPC   C28 3026   0.195   2.256  10.178 -0.7562 -0.1499 -0.6201
   23SAPC   H8R 3027   0.248   2.315  10.254 -0.8719 -0.6607 -0.1330
   23SAPC   C29 3028   0.206   2.300  10.054 -0.6312  0.1872 -0.3558
   23SAPC   H9R 3029   0.259   2.395  10.042 -1.0322  0.7849  2.0905
   23SAPC  C210 3030   0.141   2.240   9.934 -0.2076  0.0820 -0.0200
   23SAPC  H10R 3031   0.061   2.167   9.960 -0.7578  1.0058  0.9711
   23SAPC  H10S 3032   0.219   2.185   9.878 -0.7315  0.6876 -1.3931
   23SAPC  C211 3033   0.084   2.332   9.831  0.8969 -0.0753 -0.1929
   23SAPC  H11R 3034   0.026   2.420   9.862 -3.2169 -2.0466 -1.5985
   23SAPC  C212 3035   0.087   2.320   9.701 -0.2671 -0.1893  0.1907
   23SAPC  H12R 3036   0.046   2.405   9.645  0.5501 -0.7380 -1.2994
   23SAPC  C213 3037   0.149   2.209   9.615 -0.4092 -0.1895  0.4693
   23SAPC  H13R 3038   0.101   2.192   9.516  0.5072 -2.3854  0.3470
   23SAPC  H13S 3039   0.118   2.112   9.658  1.3294 -0.7577  0.5228
   23SAPC  C214 3040   0.296   2.223   9.602 -0.2165 -0.2008 -0.0379
   23SAPC  H14R 3041   0.335   2.161   9.684 -3.4104  1.2388  2.8308
   23SAPC  C215 3042   0.377   2.304   9.529  0.0968  0.1606  0.6285
   23SAPC  H15R 3043   0.486   2.287   9.525  0.0632 -0.3150  1.5263
   23SAPC  C216 3044   0.328   2.395   9.418 -0.0509 -0.4204 -0.2893
   23SAPC  H16R 3045   0.365   2.499   9.432  1.5197 -0.9755 -0.1750
   23SAPC  H16S 3046   0.219   2.405   9.437  0.1891  0.5097  0.7760
   23SAPC  C217 3047   0.347   2.331   9.275 -0.7242 -0.0527 -0.3710
   23SAPC  H17R 3048   0.274   2.249   9.263 -0.8314 -0.1285  0.7147
   23SAPC  H17S 3049   0.446   2.285   9.252 -0.7904 -0.5625  0.3431
   23SAPC  C218 3050   0.330   2.432   9.164  0.7001  0.2869 -0.0038
   23SAPC  H18R 3051   0.415   2.504   9.163 -0.0665  1.2623 -2.7343
   23SAPC  H18S 3052   0.240   2.492   9.189  0.3749 -0.9107  1.8732
   23SAPC  C219 3053   0.324   2.367   9.028  0.4049 -0.4839  0.1530
   23SAPC  H19R 3054   0.246   2.287   9.030  1.6822 -1.8948 -2.2581
   23SAPC  H19S 3055   0.414   2.306   9.004  1.6089  1.1718  0.2954
   23SAPC  C220 3056   0.317   2.455   8.915 -0.7014 -1.1188 -0.2669
   23SAPC  H20R 3057   0.221   2.505   8.890  0.2235  0.5465 -0.6748
   23SAPC  H20S 3058   0.333   2.386   8.830  0.9875  1.3868 -2.1187
   23SAPC  H20T 3059   0.405   2.523   8.927 -1.4958 -0.0226 -0.5000
   23SAPC   C33 3060   0.704   1.608   9.880  0.6759  0.5134  1.0210
   23SAPC   H3X 3061   0.790   1.547   9.917  0.9249  1.4032  1.9629
   23SAPC   H3Y 3062   0.716   1.693   9.950  2.8677  0.2323  1.0508
   23SAPC   C34 3063   0.735   1.654   9.734  0.0674  0.2492  0.1382
   23SAPC   H4X 3064   0.731   1.563   9.671  1.8172 -0.9023  1.5846
   23SAPC   H4Y 3065   0.840   1.691   9.731  1.1335 -2.3699  1.7575
   23SAPC   C35 3066   0.637   1.747   9.674 -0.2415 -0.5412  0.2603
   23SAPC   H5X 3067   0.637   1.843   9.729 -1.6842 -0.6415  0.4907
   23SAPC   H5Y 3068   0.533   1.709   9.667 -0.4395  0.1899 -1.1184
   23SAPC   C36 3069   0.677   1.794   9.532  0.3836  0.6957  0.1371
   23SAPC   H6X 3070   0.705   1.707   9.468  0.3605  0.6378  0.2050
   23SAPC   H6Y 3071   0.769   1.856   9.541  1.7794 -1.3586  0.7091
   23SAPC   C37 3072   0.571   1.880   9.467  0.0999  0.3435  1.0085
   23SAPC   H7X 3073   0.528   1.948   9.543  0.7773 -1.5921  3.2576
   23SAPC   H7Y 3074   0.495   1.805   9.436 -0.1237  1.1049 -0.3244
   23SAPC   C38 3075   0.631   1.962   9.356 -0.3533 -0.1774  0.0467
   23SAPC   H8X 3076   0.724   2.010   9.393 -0.8953 -1.0372  2.6617
   23SAPC   H8Y 3077   0.558   2.045   9.340 -0.5596 -0.0855  1.4064
   23SAPC   C39 3078   0.659   1.879   9.233 -0.3630  0.2597  0.3997
   23SAPC   H9X 3079   0.717   1.786   9.251 -0.5965 -0.1503 -0.8684
   23SAPC   H9Y 3080   0.722   1.940   9.165  1.2540 -1.6387  0.1022
   23SAPC  C310 3081   0.535   1.823   9.161  0.3933 -0.6302  0.3746
   23SAPC  H10X 3082   0.467   1.771   9.232  2.0684 -0.8085  1.9248
   23SAPC  H10Y 3083   0.569   1.746   9.089 -0.9007 -0.7194 -0.1562
   23SAPC  C311 3084   0.465   1.936   9.077  0.1162 -0.1720 -0.3916
   23SAPC  H11X 3085   0.538   2.015   9.047  0.1461  0.4884  1.2928
   23SAPC  H11Y 3086   0.384   1.983   9.137  0.3375  1.0114 -0.9771
   23SAPC  C312 3087   0.402   1.880   8.949  0.4239 -1.4580 -0.0809
   23SAPC  H12X 3088   0.357   1.782   8.976 -1.9300  0.7214  5.2663
   23SAPC  H12Y 3089   0.486   1.872   8.877 -0.4156 -1.9329 -1.0278
   23SAPC  C313 3090   0.294   1.974   8.887 -0.3326  0.6904  0.0021
   23SAPC  H13X 3091   0.335   2.074   8.862  0.1723 -0.0116 -2.2748
   23SAPC  H13Y 3092   0.206   1.988   8.953 -0.3611  0.1966  0.0697
   23SAPC  C314 3093   0.238   1.922   8.751  0.3497  0.8450 -0.7933
   23SAPC  H14X 3094   0.169   1.837   8.771  1.1418 -0.3676 -2.8488
   23SAPC  H14Y 3095   0.325   1.879   8.697 -0.5701 -2.1671 -0.0837
   23SAPC  C315 3096   0.170   2.033   8.667  0.2540 -0.1574 -0.7275
   23SAPC  H15X 3097   0.156   1.995   8.564  3.5503  0.1500 -1.4206
   23SAPC  H15Y 3098   0.251   2.109   8.661  2.2542 -2.2218 -1.5993
   23SAPC  C316 3099   0.043   2.078   8.733 -0.4689 -0.0399  0.2124
   23SAPC  H16X 3100   0.069   2.134   8.826  4.0277 -0.5816 -0.4545
   23SAPC  H16Y 3101  -0.002   1.982   8.766 -0.0022  0.1232  1.4017
   23SAPC  C317 3102  -0.049   2.174   8.658  0.3982 -0.4427 -0.7570
   23SAPC  H17X 3103  -0.065   2.126   8.559 -1.6746  0.7930 -1.0724
   23SAPC  H17Y 3104   0.004   2.270   8.638  0.9202 -0.5855 -0.0792
   23SAPC  C318 3105  -0.187   2.195   8.728  0.3144 -0.1299  0.4376
   23SAPC  H18X 3106  -0.242   2.264   8.660 -0.3853 -0.5344  0.5836
   23SAPC  H18Y 3107  -0.182   2.231   8.833 -1.6417  0.0550  0.5042
   23SAPC  H18Z 3108  -0.248   2.103   8.739 -0.6915  0.2446 -1.5362
   24SAPC     N 3109   4.610   1.462  11.080  0.1323  0.2029  0.1663
   24SAPC   C12 3110   4.601   1.325  11.150 -0.7812 -0.0432 -0.1227
   24SAPC  H12A 3111   4.555   1.258  11.078 -1.9609  1.1443 -0.5151
   24SAPC  H12B 3112   4.520   1.334  11.221 -2.0462 -0.9377 -1.3970
   24SAPC   C13 3113   4.679   1.560  11.171 -0.4993  0.5045  0.3672
   24SAPC  H13A 3114   4.613   1.582  11.253 -0.1982 -0.5735  0.9284
   24SAPC  H13B 3115   4.771   1.517  11.209 -0.0243  1.1362 -0.0433
   24SAPC  H13C 3116   4.707   1.648  11.116  0.2504 -0.4102 -0.7888
   24SAPC   C14 3117   4.699   1.444  10.964 -0.3690  0.0700  0.2576
   24SAPC  H14A 3118   4.662   1.361  10.906 -2.2095 -1.2766  3.1344
   24SAPC  H14B 3119   4.687   1.528  10.896 -0.8356 -0.7049 -0.6341
   24SAPC  H14C 3120   4.797   1.413  10.993 -0.7372 -0.1372  1.3041
   24SAPC   C15 3121   4.479   1.520  11.030 -0.6305 -0.0285  0.3065
   24SAPC  H15A 3122   4.405   1.522  11.109 -0.8354  0.6231  0.1075
   24SAPC  H15B 3123   4.492   1.615  10.980  1.1925 -0.4821 -0.1357
   24SAPC  H15C 3124   4.451   1.454  10.950  2.7629  1.3832 -2.2525
   24SAPC   C11 3125   4.727   1.260  11.211 -0.2413 -0.0179  0.3308
   24SAPC  H11A 3126   4.704   1.193  11.296  0.8919  0.1701  0.7976
   24SAPC  H11B 3127   4.795   1.335  11.256  0.6127 -1.3173  1.2440
   24SAPC     P 3128   4.935   1.122  11.139  0.4945 -0.3706  0.0487
   24SAPC   O13 3129   5.039   1.208  11.079  0.6962  0.0559 -0.5068
   24SAPC   O14 3130   4.954   1.090  11.283 -0.0398  0.0048  0.2988
   24SAPC   O12 3131   4.793   1.195  11.107  0.5434  0.4326 -0.4781
   24SAPC   O11 3132   4.922   0.981  11.060  0.1448  0.5249  0.5496
   24SAPC    C1 3133   5.023   0.929  10.969  0.6989 -0.3478 -0.1581
   24SAPC    HA 3134   5.119   0.981  10.989 -0.0658  0.7206  0.8655
   24SAPC    HB 3135   5.037   0.819  10.981  1.0995 -0.5230 -1.9349
   24SAPC    C2 3136   4.971   0.946  10.823  0.1948  0.5078 -0.3212
   24SAPC    HS 3137   5.061   0.931  10.759 -1.2430  3.3626 -3.2937
   24SAPC   O21 3138   4.918   1.079  10.802  0.2635  0.0117  0.0935
   24SAPC   C21 3139   5.015   1.166  10.765 -0.1573 -0.7988  0.1071
   24SAPC   O22 3140   5.129   1.142  10.738 -0.5386 -0.6587  0.0576
   24SAPC   C22 3141   4.956   1.307  10.755 -0.0140 -0.0941 -0.2144
   24SAPC   H2R 3142   4.926   1.333  10.859  1.2663  0.9390 -0.0861
   24SAPC   H2S 3143   5.030   1.377  10.710  1.0756 -2.0020 -1.5360
   24SAPC    C3 3144   4.874   0.832  10.787  0.1314 -0.0183  0.2268
   24SAPC    HX 3145   4.788   0.836  10.857 -0.0664  3.3898 -0.0365
   24SAPC    HY 3146   4.932   0.739  10.803  2.0799  0.1430 -4.3417
   24SAPC   O31 3147   4.829   0.843  10.655  0.0398 -0.3011 -0.4022
   24SAPC   C31 3148   4.908   0.798  10.548 -0.1161  0.5949  0.2291
   24SAPC   O32 3149   5.016   0.747  10.565 -0.2106  0.5139 -0.1253
   24SAPC   C32 3150   4.843   0.827  10.418  0.5154  0.4707  0.2734
   24SAPC   H2X 3151   4.856   0.935  10.393 -2.1838  0.2174 -3.0638
   24SAPC   H2Y 3152   4.736   0.806  10.436  0.3565  0.4571 -0.6293
   24SAPC   C23 3153   4.836   1.317  10.659  0.4304 -0.5610  0.4595
   24SAPC   H3R 3154   4.792   1.418  10.670  2.2508  0.4356 -0.7895
   24SAPC   H3S 3155   4.754   1.242  10.665  0.4689 -0.9226 -2.2905
   24SAPC   C24 3156   4.881   1.303  10.516  0.1055  0.0298 -0.0918
   24SAPC   H4R 3157   4.917   1.199  10.497  0.1709  0.3102 -1.5700
   24SAPC   H4S 3158   4.961   1.375  10.490 -1.8064  2.2152 -0.2583
   24SAPC   C25 3159   4.776   1.327  10.418 -0.5085 -0.0531 -0.1672
   24SAPC   H5R 3160   4.690   1.259  10.410 -0.0506 -0.7220  0.4708
   24SAPC   C26 3161   4.761   1.448  10.355 -0.5259  0.4225 -0.1951
   24SAPC   H6R 3162   4.669   1.462  10.296 -0.4799  3.4173  0.2817
   24SAPC   C27 3163   4.845   1.571  10.366  0.2109  0.3494  0.7908
   24SAPC   H7R 3164   4.939   1.551  10.310 -0.6751  1.2943 -1.1185
   24SAPC   H7S 3165   4.864   1.578  10.475  1.4788 -0.9106  0.6845
   24SAPC   C28 3166   4.780   1.700  10.325  0.1502  0.0663  0.1223
   24SAPC   H8R 3167   4.769   1.762  10.415  1.5314 -1.0568  1.0961
   24SAPC   C29 3168   4.762   1.742  10.199  0.4028 -0.4584  0.1425
   24SAPC   H9R 3169   4.704   1.835  10.191  0.2705 -0.2949  2.4043
   24SAPC  C210 3170   4.783   1.666  10.075  0.4211  0.3582  0.0351
   24SAPC  H10R 3171   4.682   1.631  10.043  0.2024  0.3634  0.6990
   24SAPC  H10S 3172   4.850   1.578  10.085  2.5045  1.7875 -0.7354
   24SAPC  C211 3173   4.824   1.755   9.963  0.0932  0.2300  0.7213
   24SAPC  H11R 3174   4.793   1.860   9.965 -3.0589 -0.6339  1.3051
   24SAPC  C212 3175   4.897   1.718   9.852  0.0289 -0.6569 -0.1866
   24SAPC  H12R 3176   4.915   1.793   9.774 -2.4003 -1.1356 -1.2784
   24SAPC  C213 3177   4.953   1.587   9.823  1.0318  1.0425  1.0903
   24SAPC  H13R 3178   4.974   1.521   9.910 -0.1090 -2.3896 -1.0399
   24SAPC  H13S 3179   5.052   1.594   9.774  1.2425 -0.4628  1.2495
   24SAPC  C214 3180   4.853   1.516   9.728 -0.2383  0.1601 -0.3674
   24SAPC  H14R 3181   4.757   1.501   9.779  0.9532  0.6446  2.2058
   24SAPC  C215 3182   4.877   1.474   9.600  0.3126 -0.2776  0.3134
   24SAPC  H15R 3183   4.803   1.415   9.543  0.4008 -2.4338  2.2699
   24SAPC  C216 3184   5.011   1.497   9.537 -0.1369  0.1535 -0.1692
   24SAPC  H16R 3185   5.089   1.444   9.597 -0.1655  1.7931  1.3816
   24SAPC  H16S 3186   5.031   1.606   9.534 -0.6570  0.4653  3.4582
   24SAPC  C217 3187   5.035   1.428   9.403 -0.2601 -0.2982  0.0905
   24SAPC  H17R 3188   5.127   1.481   9.368 -1.6755  1.3794 -1.3282
   24SAPC  H17S 3189   4.954   1.447   9.328 -0.9964  0.9482  1.1533
   24SAPC  C218 3190   5.068   1.277   9.410  0.0510  0.2093  0.3131
   24SAPC  H18R 3191   4.980   1.222   9.448  0.6225 -1.6487 -0.9313
   24SAPC  H18S 3192   5.140   1.271   9.494 -2.1694  0.9324  2.3707
   24SAPC  C219 3193   5.131   1.215   9.281 -0.2182 -0.0989 -0.5285
   24SAPC  H19R 3194   5.144   1.109   9.310  0.8434 -0.3409 -1.8178
   24SAPC  H19S 3195   5.239   1.241   9.270 -0.3820  0.0625 -1.8560
   24SAPC  C220 3196   5.039   1.223   9.158  0.5943  0.4484  0.4058
   24SAPC  H20R 3197   5.018   1.329   9.130 -0.2462  0.0928 -0.3705
   24SAPC  H20S 3198   4.942   1.171   9.175 -0.5581  2.1150 -0.6794
   24SAPC  H20T 3199   5.094   1.174   9.075  0.6088  1.9847 -0.5332
   24SAPC   C33 3200   4.907   0.732  10.307  0.4563  0.0891  1.0842
   24SAPC   H3X 3201   4.895   0.631  10.352 -2.9113  0.8006  2.0817
   24SAPC   H3Y 3202   5.010   0.755  10.275  0.1226 -0.5323 -0.4998
   24SAPC   C34 3203   4.831   0.729  10.175 -0.1936  0.1807 -0.1295
   24SAPC   H4X 3204   4.844   0.832  10.134  1.0256 -0.4609 -1.4310
   24SAPC   H4Y 3205   4.724   0.707  10.193 -0.4902 -0.2651 -2.2166
   24SAPC   C35 3206   4.871   0.617  10.078  0.4852  0.8720  0.4433
   24SAPC   H5X 3207   4.847   0.524  10.132 -3.7979  1.0793 -0.7492
   24SAPC   H5Y 3208   4.981   0.617  10.060  0.4394 -1.9741 -0.2647
   24SAPC   C36 3209   4.805   0.638   9.943 -0.0721 -0.3698  0.9130
   24SAPC   H6X 3210   4.864   0.713   9.887  0.8513 -3.4136 -2.5589
   24SAPC   H6Y 3211   4.703   0.682   9.943 -0.0587 -0.3323 -0.0579
   24SAPC   C37 3212   4.813   0.518   9.856  0.4054 -0.5018  0.1546
   24SAPC   H7X 3213   4.733   0.445   9.882 -0.0289  0.2863  1.0848
   24SAPC   H7Y 3214   4.911   0.468   9.875 -0.3673 -1.8641  0.7099
   24SAPC   C38 3215   4.815   0.548   9.706  0.0819  0.4657 -0.0639
   24SAPC   H8X 3216   4.902   0.612   9.681 -0.3265  1.1938  0.3628
   24SAPC   H8Y 3217   4.724   0.608   9.683  0.5886  1.5581  0.7507
   24SAPC   C39 3218   4.826   0.427   9.613 -0.1297  0.5116  0.3640
   24SAPC   H9X 3219   4.729   0.374   9.601  1.0984 -1.2861 -3.0447
   24SAPC   H9Y 3220   4.897   0.353   9.656 -1.0687  0.3558  1.7037
   24SAPC  C310 3221   4.878   0.465   9.469 -0.5654  0.6392 -0.0593
   24SAPC  H10X 3222   4.962   0.536   9.480  0.8552 -0.8495 -0.8922
   24SAPC  H10Y 3223   4.792   0.515   9.421 -0.0077 -0.0621 -1.8516
   24SAPC  C311 3224   4.909   0.354   9.365  0.1871 -0.1376  0.1586
   24SAPC  H11X 3225   4.820   0.287   9.354 -1.4586  2.0925 -1.0469
   24SAPC  H11Y 3226   4.973   0.289   9.428  2.4717 -0.4572 -2.3535
   24SAPC  C312 3227   4.981   0.404   9.236  0.0074 -0.7421 -0.2789
   24SAPC  H12X 3228   5.078   0.433   9.281 -0.0896 -2.6478  1.3050
   24SAPC  H12Y 3229   4.940   0.492   9.182 -0.0690 -1.1978 -0.9722
   24SAPC  C313 3230   5.008   0.307   9.120 -0.3236  0.1393 -1.1432
   24SAPC  H13X 3231   4.909   0.279   9.078 -0.1341  1.0374 -2.2466
   24SAPC  H13Y 3232   5.051   0.213   9.160 -2.5495 -0.6626 -0.4944
   24SAPC  C314 3233   5.107   0.375   9.021 -0.4384  0.0489  0.3278
   24SAPC  H14X 3234   5.199   0.415   9.069  0.3655 -2.4369  1.0027
   24SAPC  H14Y 3235   5.054   0.465   8.985  0.7112  1.1562  1.3417
   24SAPC  C315 3236   5.150   0.287   8.907 -0.2102  0.4837  0.0506
   24SAPC  H15X 3237   5.067   0.253   8.841 -0.0194 -1.9185  0.9639
   24SAPC  H15Y 3238   5.198   0.197   8.952 -1.2169 -0.5824 -0.9405
   24SAPC  C316 3239   5.245   0.349   8.817 -0.1729 -0.1528 -0.6076
   24SAPC  H16X 3240   5.281   0.273   8.744  0.8309  1.9263 -2.4017
   24SAPC  H16Y 3241   5.330   0.381   8.880  0.0702  0.0582 -1.0387
   24SAPC  C317 3242   5.178   0.462   8.736 -0.2219 -0.1653 -0.0655
   24SAPC  H17X 3243   5.256   0.522   8.684 -0.6274  0.0779 -0.3935
   24SAPC  H17Y 3244   5.141   0.533   8.813  1.5169  0.0835  0.5852
   24SAPC  C318 3245   5.070   0.430   8.635 -0.4333  0.7614 -0.1829
   24SAPC  H18X 3246   5.039   0.525   8.585 -1.6885  0.1647 -0.5778
   24SAPC  H18Y 3247   4.985   0.379   8.686  0.0177 -0.7778 -0.9472
   24SAPC  H18Z 3248   5.104   0.345   8.573 -0.5166 -0.3084  1.1936
   25SAPC     N 3249   0.071   5.296   6.022 -1.3160  0.8456  0.5900
   25SAPC   C12 3250   0.166   5.382   5.928 -0.6469 -0.1388 -0.0735
   25SAPC  H12A 3251   0.112   5.450   5.863 -1.4602  0.4335  1.1670
   25SAPC  H12B 3252   0.219   5.326   5.852  0.8487  0.5636  0.4111
   25SAPC   C13 3253  -0.037   5.224   5.939  0.2098 -0.1627 -0.4580
   25SAPC  H13A 3254  -0.008   5.130   5.896 -0.2501 -0.1642 -0.7781
   25SAPC  H13B 3255  -0.118   5.204   6.008  2.5597  0.6306  2.7708
   25SAPC  H13C 3256  -0.072   5.291   5.862 -0.2386 -0.2501 -0.3363
   25SAPC   C14 3257   0.165   5.198   6.092 -0.1924  0.3480 -0.5016
   25SAPC  H14A 3258   0.244   5.250   6.145  2.3377 -2.3884 -1.2901
   25SAPC  H14B 3259   0.107   5.157   6.174 -0.2410 -1.1013 -1.2337
   25SAPC  H14C 3260   0.201   5.120   6.026  2.7524  0.9814  0.1881
   25SAPC   C15 3261   0.011   5.383   6.122  0.2010 -0.0669 -0.5126
   25SAPC  H15A 3262  -0.051   5.455   6.071 -3.1352 -1.4914  1.2254
   25SAPC  H15B 3263  -0.060   5.327   6.181 -0.8776 -1.1349 -2.7142
   25SAPC  H15C 3264   0.077   5.431   6.193 -0.1756  0.7007 -0.6660
   25SAPC   C11 3265   0.270   5.475   5.997  0.1992 -0.6437  0.2078
   25SAPC  H11A 3266   0.228   5.550   6.068  3.6567  1.0354  0.6962
   25SAPC  H11B 3267   0.301   5.543   5.914 -2.6791  2.5350  1.4958
   25SAPC     P 3268   0.517   5.451   6.083 -0.4155  0.4324 -0.2548
   25SAPC   O13 3269   0.591   5.344   6.157  0.3389  0.2854  0.1208
   25SAPC   O14 3270   0.579   5.505   5.963  0.0280 -0.0978  0.1447
   25SAPC   O12 3271   0.378   5.398   6.051 -0.0833  0.2091 -0.2668
   25SAPC   O11 3272   0.479   5.569   6.190 -0.3063 -0.7822 -0.1212
   25SAPC    C1 3273   0.405   5.537   6.311 -0.1367  0.1303 -0.1838
   25SAPC    HA 3274   0.301   5.503   6.290 -1.3459  3.0567  0.5630
   25SAPC    HB 3275   0.463   5.458   6.363  1.6502 -1.6673 -4.4589
   25SAPC    C2 3276   0.399   5.662   6.407  0.5755  0.8111 -0.6508
   25SAPC    HS 3277   0.329   5.742   6.375  1.2929  1.7345  0.0450
   25SAPC   O21 3278   0.533   5.720   6.420 -0.2124  0.7582  0.6217
   25SAPC   C21 3279   0.536   5.828   6.482 -0.0254  0.0100 -0.0982
   25SAPC   O22 3280   0.432   5.891   6.515 -0.2972 -0.0280  0.2429
   25SAPC   C22 3281   0.680   5.859   6.519  0.3665  1.0405  0.0598
   25SAPC   H2R 3282   0.742   5.772   6.488  0.4057  1.2505 -0.4498
   25SAPC   H2S 3283   0.715   5.930   6.442 -0.1716  0.8837 -0.3329
   25SAPC    C3 3284   0.342   5.613   6.540 -0.6801 -0.6204 -0.6312
   25SAPC    HX 3285   0.235   5.588   6.523 -1.2033  0.4582  0.8313
   25SAPC    HY 3286   0.340   5.701   6.608  0.2400  0.1622 -1.5881
   25SAPC   O31 3287   0.422   5.511   6.594 -0.3571 -0.1369  0.3045
   25SAPC   C31 3288   0.365   5.451   6.698 -0.4632 -0.0852  0.1019
   25SAPC   O32 3289   0.261   5.490   6.741  0.3334  0.2223 -0.7352
   25SAPC   C32 3290   0.460   5.351   6.764  0.4312  0.0448  0.0573
   25SAPC   H2X 3291   0.534   5.408   6.825  1.3332 -0.8190 -0.1927
   25SAPC   H2Y 3292   0.515   5.297   6.683 -0.2747  0.0871 -0.4526
   25SAPC   C23 3293   0.700   5.880   6.672 -0.3235 -0.6426  0.2499
   25SAPC   H3R 3294   0.612   5.861   6.738  0.5210 -1.4740  1.1618
   25SAPC   H3S 3295   0.739   5.983   6.684 -0.8795 -0.1538 -1.7971
   25SAPC   C24 3296   0.819   5.784   6.722  0.4519 -0.0579  0.0711
   25SAPC   H4R 3297   0.831   5.798   6.831  1.0144 -1.5005  0.2080
   25SAPC   H4S 3298   0.920   5.810   6.684  0.8492  0.1903  1.2592
   25SAPC   C25 3299   0.794   5.639   6.695  0.2768  0.5790 -0.1499
   25SAPC   H5R 3300   0.761   5.612   6.593  0.2835  0.4254 -0.1121
   25SAPC   C26 3301   0.791   5.539   6.781  0.3795 -0.1432  0.3728
   25SAPC   H6R 3302   0.790   5.442   6.728  0.4394 -1.3141  2.4081
   25SAPC   C27 3303   0.834   5.545   6.926  0.2342  0.3056 -0.1856
   25SAPC   H7R 3304   0.759   5.608   6.979 -0.0830  0.5699 -0.9280
   25SAPC   H7S 3305   0.931   5.598   6.936 -0.6184  1.7832  0.6901
   25SAPC   C28 3306   0.854   5.402   6.972  0.1770 -0.5070  0.1134
   25SAPC   H8R 3307   0.924   5.347   6.908  0.5388  2.1778 -1.9814
   25SAPC   C29 3308   0.814   5.345   7.088 -0.4088 -0.4538  0.1744
   25SAPC   H9R 3309   0.836   5.238   7.101 -2.2938 -1.0468 -1.1740
   25SAPC  C210 3310   0.743   5.408   7.206  0.1492 -0.2894  0.0561
   25SAPC  H10R 3311   0.715   5.513   7.181 -2.7695 -1.3280 -1.3915
   25SAPC  H10S 3312   0.826   5.407   7.281  0.0314  0.8400  0.2297
   25SAPC  C211 3313   0.623   5.330   7.265  0.3307  1.1675 -0.5546
   25SAPC  H11R 3314   0.547   5.309   7.188 -0.7199 -0.9456  0.9783
   25SAPC  C212 3315   0.600   5.291   7.391 -0.0010 -0.9378  0.0886
   25SAPC  H12R 3316   0.524   5.215   7.412 -1.0845 -0.2796 -1.2447
   25SAPC  C213 3317   0.686   5.326   7.513  0.3206 -0.3503  0.7296
   25SAPC  H13R 3318   0.746   5.420   7.508 -1.5883  0.9954  1.7157
   25SAPC  H13S 3319   0.767   5.251   7.517 -0.2172 -0.9131  1.1317
   25SAPC  C214 3320   0.618   5.335   7.649  0.2279  0.2055 -0.0400
   25SAPC  H14R 3321   0.610   5.439   7.685  0.8807  0.2322  0.0413
   25SAPC  C215 3322   0.581   5.231   7.712  0.6147 -0.3708  0.4172
   25SAPC  H15R 3323   0.543   5.247   7.814  3.7179 -0.6942  1.7191
   25SAPC  C216 3324   0.588   5.087   7.672  0.3160  0.9456  0.6776
   25SAPC  H16R 3325   0.662   5.067   7.592 -1.9724 -2.2331 -0.8939
   25SAPC  H16S 3326   0.488   5.050   7.638  0.3224 -1.4316  2.9437
   25SAPC  C217 3327   0.642   5.009   7.790  0.0226  0.1362 -0.0368
   25SAPC  H17R 3328   0.729   5.067   7.828  0.1019 -0.0642  0.0861
   25SAPC  H17S 3329   0.682   4.915   7.747  0.8852  0.8815 -0.9118
   25SAPC  C218 3330   0.534   4.965   7.894  0.5026 -0.5404  0.1994
   25SAPC  H18R 3331   0.474   4.888   7.842 -0.6340  1.2672 -1.3133
   25SAPC  H18S 3332   0.479   5.056   7.926  0.8342  1.2154 -3.6091
   25SAPC  C219 3333   0.586   4.893   8.021 -0.4484  0.0255  0.6086
   25SAPC  H19R 3334   0.636   4.964   8.090 -1.3216  0.7305  0.5307
   25SAPC  H19S 3335   0.654   4.820   7.972  0.4412  1.7357 -0.8196
   25SAPC  C220 3336   0.480   4.819   8.106 -0.6734 -0.5032  0.5097
   25SAPC  H20R 3337   0.439   4.731   8.052  0.3346 -0.3385 -0.5628
   25SAPC  H20S 3338   0.395   4.883   8.139  0.3154  0.3325  1.5130
   25SAPC  H20T 3339   0.516   4.777   8.202 -0.3548  2.8274  1.9782
   25SAPC   C33 3340   0.387   5.252   6.857 -0.0276  0.6998 -0.4296
   25SAPC   H3X 3341   0.320   5.195   6.789  2.9517 -3.0915 -0.5418
   25SAPC   H3Y 3342   0.318   5.294   6.933 -0.8462 -1.5844  0.1894
   25SAPC   C34 3343   0.474   5.149   6.925 -0.5407  0.4711 -0.0044
   25SAPC   H4X 3344   0.556   5.194   6.985 -1.6626  2.3980  0.1902
   25SAPC   H4Y 3345   0.504   5.075   6.848 -0.4742 -0.8380  1.2425
   25SAPC   C35 3346   0.397   5.069   7.032  0.2835 -0.5840  0.4168
   25SAPC   H5X 3347   0.303   5.025   6.993 -0.2326  2.1329 -1.7642
   25SAPC   H5Y 3348   0.365   5.128   7.121  0.8545  0.6993 -0.2058
   25SAPC   C36 3349   0.481   4.959   7.091  0.0403  0.3276 -0.6909
   25SAPC   H6X 3350   0.574   4.999   7.137 -0.1709  0.2608 -0.2018
   25SAPC   H6Y 3351   0.509   4.879   7.020 -0.4872 -2.0427  1.6213
   25SAPC   C37 3352   0.426   4.876   7.206  0.7238 -0.1722  0.3657
   25SAPC   H7X 3353   0.476   4.777   7.220  0.5725  0.2243  5.7089
   25SAPC   H7Y 3354   0.319   4.872   7.176  1.2318  2.3646 -2.2517
   25SAPC   C38 3355   0.429   4.939   7.344 -0.2960 -0.0436 -0.3781
   25SAPC   H8X 3356   0.419   5.048   7.324 -0.2671 -0.1510 -0.9975
   25SAPC   H8Y 3357   0.528   4.929   7.392 -1.3337  2.8822  2.8017
   25SAPC   C39 3358   0.325   4.892   7.441 -0.2653 -0.0982  0.2853
   25SAPC   H9X 3359   0.223   4.911   7.402  0.8266  2.4554 -1.5735
   25SAPC   H9Y 3360   0.334   4.959   7.528  1.2946 -2.6424  2.2364
   25SAPC  C310 3361   0.332   4.738   7.487 -0.0506  0.2903  0.1921
   25SAPC  H10X 3362   0.422   4.742   7.553 -1.8701 -2.7221  3.1669
   25SAPC  H10Y 3363   0.355   4.669   7.404 -0.6882  0.7332 -0.3564
   25SAPC  C311 3364   0.208   4.681   7.556 -0.2050  0.9193 -0.3231
   25SAPC  H11X 3365   0.216   4.570   7.551  0.8636  0.8704  1.4044
   25SAPC  H11Y 3366   0.115   4.691   7.496 -2.7527 -2.0595  2.7534
   25SAPC  C312 3367   0.182   4.751   7.689 -0.2528  0.1867 -0.2007
   25SAPC  H12X 3368   0.194   4.861   7.678  0.2858  0.0444 -1.2106
   25SAPC  H12Y 3369   0.262   4.723   7.761 -0.7606  0.6039  0.5350
   25SAPC  C313 3370   0.051   4.719   7.759  0.1763  0.6802 -0.3258
   25SAPC  H13X 3371   0.044   4.608   7.762  3.3578  0.4037  0.1884
   25SAPC  H13Y 3372  -0.039   4.741   7.698  0.0522  1.6401  0.1862
   25SAPC  C314 3373   0.029   4.792   7.883  0.7577  0.2724 -0.5788
   25SAPC  H14X 3374  -0.067   4.762   7.931  0.9800 -1.2544 -1.0298
   25SAPC  H14Y 3375   0.030   4.902   7.867  0.0917  0.6843  1.8018
   25SAPC  C315 3376   0.130   4.762   8.002  0.5685 -0.2928  0.3018
   25SAPC  H15X 3377   0.095   4.826   8.085  1.6682 -0.6907  1.0921
   25SAPC  H15Y 3378   0.226   4.798   7.959  1.3215 -1.8388  0.6006
   25SAPC  C316 3379   0.133   4.621   8.044 -0.5337 -0.1979 -0.7619
   25SAPC  H16X 3380   0.207   4.564   7.982 -0.5162  0.6702 -1.5585
   25SAPC  H16Y 3381   0.029   4.583   8.038 -1.1213  1.5384 -2.2850
   25SAPC  C317 3382   0.175   4.624   8.194 -0.6895  0.2028  0.0475
   25SAPC  H17X 3383   0.076   4.638   8.243 -0.3683  1.4315  0.3745
   25SAPC  H17Y 3384   0.242   4.705   8.227 -0.0412 -0.4665  0.3903
   25SAPC  C318 3385   0.254   4.498   8.248  0.3966  0.6302  0.1288
   25SAPC  H18X 3386   0.256   4.507   8.359  0.9060  1.5886  0.0595
   25SAPC  H18Y 3387   0.361   4.508   8.220  0.7101 -1.7190  0.3329
   25SAPC  H18Z 3388   0.211   4.407   8.202  1.0668 -0.2479  1.1818
   26SAPC     N 3389   0.703   1.685   5.806 -0.2495 -0.6091  0.4124
   26SAPC   C12 3390   0.716   1.776   5.920 -0.4842  0.3722  0.4046
   26SAPC  H12A 3391   0.620   1.817   5.950 -2.0965 -1.8384 -1.3655
   26SAPC  H12B 3392   0.782   1.856   5.890  1.0717 -0.4189  1.6196
   26SAPC   C13 3393   0.647   1.752   5.686  0.4087  0.4563  0.2152
   26SAPC  H13A 3394   0.625   1.677   5.611 -1.0927 -0.1565  1.2232
   26SAPC  H13B 3395   0.550   1.795   5.705 -0.4551 -1.8165  1.3656
   26SAPC  H13C 3396   0.713   1.823   5.638  1.1716 -0.4209 -0.0794
   26SAPC   C14 3397   0.835   1.619   5.769  0.4055  0.4842 -0.0090
   26SAPC  H14A 3398   0.907   1.696   5.746  0.1695 -0.1602 -3.4118
   26SAPC  H14B 3399   0.873   1.562   5.852 -0.5237 -0.2168 -0.0549
   26SAPC  H14C 3400   0.826   1.557   5.681  1.3719  0.2331  0.0634
   26SAPC   C15 3401   0.615   1.569   5.837  0.5309 -0.2629 -1.0640
   26SAPC  H15A 3402   0.511   1.591   5.823  0.1371 -0.1370  1.5727
   26SAPC  H15B 3403   0.638   1.486   5.772  3.4707  1.4920 -2.4961
   26SAPC  H15C 3404   0.630   1.544   5.942  1.7013 -2.0688 -1.6076
   26SAPC   C11 3405   0.776   1.697   6.052  0.2845 -1.0803  0.1998
   26SAPC  H11A 3406   0.817   1.786   6.104  1.3615 -0.2225 -1.9796
   26SAPC  H11B 3407   0.873   1.644   6.041 -0.0619 -1.3393 -2.2606
   26SAPC     P 3408   0.591   1.662   6.237 -0.2856  0.2587  0.0996
   26SAPC   O13 3409   0.504   1.781   6.207  0.8107  0.3451  0.0822
   26SAPC   O14 3410   0.527   1.537   6.282  0.2533 -0.0772  0.2882
   26SAPC   O12 3411   0.686   1.620   6.120  0.6691 -0.2987  0.3394
   26SAPC   O11 3412   0.696   1.711   6.351 -0.4040  0.3577  0.1437
   26SAPC    C1 3413   0.814   1.632   6.377  0.4884  0.2665 -0.4456
   26SAPC    HA 3414   0.861   1.583   6.290  2.1396 -2.0659  1.6058
   26SAPC    HB 3415   0.894   1.702   6.411  0.4765 -0.5018  1.2718
   26SAPC    C2 3416   0.786   1.516   6.477 -0.2523  0.0252 -0.2416
   26SAPC    HS 3417   0.704   1.460   6.429  0.8791 -1.2627 -0.7257
   26SAPC   O21 3418   0.752   1.584   6.602  0.4462 -0.2077 -0.1868
   26SAPC   C21 3419   0.659   1.536   6.669  0.6273  1.1271 -0.2805
   26SAPC   O22 3420   0.597   1.429   6.645  0.1134 -0.2710  0.6573
   26SAPC   C22 3421   0.618   1.618   6.788  0.4036 -0.0838 -0.6752
   26SAPC   H2R 3422   0.711   1.639   6.844  0.6769  1.7178 -1.7181
   26SAPC   H2S 3423   0.577   1.712   6.745 -0.9752 -0.8928 -1.2067
   26SAPC    C3 3424   0.894   1.415   6.513  0.1708 -0.4509  0.5919
   26SAPC    HX 3425   0.947   1.367   6.428 -0.0427  0.0189  0.1930
   26SAPC    HY 3426   0.838   1.328   6.556 -0.9174 -0.3045 -0.4696
   26SAPC   O31 3427   0.981   1.463   6.616 -0.0234 -0.4933 -0.2074
   26SAPC   C31 3428   1.084   1.522   6.566  0.2272  0.1079  0.2052
   26SAPC   O32 3429   1.121   1.530   6.451 -0.4788  0.0197 -0.2440
   26SAPC   C32 3430   1.169   1.583   6.674 -0.4248  0.3837 -0.6060
   26SAPC   H2X 3431   1.267   1.530   6.665  0.3287  2.1042 -3.7900
   26SAPC   H2Y 3432   1.133   1.553   6.775  0.6474  1.7235  0.2199
   26SAPC   C23 3433   0.507   1.567   6.885  0.5553 -0.1880  0.7578
   26SAPC   H3R 3434   0.542   1.471   6.929 -1.5547 -0.9028  0.9599
   26SAPC   H3S 3435   0.416   1.548   6.824  0.0097  0.6221  1.3143
   26SAPC   C24 3436   0.461   1.664   6.996 -0.1432 -0.4395  0.1073
   26SAPC   H4R 3437   0.381   1.617   7.058  1.4207 -1.1633  1.6804
   26SAPC   H4S 3438   0.418   1.752   6.944  0.7905 -0.2915 -0.4388
   26SAPC   C25 3439   0.563   1.723   7.086  0.0089  0.5210 -0.2251
   26SAPC   H5R 3440   0.624   1.797   7.032  0.7304 -1.2383 -1.9325
   26SAPC   C26 3441   0.587   1.690   7.220 -0.6827  0.5663  0.5660
   26SAPC   H6R 3442   0.661   1.750   7.274  0.4733 -1.9193  1.8773
   26SAPC   C27 3443   0.537   1.579   7.307 -0.0145 -0.1877  0.5912
   26SAPC   H7R 3444   0.613   1.498   7.303 -2.9205 -3.0716 -3.1811
   26SAPC   H7S 3445   0.442   1.532   7.276 -0.1982  1.3326 -1.3636
   26SAPC   C28 3446   0.513   1.627   7.445 -0.5641 -1.1816  0.1712
   26SAPC   H8R 3447   0.439   1.708   7.453 -0.8295 -1.5263  1.3166
   26SAPC   C29 3448   0.574   1.587   7.562 -0.5823  0.1772  0.1513
   26SAPC   H9R 3449   0.544   1.639   7.654 -1.1996  0.6785 -0.3242
   26SAPC  C210 3450   0.689   1.490   7.581  0.2295  0.0222 -0.1562
   26SAPC  H10R 3451   0.716   1.435   7.489  0.3453  1.1988 -0.8476
   26SAPC  H10S 3452   0.676   1.415   7.662  1.2922  1.0982  1.0693
   26SAPC  C211 3453   0.803   1.584   7.617  0.3786 -0.1517  0.1812
   26SAPC  H11R 3454   0.825   1.655   7.536  1.7511 -1.4077 -0.5984
   26SAPC  C212 3455   0.886   1.562   7.720 -0.1418 -0.1049  0.2148
   26SAPC  H12R 3456   0.971   1.631   7.733  0.6580 -1.0650  0.2097
   26SAPC  C213 3457   0.889   1.447   7.811  0.3237 -0.1673 -0.3035
   26SAPC  H13R 3458   0.986   1.434   7.863 -0.3991 -4.5472  0.3479
   26SAPC  H13S 3459   0.884   1.349   7.758  0.3525  0.8811 -2.3462
   26SAPC  C214 3460   0.780   1.454   7.920  0.0034  0.1402  0.6009
   26SAPC  H14R 3461   0.677   1.447   7.882  0.3388 -0.9768 -0.1685
   26SAPC  C215 3462   0.808   1.455   8.050  0.9526  0.0343  0.0096
   26SAPC  H15R 3463   0.721   1.474   8.116 -0.2680 -1.0826 -1.2259
   26SAPC  C216 3464   0.945   1.445   8.112 -0.3326 -0.6026 -0.0774
   26SAPC  H16R 3465   1.018   1.511   8.061 -0.0263 -1.5813 -0.9571
   26SAPC  H16S 3466   0.985   1.344   8.087  3.0052  0.3739  0.8120
   26SAPC  C217 3467   0.941   1.468   8.262 -1.4631 -0.7419 -0.4188
   26SAPC  H17R 3468   0.873   1.397   8.312 -1.7419 -0.1598  0.0446
   26SAPC  H17S 3469   0.913   1.571   8.294 -1.4538 -1.4354  2.0734
   26SAPC  C218 3470   1.074   1.423   8.329  0.4314  0.9172 -0.2777
   26SAPC  H18R 3471   1.106   1.333   8.271  2.3035  1.9764 -0.9464
   26SAPC  H18S 3472   1.045   1.396   8.433 -0.4697  0.2226 -0.6937
   26SAPC  C219 3473   1.201   1.512   8.339  0.1623 -0.0352 -1.1212
   26SAPC  H19R 3474   1.225   1.574   8.249  2.9199 -1.3873 -1.4437
   26SAPC  H19S 3475   1.290   1.449   8.360 -0.5821 -0.2060  1.9900
   26SAPC  C220 3476   1.200   1.596   8.464 -0.4201 -0.3355 -0.2359
   26SAPC  H20R 3477   1.295   1.650   8.477 -0.5879 -0.3137  1.0528
   26SAPC  H20S 3478   1.184   1.532   8.554  1.3241  1.5812  1.5271
   26SAPC  H20T 3479   1.115   1.668   8.458  1.0231  1.3240 -1.6059
   26SAPC   C33 3480   1.177   1.737   6.676 -0.5012  0.0831 -0.6539
   26SAPC   H3X 3481   1.181   1.771   6.570 -0.0196 -3.3522 -1.8963
   26SAPC   H3Y 3482   1.272   1.764   6.727 -1.5119  2.3123  0.1202
   26SAPC   C34 3483   1.066   1.805   6.757  0.1335  0.1541 -0.2023
   26SAPC   H4X 3484   0.967   1.763   6.732  0.3812 -0.5451 -0.0500
   26SAPC   H4Y 3485   1.054   1.909   6.720 -0.9166 -0.7391 -2.5704
   26SAPC   C35 3486   1.083   1.816   6.911  0.4670 -0.4324 -0.1233
   26SAPC   H5X 3487   1.180   1.859   6.942 -0.0503  2.0343 -1.6617
   26SAPC   H5Y 3488   1.074   1.710   6.944  0.1245  0.2054  1.9329
   26SAPC   C36 3489   0.959   1.900   6.966  0.8948  0.5203 -0.6461
   26SAPC   H6X 3490   0.873   1.857   6.910 -0.5258  1.5215  0.6866
   26SAPC   H6Y 3491   0.966   2.009   6.945 -1.2317  1.0134  0.8791
   26SAPC   C37 3492   0.934   1.883   7.111  0.5872  0.3887  0.0467
   26SAPC   H7X 3493   0.936   1.773   7.127 -0.1341  0.5008  1.0287
   26SAPC   H7Y 3494   0.830   1.917   7.132  1.5155  3.3500  0.2518
   26SAPC   C38 3495   1.032   1.951   7.205  0.2298 -0.1733 -0.2880
   26SAPC   H8X 3496   1.031   2.062   7.200 -1.9399 -0.0435  1.5762
   26SAPC   H8Y 3497   1.131   1.903   7.188 -0.4291 -1.9972  0.8187
   26SAPC   C39 3498   0.991   1.917   7.349  0.6115  0.6868 -0.0647
   26SAPC   H9X 3499   0.988   1.807   7.359 -2.1065  0.6651 -0.4096
   26SAPC   H9Y 3500   0.887   1.949   7.369  0.4002 -0.4429  0.7007
   26SAPC  C310 3501   1.090   1.961   7.458 -0.3354 -0.4439 -0.3539
   26SAPC  H10X 3502   1.094   2.072   7.463  1.2185 -0.5426  2.5856
   26SAPC  H10Y 3503   1.184   1.920   7.416 -1.5777 -2.0474 -1.6803
   26SAPC  C311 3504   1.059   1.909   7.598 -0.1658 -0.4346 -0.0163
   26SAPC  H11X 3505   1.067   1.798   7.594 -1.3381 -0.6265  1.9661
   26SAPC  H11Y 3506   0.952   1.930   7.618 -0.7184 -1.5204 -1.5641
   26SAPC  C312 3507   1.140   1.962   7.712  0.1081  0.5034  0.1284
   26SAPC  H12X 3508   1.151   2.072   7.712  0.3173  0.5160 -1.4775
   26SAPC  H12Y 3509   1.247   1.933   7.714  0.6029  2.2543  1.9284
   26SAPC  C313 3510   1.074   1.928   7.850 -0.2682 -0.0781  0.2958
   26SAPC  H13X 3511   1.059   1.818   7.847  2.2301 -0.4651 -0.9227
   26SAPC  H13Y 3512   0.981   1.989   7.848 -0.0587  0.4237 -3.7380
   26SAPC  C314 3513   1.175   1.967   7.961  0.6639  0.9383 -0.8934
   26SAPC  H14X 3514   1.179   2.078   7.964  0.0037  0.9507  1.1974
   26SAPC  H14Y 3515   1.272   1.921   7.933  1.7045  2.5705 -0.0690
   26SAPC  C315 3516   1.133   1.924   8.102  0.2710 -0.3766 -0.4962
   26SAPC  H15X 3517   1.225   1.888   8.153 -0.9599  0.0660  2.2155
   26SAPC  H15Y 3518   1.079   1.827   8.091  0.9495 -1.0342  1.4700
   26SAPC  C316 3519   1.051   2.027   8.179 -0.1216  0.6878  0.4620
   26SAPC  H16X 3520   0.963   2.049   8.115  1.6246 -1.8296 -3.1937
   26SAPC  H16Y 3521   1.116   2.113   8.205 -0.5346  0.3490  2.8570
   26SAPC  C317 3522   0.997   1.965   8.312 -0.3813 -0.0559  0.7998
   26SAPC  H17X 3523   0.958   2.048   8.375 -0.8283 -1.5330  2.5300
   26SAPC  H17Y 3524   1.084   1.923   8.365 -0.5133  0.0689  1.1146
   26SAPC  C318 3525   0.887   1.859   8.286 -0.0171 -0.2503  0.7979
   26SAPC  H18X 3526   0.788   1.904   8.261 -0.3981 -1.2832  0.3934
   26SAPC  H18Y 3527   0.874   1.787   8.369  1.2319 -3.4760 -1.6073
   26SAPC  H18Z 3528   0.914   1.790   8.203 -3.7995 -0.6464 -0.2844
   27SAPC     N 3529   4.844   0.772   6.266  0.9054 -0.0401 -0.5428
   27SAPC   C12 3530   4.842   0.760   6.420  0.3897 -0.0770  0.3376
   27SAPC  H12A 3531   4.931   0.806   6.460  0.9354  0.7140 -1.6288
   27SAPC  H12B 3532   4.855   0.655   6.440 -2.2607 -0.9042 -1.7082
   27SAPC   C13 3533   4.735   0.681   6.213  0.5781  0.7468  0.0937
   27SAPC  H13A 3534   4.739   0.688   6.105  1.4781 -2.4685 -0.2153
   27SAPC  H13B 3535   4.757   0.579   6.242  1.5125  1.5655  2.4840
   27SAPC  H13C 3536   4.639   0.700   6.258 -0.0928 -0.5158 -0.7224
   27SAPC   C14 3537   4.804   0.910   6.226 -0.3184  0.2555  0.3158
   27SAPC  H14A 3538   4.889   0.977   6.219  0.2903 -0.3673  1.5350
   27SAPC  H14B 3539   4.763   0.907   6.126  0.0612  1.1187  0.1255
   27SAPC  H14C 3540   4.732   0.950   6.296  1.5587  0.2759  2.3448
   27SAPC   C15 3541   4.973   0.748   6.200 -0.4948 -0.7548  0.0223
   27SAPC  H15A 3542   4.994   0.642   6.192 -2.2024 -1.0280 -1.6947
   27SAPC  H15B 3543   4.967   0.795   6.103 -0.4748  0.5889  0.6426
   27SAPC  H15C 3544   5.049   0.793   6.262 -0.2232 -2.6158  1.0917
   27SAPC   C11 3545   4.719   0.786   6.501  0.0411 -0.0129  0.3350
   27SAPC  H11A 3546   4.723   0.738   6.601 -2.1962 -2.1375 -0.4821
   27SAPC  H11B 3547   4.628   0.734   6.463 -0.6669  0.2179  1.6589
   27SAPC     P 3548   4.767   1.016   6.624 -0.3027  0.0496  0.5371
   27SAPC   O13 3549   4.910   0.982   6.616 -0.8430  0.5954 -0.4630
   27SAPC   O14 3550   4.740   1.162   6.602  0.3891  0.6207 -0.6280
   27SAPC   O12 3551   4.689   0.927   6.513 -0.6519  0.5513 -0.1595
   27SAPC   O11 3552   4.713   0.978   6.761  0.0764 -0.4283  0.1664
   27SAPC    C1 3553   4.570   0.960   6.773  0.7742 -0.4438 -0.3519
   27SAPC    HA 3554   4.509   1.048   6.803  0.0927 -0.7530 -0.8068
   27SAPC    HB 3555   4.515   0.930   6.682  0.4438  0.3058 -0.4054
   27SAPC    C2 3556   4.542   0.870   6.896 -0.2902  0.0828  0.6032
   27SAPC    HS 3557   4.556   0.764   6.867  1.2721  0.1923  0.8624
   27SAPC   O21 3558   4.413   0.904   6.947  0.1833 -0.1810  0.3037
   27SAPC   C21 3559   4.308   0.866   6.880 -0.2424  0.9664 -0.7417
   27SAPC   O22 3560   4.297   0.812   6.773 -0.2383 -0.1077  0.0742
   27SAPC   C22 3561   4.182   0.895   6.963 -0.0926  0.0828 -1.0360
   27SAPC   H2R 3562   4.204   0.972   7.040  0.9410 -0.4279 -0.7988
   27SAPC   H2S 3563   4.105   0.924   6.889 -0.6794  0.7687 -0.1821
   27SAPC    C3 3564   4.651   0.908   7.011  0.1115 -0.1656 -0.6340
   27SAPC    HX 3565   4.640   1.017   7.029 -0.3355 -0.2058 -0.6495
   27SAPC    HY 3566   4.754   0.877   6.983  0.8448  1.1177  0.5241
   27SAPC   O31 3567   4.615   0.832   7.129  0.0783 -0.0343  0.4968
   27SAPC   C31 3568   4.691   0.855   7.233  0.0586 -0.4976  0.4395
   27SAPC   O32 3569   4.772   0.946   7.244 -0.0022 -0.2448  0.0417
   27SAPC   C32 3570   4.651   0.772   7.353  0.1794 -0.6240 -0.1122
   27SAPC   H2X 3571   4.560   0.715   7.325 -0.7558  1.7814 -2.4145
   27SAPC   H2Y 3572   4.624   0.835   7.441 -2.1124 -0.6883 -0.7037
   27SAPC   C23 3573   4.137   0.772   7.043 -0.2287  0.4178 -0.1462
   27SAPC   H3R 3574   4.126   0.681   6.980  0.4302 -0.4108  0.8941
   27SAPC   H3S 3575   4.035   0.799   7.077 -0.5871 -0.2815 -0.6410
   27SAPC   C24 3576   4.216   0.740   7.171 -0.5544  0.0216  0.1270
   27SAPC   H4R 3577   4.229   0.837   7.224 -1.4369 -0.2654  0.9005
   27SAPC   H4S 3578   4.317   0.702   7.143 -0.8685 -0.5576 -0.2469
   27SAPC   C25 3579   4.163   0.621   7.255 -0.5076 -0.5701  0.2921
   27SAPC   H5R 3580   4.202   0.524   7.220  1.7302  1.2667 -2.9216
   27SAPC   C26 3581   4.085   0.631   7.367 -0.2213 -0.2869  0.6172
   27SAPC   H6R 3582   4.059   0.536   7.415  1.2552 -0.4655  1.1302
   27SAPC   C27 3583   4.036   0.759   7.438  0.8129 -0.4104 -0.5619
   27SAPC   H7R 3584   3.926   0.748   7.447  0.7885  0.6359  0.6167
   27SAPC   H7S 3585   4.054   0.842   7.367  2.3562  0.3734  0.6944
   27SAPC   C28 3586   4.094   0.768   7.574  0.7176 -0.1035 -0.2275
   27SAPC   H8R 3587   4.198   0.802   7.562  0.3087  0.6392 -2.0035
   27SAPC   C29 3588   4.045   0.729   7.688 -0.3863  0.4651 -0.0361
   27SAPC   H9R 3589   4.103   0.751   7.779  0.1700 -2.2238  0.3377
   27SAPC  C210 3590   3.914   0.660   7.712 -0.1944  0.4019 -0.2829
   27SAPC  H10R 3591   3.844   0.652   7.626 -0.6383 -0.9922  0.1822
   27SAPC  H10S 3592   3.855   0.714   7.789 -0.7776 -0.9747  0.2798
   27SAPC  C211 3593   3.950   0.524   7.764 -0.6719 -0.3852 -0.3654
   27SAPC  H11R 3594   3.936   0.450   7.684 -2.4637  0.6020 -1.0292
   27SAPC  C212 3595   4.000   0.485   7.889  0.0295  0.4033 -0.1338
   27SAPC  H12R 3596   4.009   0.377   7.909  0.7647  0.5241  0.2295
   27SAPC  C213 3597   4.022   0.576   8.007 -0.2627 -0.1891 -0.6884
   27SAPC  H13R 3598   3.962   0.535   8.092  0.4186  1.2749  0.5576
   27SAPC  H13S 3599   3.978   0.677   7.996  1.3306  0.6049 -0.1264
   27SAPC  C214 3600   4.164   0.596   8.040  0.3456 -0.1195  0.0449
   27SAPC  H14R 3601   4.236   0.613   7.958  0.0328  0.4637 -0.1149
   27SAPC  C215 3602   4.209   0.590   8.165  0.5591 -0.1281 -0.3289
   27SAPC  H15R 3603   4.317   0.587   8.186  0.5482 -0.6978 -0.3416
   27SAPC  C216 3604   4.128   0.567   8.289  0.0003  0.8661 -0.3014
   27SAPC  H16R 3605   4.018   0.564   8.274 -0.1295 -1.3472  0.7377
   27SAPC  H16S 3606   4.145   0.648   8.364  1.4163  1.8728 -1.6330
   27SAPC  C217 3607   4.148   0.428   8.357  0.2390  0.2031 -0.2040
   27SAPC  H17R 3608   4.111   0.435   8.461 -1.8210 -0.7626 -0.8255
   27SAPC  H17S 3609   4.258   0.420   8.373  0.3997  2.8560  0.6034
   27SAPC  C218 3610   4.095   0.309   8.269  0.6786 -0.4055  0.5962
   27SAPC  H18R 3611   4.001   0.351   8.227  0.6563 -0.4935  0.5566
   27SAPC  H18S 3612   4.065   0.217   8.325  0.0079 -0.5396  0.0284
   27SAPC  C219 3613   4.198   0.264   8.166 -0.2262  0.3671  0.2150
   27SAPC  H19R 3614   4.295   0.236   8.213  1.1553  4.1222 -0.0900
   27SAPC  H19S 3615   4.222   0.343   8.092  0.3715 -1.0842 -1.2027
   27SAPC  C220 3616   4.151   0.140   8.092  0.5665  0.5397 -0.5004
   27SAPC  H20R 3617   4.231   0.089   8.034  1.1168  0.9482 -0.1102
   27SAPC  H20S 3618   4.060   0.159   8.031 -0.3824  0.4317  0.8405
   27SAPC  H20T 3619   4.116   0.071   8.172  1.3059  1.4485  0.6312
   27SAPC   C33 3620   4.762   0.666   7.397 -0.6098 -0.9623 -0.4988
   27SAPC   H3X 3621   4.853   0.715   7.437 -0.5956 -0.2428 -1.3760
   27SAPC   H3Y 3622   4.799   0.600   7.315 -1.7216 -1.3149 -0.7295
   27SAPC   C34 3623   4.699   0.583   7.515 -0.2098 -0.2827  0.4668
   27SAPC   H4X 3624   4.768   0.503   7.549  0.0715 -0.1114  0.3051
   27SAPC   H4Y 3625   4.603   0.543   7.476 -1.0035  1.1122  0.8811
   27SAPC   C35 3626   4.676   0.661   7.650  0.8041  0.2524  0.6854
   27SAPC   H5X 3627   4.609   0.746   7.626  0.6181  0.8011  2.9035
   27SAPC   H5Y 3628   4.772   0.704   7.687  0.8929 -1.3085  2.4900
   27SAPC   C36 3629   4.606   0.570   7.754 -0.5157  0.2769  0.0199
   27SAPC   H6X 3630   4.677   0.488   7.776  1.6224  2.0303  0.0549
   27SAPC   H6Y 3631   4.527   0.511   7.702  0.0657  0.3296 -0.9560
   27SAPC   C37 3632   4.561   0.644   7.877 -0.2359  1.1796  0.0290
   27SAPC   H7X 3633   4.483   0.583   7.927  0.4333  0.0416 -0.2653
   27SAPC   H7Y 3634   4.533   0.750   7.857 -1.6459  0.4895 -1.9037
   27SAPC   C38 3635   4.680   0.643   7.977  0.1677 -0.7973  0.7692
   27SAPC   H8X 3636   4.751   0.718   7.936  0.2521  0.0856  2.4572
   27SAPC   H8Y 3637   4.730   0.544   7.982  3.0900  0.4290 -1.0609
   27SAPC   C39 3638   4.630   0.686   8.115 -0.6553  0.2348  0.6089
   27SAPC   H9X 3639   4.524   0.657   8.135  0.3857 -1.6638  4.2556
   27SAPC   H9Y 3640   4.627   0.797   8.116 -1.9312  0.2264  0.1046
   27SAPC  C310 3641   4.734   0.648   8.219  0.6744  0.2218 -0.1849
   27SAPC  H10X 3642   4.835   0.671   8.179  0.3503 -0.2625 -1.3287
   27SAPC  H10Y 3643   4.723   0.538   8.228 -0.4371  0.3276 -0.1491
   27SAPC  C311 3644   4.722   0.721   8.361  0.6312  0.2000 -0.2358
   27SAPC  H11X 3645   4.698   0.830   8.355  0.1831  0.1681  0.7702
   27SAPC  H11Y 3646   4.814   0.718   8.422  0.3349  1.0898  0.2690
   27SAPC  C312 3647   4.604   0.667   8.448  0.9007 -0.1620  0.1507
   27SAPC  H12X 3648   4.617   0.562   8.483 -2.1283 -0.5896  0.2687
   27SAPC  H12Y 3649   4.508   0.663   8.392  0.1898  0.5229  1.2829
   27SAPC  C313 3650   4.578   0.756   8.578 -0.0295  0.1211  0.2069
   27SAPC  H13X 3651   4.529   0.853   8.554 -1.6382 -0.9895 -1.2764
   27SAPC  H13Y 3652   4.679   0.790   8.609  0.1711  3.5886 -3.4070
   27SAPC  C314 3653   4.502   0.680   8.676  0.6233 -0.1914 -0.2697
   27SAPC  H14X 3654   4.502   0.744   8.767  0.6948  1.2163 -1.2348
   27SAPC  H14Y 3655   4.550   0.584   8.706  0.3116  0.2150  1.6629
   27SAPC  C315 3656   4.354   0.671   8.637  0.1687  0.6564  0.0365
   27SAPC  H15X 3657   4.338   0.601   8.552 -2.8840  0.4837  0.6417
   27SAPC  H15Y 3658   4.332   0.774   8.600  0.3368  0.5245 -0.4386
   27SAPC  C316 3659   4.254   0.627   8.734  1.5274  0.4273 -0.4676
   27SAPC  H16X 3660   4.158   0.607   8.682  0.7831  2.4199  0.0220
   27SAPC  H16Y 3661   4.217   0.711   8.797 -3.4044 -1.8095  0.0890
   27SAPC  C317 3662   4.297   0.499   8.807 -0.6931 -0.5140  0.2370
   27SAPC  H17X 3663   4.377   0.527   8.879 -0.4508 -0.0123 -0.2196
   27SAPC  H17Y 3664   4.353   0.428   8.742 -0.8909 -1.9415  1.5677
   27SAPC  C318 3665   4.185   0.432   8.875  0.2353 -0.1868 -0.1957
   27SAPC  H18X 3666   4.102   0.406   8.805 -0.3444  0.9523  0.0327
   27SAPC  H18Y 3667   4.144   0.493   8.959 -0.6454  1.4983 -1.7503
   27SAPC  H18Z 3668   4.213   0.337   8.926 -0.4624  0.9285  2.4449
   28SAPC     N 3669   5.292   5.935   6.004  0.4400 -0.3236 -0.2629
   28SAPC   C12 3670   5.237   5.968   6.139  0.2857 -0.6599  0.5418
   28SAPC  H12A 3671   5.320   6.013   6.191  0.7496 -1.2938  0.3722
   28SAPC  H12B 3672   5.228   5.876   6.195  0.5051 -0.0734  1.5649
   28SAPC   C13 3673   5.324   6.055   5.927 -0.4466 -0.1843  0.5847
   28SAPC  H13A 3674   5.345   6.040   5.823  1.0211  1.3890  0.6154
   28SAPC  H13B 3675   5.251   6.135   5.924  1.5036  1.6422 -0.4418
   28SAPC  H13C 3676   5.409   6.107   5.968 -1.4029  0.7194  1.5209
   28SAPC   C14 3677   5.406   5.842   6.016 -0.0903  0.3249  0.3508
   28SAPC  H14A 3678   5.482   5.893   6.074 -0.4619  0.4466  0.7362
   28SAPC  H14B 3679   5.377   5.745   6.053  0.6437 -0.5736 -1.3332
   28SAPC  H14C 3680   5.443   5.833   5.915 -0.0763 -0.8842  0.4518
   28SAPC   C15 3681   5.183   5.866   5.922 -0.5861  0.9289  0.6634
   28SAPC  H15A 3682   5.174   5.763   5.954  0.6582  0.4199 -0.5118
   28SAPC  H15B 3683   5.092   5.923   5.923 -0.3643  1.2971  0.3684
   28SAPC  H15C 3684   5.211   5.846   5.819 -1.6967  0.0642  0.5148
   28SAPC   C11 3685   5.108   6.039   6.154 -0.4950 -0.0315  0.2968
   28SAPC  H11A 3686   5.097   6.061   6.263 -0.1132 -0.1607  0.3644
   28SAPC  H11B 3687   5.039   5.959   6.120 -0.6085 -0.5300  1.6466
   28SAPC     P 3688   5.140   6.296   6.111 -0.1927 -0.2617 -0.0015
   28SAPC   O13 3689   5.245   6.340   6.017 -0.2843  0.4411 -0.3523
   28SAPC   O14 3690   5.014   6.370   6.130 -0.1335 -0.6476  0.2609
   28SAPC   O12 3691   5.099   6.151   6.061  0.3134  0.0006 -0.1165
   28SAPC   O11 3692   5.204   6.282   6.256  0.5822 -0.2502 -0.2075
   28SAPC    C1 3693   5.291   6.388   6.295  0.2326 -0.0105 -1.0417
   28SAPC    HA 3694   5.394   6.346   6.290 -0.3417 -1.7290  0.7047
   28SAPC    HB 3695   5.280   6.483   6.238  0.4110  0.2896 -0.5796
   28SAPC    C2 3696   5.252   6.422   6.443 -1.0254  0.2530  0.7335
   28SAPC    HS 3697   5.313   6.513   6.462 -0.1755 -0.5459  2.0439
   28SAPC   O21 3698   5.289   6.311   6.531 -0.3742 -1.0654  0.5769
   28SAPC   C21 3699   5.413   6.304   6.572  0.1479  0.0975 -0.5806
   28SAPC   O22 3700   5.501   6.385   6.547 -0.4333 -0.3543 -0.2388
   28SAPC   C22 3701   5.427   6.175   6.668 -0.0525  0.5863 -0.2323
   28SAPC   H2R 3702   5.385   6.093   6.605  0.0110 -0.7524  1.3966
   28SAPC   H2S 3703   5.534   6.148   6.682  0.0187  0.5093 -0.8941
   28SAPC    C3 3704   5.109   6.449   6.457 -0.1013 -0.3682 -0.7098
   28SAPC    HX 3705   5.045   6.361   6.435 -0.4717 -0.5418  0.9258
   28SAPC    HY 3706   5.086   6.527   6.381 -0.7468  2.5219  2.2032
   28SAPC   O31 3707   5.084   6.516   6.587  0.8242  0.8732  0.1356
   28SAPC   C31 3708   5.063   6.438   6.687  1.3948 -0.1064 -0.5216
   28SAPC   O32 3709   5.037   6.317   6.684  0.1057  0.4351  0.9313
   28SAPC   C32 3710   5.088   6.514   6.821 -0.3159  0.1379 -0.1261
   28SAPC   H2X 3711   5.029   6.608   6.816 -0.4876  0.0140 -0.4284
   28SAPC   H2Y 3712   5.197   6.538   6.821 -0.4434  0.7793  0.8901
   28SAPC   C23 3713   5.341   6.175   6.799 -0.1317  0.7247 -0.2968
   28SAPC   H3R 3714   5.241   6.214   6.772 -1.4220 -0.6131  2.1491
   28SAPC   H3S 3715   5.390   6.245   6.870  1.6006 -2.4521  1.8855
   28SAPC   C24 3716   5.344   6.029   6.859 -0.2113 -0.3479 -0.4205
   28SAPC   H4R 3717   5.314   5.956   6.780 -1.8440 -0.5443  0.3358
   28SAPC   H4S 3718   5.452   6.020   6.886  0.1413 -2.2327 -2.2180
   28SAPC   C25 3719   5.243   6.037   6.970 -0.3432 -0.0624 -0.1786
   28SAPC   H5R 3720   5.142   6.073   6.947 -0.9633 -0.9423  1.0150
   28SAPC   C26 3721   5.280   6.023   7.103 -0.2893  0.6879  0.3081
   28SAPC   H6R 3722   5.198   6.019   7.176  1.7037 -2.5901  2.6629
   28SAPC   C27 3723   5.421   5.988   7.155  0.4473 -0.2208  0.0617
   28SAPC   H7R 3724   5.498   6.007   7.077 -1.0683  0.2951 -1.3767
   28SAPC   H7S 3725   5.441   5.885   7.192  1.3402  0.3075  1.1067
   28SAPC   C28 3726   5.449   6.083   7.265 -0.2614 -0.4612 -0.4424
   28SAPC   H8R 3727   5.391   6.176   7.256 -1.7715 -1.5604 -3.0261
   28SAPC   C29 3728   5.533   6.053   7.363  0.1756  0.3079 -0.3254
   28SAPC   H9R 3729   5.538   6.122   7.448 -0.9797 -0.0462  0.0433
   28SAPC  C210 3730   5.612   5.930   7.393  0.7225 -0.2556 -0.9352
   28SAPC  H10R 3731   5.714   5.972   7.408 -0.3869  2.4021 -0.2848
   28SAPC  H10S 3732   5.619   5.847   7.320 -2.2501 -1.3692 -0.0953
   28SAPC  C211 3733   5.556   5.870   7.519 -0.1780  0.2938 -0.6991
   28SAPC  H11R 3734   5.464   5.811   7.506  0.3719 -0.7748  0.1094
   28SAPC  C212 3735   5.596   5.897   7.646  0.3606  0.5407  0.0154
   28SAPC  H12R 3736   5.539   5.842   7.723 -0.1146 -1.0052 -1.3815
   28SAPC  C213 3737   5.700   5.997   7.694  0.4103  0.1866  0.9631
   28SAPC  H13R 3738   5.693   6.090   7.633  1.6724  0.8833  1.8277
   28SAPC  H13S 3739   5.795   5.947   7.664 -0.2826  0.1502 -1.4069
   28SAPC  C214 3740   5.703   6.029   7.840  0.2437  0.2470  0.5408
   28SAPC  H14R 3741   5.710   6.136   7.861 -0.0822  0.2776  0.5034
   28SAPC  C215 3742   5.710   5.950   7.950  0.6502  0.3418  0.4523
   28SAPC  H15R 3743   5.721   5.999   8.048 -0.1929  1.4102  0.0339
   28SAPC  C216 3744   5.715   5.798   7.942 -0.2480  0.7510 -0.6612
   28SAPC  H16R 3745   5.729   5.754   7.841 -0.6638  0.4184 -0.5740
   28SAPC  H16S 3746   5.612   5.763   7.964  0.3695 -2.3544 -2.2451
   28SAPC  C217 3747   5.818   5.738   8.038  0.3661  0.4207  0.5273
   28SAPC  H17R 3748   5.919   5.776   8.010  0.5855  0.2190  1.0501
   28SAPC  H17S 3749   5.809   5.628   8.041 -0.5558  0.5097  1.4987
   28SAPC  C218 3750   5.796   5.787   8.184 -0.5792 -0.2317 -0.1308
   28SAPC  H18R 3751   5.689   5.775   8.214  0.2486  0.0211  3.2950
   28SAPC  H18S 3752   5.813   5.897   8.188 -0.6471 -0.2236 -0.0578
   28SAPC  C219 3753   5.882   5.725   8.287 -0.3350 -0.2407  0.3084
   28SAPC  H19R 3754   5.873   5.615   8.274  0.3217 -0.0406 -2.4784
   28SAPC  H19S 3755   5.859   5.755   8.391  2.6411  2.4047  0.3410
   28SAPC  C220 3756   6.024   5.770   8.284  0.3554 -0.4829 -0.2380
   28SAPC  H20R 3757   6.082   5.727   8.200 -1.8379 -2.0933 -1.0118
   28SAPC  H20S 3758   6.074   5.740   8.378  1.4070  0.5115 -0.4599
   28SAPC  H20T 3759   6.019   5.881   8.282  0.5271 -0.4886 -2.2469
   28SAPC   C33 3760   5.072   6.428   6.952  0.8118 -0.2974 -0.3485
   28SAPC   H3X 3761   5.110   6.325   6.932 -0.9262 -0.6510 -2.1720
   28SAPC   H3Y 3762   4.964   6.420   6.975  0.8923  0.9311  0.5501
   28SAPC   C34 3763   5.151   6.487   7.065 -0.0006  0.3087  0.0176
   28SAPC   H4X 3764   5.101   6.582   7.092 -2.9147 -1.3967  1.1281
   28SAPC   H4Y 3765   5.244   6.519   7.013 -1.3788  0.4590 -2.5620
   28SAPC   C35 3766   5.144   6.405   7.192  0.3749  0.6417 -0.3568
   28SAPC   H5X 3767   5.200   6.310   7.184  0.4942  0.7244 -0.5302
   28SAPC   H5Y 3768   5.040   6.369   7.200 -0.0613  2.0895  0.9891
   28SAPC   C36 3769   5.179   6.486   7.321  0.0973  0.0455 -0.4692
   28SAPC   H6X 3770   5.124   6.582   7.319 -0.2365 -0.1542 -2.2163
   28SAPC   H6Y 3771   5.278   6.529   7.294 -0.3341  0.5396 -1.2879
   28SAPC   C37 3772   5.162   6.412   7.450  0.2043 -0.5426 -0.1770
   28SAPC   H7X 3773   5.056   6.421   7.484  0.5982 -1.3245  1.3419
   28SAPC   H7Y 3774   5.234   6.449   7.526 -0.1714  0.6253 -0.3726
   28SAPC   C38 3775   5.196   6.263   7.450  0.2694 -0.2489 -0.4030
   28SAPC   H8X 3776   5.298   6.246   7.408 -0.5128 -0.3740 -2.3547
   28SAPC   H8Y 3777   5.129   6.201   7.387  0.6875 -0.3787 -0.7262
   28SAPC   C39 3778   5.196   6.197   7.588 -0.1171  0.7271 -0.1704
   28SAPC   H9X 3779   5.216   6.091   7.563 -2.3810 -0.2627  1.7777
   28SAPC   H9Y 3780   5.092   6.200   7.626 -0.5215 -1.1256 -1.0339
   28SAPC  C310 3781   5.281   6.259   7.699  0.2309  0.1961  0.0656
   28SAPC  H10X 3782   5.222   6.342   7.742  0.1598 -0.8944  2.2454
   28SAPC  H10Y 3783   5.372   6.313   7.666 -0.4430  1.2469 -0.1002
   28SAPC  C311 3784   5.319   6.163   7.810  0.5267 -0.0605 -0.2911
   28SAPC  H11X 3785   5.384   6.086   7.763 -0.7770 -0.9191 -0.7248
   28SAPC  H11Y 3786   5.232   6.119   7.864  0.7035 -0.8267 -0.6096
   28SAPC  C312 3787   5.403   6.242   7.911 -0.2722  0.6616 -0.7865
   28SAPC  H12X 3788   5.359   6.334   7.956 -0.5572 -0.2489  0.8823
   28SAPC  H12Y 3789   5.498   6.258   7.855 -0.6194 -1.8838 -2.2129
   28SAPC  C313 3790   5.421   6.151   8.033 -0.1934  0.0225 -0.9928
   28SAPC  H13X 3791   5.459   6.050   8.009  3.4677  1.1657 -0.5795
   28SAPC  H13Y 3792   5.322   6.131   8.079  0.5183 -0.3358  0.4352
   28SAPC  C314 3793   5.528   6.217   8.131  1.0551 -0.0460 -0.3114
   28SAPC  H14X 3794   5.490   6.316   8.163 -0.2540 -1.1172  1.6736
   28SAPC  H14Y 3795   5.619   6.238   8.071  0.9263  0.2218 -0.4128
   28SAPC  C315 3796   5.554   6.132   8.254 -0.1661 -0.3911 -0.1908
   28SAPC  H15X 3797   5.589   6.033   8.219 -1.2968 -1.0222  0.3985
   28SAPC  H15Y 3798   5.458   6.128   8.309 -0.1918 -0.0384 -0.2057
   28SAPC  C316 3799   5.654   6.192   8.356  0.1572 -0.2905 -0.3880
   28SAPC  H16X 3800   5.612   6.273   8.419  0.1699 -0.3122 -0.3504
   28SAPC  H16Y 3801   5.711   6.242   8.275 -0.7186 -0.5927 -1.2033
   28SAPC  C317 3802   5.741   6.090   8.434 -0.0473  0.1556  0.2959
   28SAPC  H17X 3803   5.832   6.129   8.484  2.2431 -2.9363 -1.1270
   28SAPC  H17Y 3804   5.791   6.034   8.352 -1.0642  0.5473 -0.6260
   28SAPC  C318 3805   5.671   5.999   8.539 -0.8898 -0.0854 -0.1538
   28SAPC  H18X 3806   5.587   5.936   8.502 -0.9799  2.1660 -4.4325
   28SAPC  H18Y 3807   5.628   6.057   8.623 -3.8103 -1.8493 -0.2872
   28SAPC  H18Z 3808   5.739   5.922   8.582 -0.2807 -0.6222 -1.9807
   29SAPC     N 3809   5.013   1.395   6.515  0.8796  0.0960  0.2194
   29SAPC   C12 3810   5.121   1.435   6.416 -0.7309  0.0608  0.0780
   29SAPC  H12A 3811   5.221   1.447   6.453  0.2031 -0.2234 -2.1604
   29SAPC  H12B 3812   5.101   1.539   6.394  3.2772  1.0505  0.4951
   29SAPC   C13 3813   5.047   1.262   6.571 -0.1708  1.2046 -0.0306
   29SAPC  H13A 3814   5.147   1.262   6.611  0.5582  1.3154 -1.7546
   29SAPC  H13B 3815   4.975   1.216   6.638  1.3069  0.2126  0.9398
   29SAPC  H13C 3816   5.062   1.195   6.488  2.0617  1.1869  0.3247
   29SAPC   C14 3817   5.011   1.488   6.632 -0.4752 -0.1311  0.1396
   29SAPC  H14A 3818   5.106   1.493   6.683 -1.7827  1.0577  2.6442
   29SAPC  H14B 3819   5.020   1.584   6.584 -1.9520 -0.3893 -0.7321
   29SAPC  H14C 3820   4.918   1.495   6.687 -1.3801 -0.4836 -1.2989
   29SAPC   C15 3821   4.879   1.375   6.449 -0.6167 -0.0821 -0.1965
   29SAPC  H15A 3822   4.800   1.335   6.511  1.0336  0.3291  2.3103
   29SAPC  H15B 3823   4.838   1.470   6.418  0.5101 -0.2534 -2.3710
   29SAPC  H15C 3824   4.889   1.310   6.363  1.6986  0.6889 -0.5719
   29SAPC   C11 3825   5.137   1.343   6.286 -0.3820 -0.1167  0.3250
   29SAPC  H11A 3826   5.208   1.390   6.214  0.0047 -2.3461 -0.8338
   29SAPC  H11B 3827   5.043   1.347   6.228 -0.7009  2.3780  0.8883
   29SAPC     P 3828   5.318   1.165   6.363  0.0860  0.0714  0.3596
   29SAPC   O13 3829   5.309   1.042   6.436  0.3380  0.4189  0.7506
   29SAPC   O14 3830   5.401   1.164   6.240  0.1856  0.0781 -0.5146
   29SAPC   O12 3831   5.169   1.207   6.322 -0.3649 -0.0295 -0.2365
   29SAPC   O11 3832   5.368   1.280   6.460 -0.0549 -0.2704 -0.2727
   29SAPC    C1 3833   5.497   1.277   6.520 -0.2618  0.0709  0.3085
   29SAPC    HA 3834   5.540   1.178   6.547  1.0860  1.0237  1.8170
   29SAPC    HB 3835   5.572   1.321   6.450  1.1274  1.7322  2.6715
   29SAPC    C2 3836   5.507   1.365   6.649  0.9628 -0.3916  0.2314
   29SAPC    HS 3837   5.611   1.398   6.669  1.2218  0.6425 -2.5019
   29SAPC   O21 3838   5.445   1.303   6.761 -0.3747 -0.4693 -0.0178
   29SAPC   C21 3839   5.528   1.227   6.836 -0.4455  0.1956  1.2883
   29SAPC   O22 3840   5.647   1.205   6.804  0.2485 -0.5278  0.4895
   29SAPC   C22 3841   5.451   1.179   6.960 -0.0446  0.4831 -0.9052
   29SAPC   H2R 3842   5.366   1.124   6.915 -0.6575  2.9321 -3.0231
   29SAPC   H2S 3843   5.518   1.113   7.018 -1.6812 -1.6156 -1.3148
   29SAPC    C3 3844   5.442   1.512   6.633 -0.0778  0.4447 -0.8536
   29SAPC    HX 3845   5.336   1.490   6.605  0.4482 -0.8275 -1.9967
   29SAPC    HY 3846   5.490   1.560   6.545  0.0209 -0.1233 -1.1183
   29SAPC   O31 3847   5.455   1.597   6.751  0.0380  0.1920  0.3734
   29SAPC   C31 3848   5.350   1.604   6.833  0.2771  0.8740  0.2537
   29SAPC   O32 3849   5.242   1.543   6.820 -0.0360 -0.0897 -0.3251
   29SAPC   C32 3850   5.368   1.714   6.940 -0.3573  0.3437 -0.1497
   29SAPC   H2X 3851   5.349   1.808   6.884 -1.6931 -1.2853 -2.6084
   29SAPC   H2Y 3852   5.474   1.703   6.973 -0.0111 -1.2265 -1.6272
   29SAPC   C23 3853   5.394   1.294   7.046  0.2121  0.5535  0.0555
   29SAPC   H3R 3854   5.333   1.246   7.126  2.6042 -0.5852  1.2976
   29SAPC   H3S 3855   5.339   1.370   6.987  0.0410  0.8564  0.5955
   29SAPC   C24 3856   5.514   1.350   7.128 -0.1048 -0.2381 -0.4123
   29SAPC   H4R 3857   5.468   1.422   7.199 -0.4309 -0.3618 -0.4987
   29SAPC   H4S 3858   5.571   1.414   7.057 -1.3058  0.2593 -0.9570
   29SAPC   C25 3859   5.611   1.263   7.207 -0.2453  0.2490 -1.1646
   29SAPC   H5R 3860   5.692   1.218   7.148  1.9017  1.5940  0.6237
   29SAPC   C26 3861   5.619   1.228   7.339  0.7445 -0.1813 -0.2919
   29SAPC   H6R 3862   5.703   1.168   7.379 -0.7936 -1.9099  0.4946
   29SAPC   C27 3863   5.511   1.273   7.439  0.1148 -0.2045 -0.8684
   29SAPC   H7R 3864   5.497   1.185   7.506 -0.5509  0.0542 -0.6618
   29SAPC   H7S 3865   5.418   1.309   7.392  0.8801  0.1134 -2.1794
   29SAPC   C28 3866   5.571   1.398   7.505  0.2436  0.4860  0.7628
   29SAPC   H8R 3867   5.552   1.486   7.442 -0.9033 -0.3674 -0.1189
   29SAPC   C29 3868   5.657   1.402   7.606 -0.6096 -0.2267  0.1935
   29SAPC   H9R 3869   5.675   1.496   7.660  0.6998 -1.4147  1.9314
   29SAPC  C210 3870   5.709   1.280   7.671 -0.6314 -0.2721  0.3488
   29SAPC  H10R 3871   5.802   1.240   7.625 -1.0782  1.0277 -1.7958
   29SAPC  H10S 3872   5.632   1.199   7.666 -0.6077 -0.2469 -0.4483
   29SAPC  C211 3873   5.742   1.324   7.817  0.1044  0.1966  1.0270
   29SAPC  H11R 3874   5.840   1.371   7.828  0.5236 -0.0575 -1.1469
   29SAPC  C212 3875   5.664   1.300   7.926  0.1921  0.1924 -0.0608
   29SAPC  H12R 3876   5.697   1.342   8.022 -2.3247  1.1688  0.4476
   29SAPC  C213 3877   5.538   1.223   7.944  0.0087  0.2208  0.1042
   29SAPC  H13R 3878   5.483   1.203   7.849 -1.0800 -0.5205  0.8582
   29SAPC  H13S 3879   5.459   1.274   8.003 -1.2510 -2.1033  0.5365
   29SAPC  C214 3880   5.555   1.081   7.994 -0.2038 -0.3571 -0.2593
   29SAPC  H14R 3881   5.580   1.015   7.910 -0.1226  2.0472 -2.2374
   29SAPC  C215 3882   5.547   1.043   8.123  0.4156  0.7530 -0.5811
   29SAPC  H15R 3883   5.542   0.938   8.156 -2.7254  0.5168 -1.4434
   29SAPC  C216 3884   5.513   1.130   8.245  0.2374  0.3281  0.6635
   29SAPC  H16R 3885   5.411   1.098   8.273  0.7284 -2.9231 -0.7316
   29SAPC  H16S 3886   5.522   1.236   8.215 -1.5870 -0.2558 -2.4740
   29SAPC  C217 3887   5.614   1.097   8.353  0.4089  0.3949  0.8492
   29SAPC  H17R 3888   5.719   1.117   8.323  0.2825  1.6198  1.1668
   29SAPC  H17S 3889   5.601   0.992   8.387 -2.0131  0.7055  1.0710
   29SAPC  C218 3890   5.595   1.177   8.484 -0.3264  0.5569  0.1253
   29SAPC  H18R 3891   5.499   1.146   8.530  0.7001 -1.3006  1.0935
   29SAPC  H18S 3892   5.580   1.282   8.451 -0.7078 -0.0242 -1.6704
   29SAPC  C219 3893   5.711   1.181   8.583  0.7464 -0.6952  0.6524
   29SAPC  H19R 3894   5.682   1.256   8.660 -0.8856  0.9833 -1.4664
   29SAPC  H19S 3895   5.797   1.227   8.530  1.2579 -1.1043  1.1291
   29SAPC  C220 3896   5.748   1.044   8.625  0.2994 -0.3045  0.4096
   29SAPC  H20R 3897   5.836   1.046   8.693  0.5359  0.7514  0.0903
   29SAPC  H20S 3898   5.774   0.981   8.538 -0.7172 -0.3349  0.1088
   29SAPC  H20T 3899   5.665   0.988   8.674 -0.6652 -0.3392 -1.2050
   29SAPC   C33 3900   5.267   1.710   7.053 -0.0000  0.0145 -0.4823
   29SAPC   H3X 3901   5.255   1.606   7.092  0.8191  0.8537  2.2233
   29SAPC   H3Y 3902   5.173   1.741   7.003 -0.9788 -2.7851 -0.5879
   29SAPC   C34 3903   5.298   1.808   7.160 -0.1836 -0.1878  0.1793
   29SAPC   H4X 3904   5.326   1.910   7.128  3.0080 -1.1348 -0.3353
   29SAPC   H4Y 3905   5.391   1.777   7.212  0.3696 -0.4968 -0.9634
   29SAPC   C35 3906   5.170   1.834   7.249 -0.1716 -0.7581  0.1240
   29SAPC   H5X 3907   5.134   1.729   7.261  2.3282 -1.9179 -1.5900
   29SAPC   H5Y 3908   5.086   1.889   7.202  0.0736  0.3497  0.9332
   29SAPC   C36 3909   5.203   1.892   7.391 -0.3785 -1.2116 -0.1510
   29SAPC   H6X 3910   5.104   1.928   7.426  0.1888 -0.2123  0.4648
   29SAPC   H6Y 3911   5.266   1.982   7.377  2.5517 -2.7750  1.8049
   29SAPC   C37 3912   5.261   1.797   7.496 -0.1190  0.3648 -0.3355
   29SAPC   H7X 3913   5.370   1.786   7.476 -0.5868 -1.2704 -2.3252
   29SAPC   H7Y 3914   5.210   1.700   7.481  1.0551 -0.4067  0.4944
   29SAPC   C38 3915   5.252   1.852   7.643  0.5385  0.1268 -0.2581
   29SAPC   H8X 3916   5.143   1.867   7.654  0.5323 -0.5345  0.6545
   29SAPC   H8Y 3917   5.299   1.952   7.657  1.4869 -0.3861  0.3021
   29SAPC   C39 3918   5.291   1.753   7.752 -0.1143 -0.0223 -0.6641
   29SAPC   H9X 3919   5.400   1.730   7.755 -0.2033 -0.5764  3.4169
   29SAPC   H9Y 3920   5.235   1.659   7.737 -1.5429  0.3942  1.6597
   29SAPC  C310 3921   5.254   1.821   7.887  0.6249 -0.0084  1.0726
   29SAPC  H10X 3922   5.161   1.880   7.876  1.5560  1.2830 -0.2143
   29SAPC  H10Y 3923   5.348   1.879   7.900  0.7648  0.3395 -1.2022
   29SAPC  C311 3924   5.243   1.719   8.002 -0.3673 -0.4694 -0.4343
   29SAPC  H11X 3925   5.347   1.684   8.021 -0.0485  0.6094 -0.1515
   29SAPC  H11Y 3926   5.176   1.637   7.969  0.2812 -0.1258 -2.8143
   29SAPC  C312 3927   5.189   1.786   8.132  0.1468 -0.3576 -0.1085
   29SAPC  H12X 3928   5.080   1.805   8.127  0.6056  2.4713 -0.7985
   29SAPC  H12Y 3929   5.238   1.885   8.144 -2.6020  1.1650 -0.5317
   29SAPC  C313 3930   5.221   1.710   8.262 -0.5655 -1.1301  0.1448
   29SAPC  H13X 3931   5.192   1.773   8.349  1.4613 -0.9758  0.7580
   29SAPC  H13Y 3932   5.332   1.710   8.267 -0.5351 -0.8937 -0.4173
   29SAPC  C314 3933   5.162   1.573   8.281  0.1916  0.3131  0.1652
   29SAPC  H14X 3934   5.164   1.519   8.184 -3.1957 -0.4552  0.4135
   29SAPC  H14Y 3935   5.058   1.592   8.313  0.0642 -2.5408  1.8210
   29SAPC  C315 3936   5.241   1.488   8.382 -0.1029  0.5725  0.5009
   29SAPC  H15X 3937   5.349   1.506   8.369 -0.1683 -0.1749 -1.3936
   29SAPC  H15Y 3938   5.227   1.384   8.343 -0.4043  1.7365 -2.8410
   29SAPC  C316 3939   5.186   1.504   8.524 -0.3745 -0.2895 -0.2628
   29SAPC  H16X 3940   5.076   1.489   8.531 -0.2002 -1.1273  1.4295
   29SAPC  H16Y 3941   5.205   1.612   8.544 -1.4271  0.2591 -2.0462
   29SAPC  C317 3942   5.256   1.425   8.638 -0.2436  0.2075  0.2184
   29SAPC  H17X 3943   5.241   1.489   8.728  1.3544 -0.5414  1.0619
   29SAPC  H17Y 3944   5.362   1.426   8.607 -0.8408  0.3520 -1.9817
   29SAPC  C318 3945   5.210   1.280   8.663  0.1609 -0.0537 -0.0167
   29SAPC  H18X 3946   5.271   1.231   8.741 -0.5334 -0.4493  0.2865
   29SAPC  H18Y 3947   5.216   1.218   8.571 -0.3373 -2.1777  1.3089
   29SAPC  H18Z 3948   5.102   1.283   8.688  0.3030  0.7904  0.5425
   30SAPC     N 3949   0.864   0.097   5.905  0.6598 -0.6680  0.0246
   30SAPC   C12 3950   0.880   0.243   5.862 -0.2443 -0.6707 -0.1425
   30SAPC  H12A 3951   0.784   0.271   5.821 -1.1736  0.7931  2.7492
   30SAPC  H12B 3952   0.963   0.241   5.792  1.9569 -0.7287  2.2935
   30SAPC   C13 3953   0.731   0.075   5.977  0.9100 -0.3139 -0.6604
   30SAPC  H13A 3954   0.742  -0.020   6.027 -0.4535  0.1308  0.5691
   30SAPC  H13B 3955   0.707   0.152   6.049 -4.1199  1.4551 -3.6348
   30SAPC  H13C 3956   0.646   0.072   5.910 -0.3106 -0.3411  0.8428
   30SAPC   C14 3957   0.859   0.019   5.778 -1.0654  0.2642  0.0290
   30SAPC  H14A 3958   0.774   0.052   5.719 -2.5496 -0.7152  1.5294
   30SAPC  H14B 3959   0.949   0.025   5.718 -2.8441 -0.4698 -2.9804
   30SAPC  H14C 3960   0.834  -0.086   5.785 -1.7090  0.5503  3.4058
   30SAPC   C15 3961   0.977   0.055   5.995  0.0358 -0.0008  0.3324
   30SAPC  H15A 3962   1.066   0.046   5.935  0.2403 -1.6194  0.8199
   30SAPC  H15B 3963   0.999   0.130   6.069  1.1344 -0.7298  0.7591
   30SAPC  H15C 3964   0.957  -0.041   6.039  0.1628 -1.9024 -3.3417
   30SAPC   C11 3965   0.912   0.359   5.964 -0.5204 -0.2035  0.3878
   30SAPC  H11A 3966   0.941   0.445   5.899  0.5532  0.9036  2.2319
   30SAPC  H11B 3967   1.010   0.340   6.014  0.9273  1.2831 -1.6978
   30SAPC     P 3968   0.692   0.476   6.025 -0.4994  0.1499  0.4367
   30SAPC   O13 3969   0.742   0.573   5.924  0.0191 -0.1012 -0.6202
   30SAPC   O14 3970   0.574   0.399   5.989  0.2541  0.6532 -0.2136
   30SAPC   O12 3971   0.805   0.373   6.058 -0.1128  0.0381 -0.2144
   30SAPC   O11 3972   0.661   0.542   6.159  0.5604  1.0802  0.0195
   30SAPC    C1 3973   0.765   0.571   6.259  0.3859 -0.0518  1.1584
   30SAPC    HA 3974   0.818   0.483   6.302  1.0659 -0.0229  0.4130
   30SAPC    HB 3975   0.843   0.630   6.206 -0.3346 -0.2785 -0.1904
   30SAPC    C2 3976   0.697   0.654   6.365 -0.0003  0.2304 -0.1232
   30SAPC    HS 3977   0.619   0.717   6.318 -1.0307 -0.7421  0.2408
   30SAPC   O21 3978   0.795   0.720   6.454  0.0921  0.2914 -0.6569
   30SAPC   C21 3979   0.888   0.802   6.402 -0.0588 -0.1750 -0.6095
   30SAPC   O22 3980   0.899   0.841   6.290 -0.2166 -0.3830  0.2791
   30SAPC   C22 3981   0.991   0.818   6.511  0.0423  0.0657  0.0408
   30SAPC   H2R 3982   0.957   0.751   6.593 -1.6346  0.3658 -0.3820
   30SAPC   H2S 3983   1.088   0.774   6.479  0.1774  0.5290 -0.1999
   30SAPC    C3 3984   0.606   0.551   6.451 -0.7422 -0.5205 -0.0330
   30SAPC    HX 3985   0.676   0.477   6.497  1.3250  1.3003 -0.1129
   30SAPC    HY 3986   0.541   0.502   6.375 -1.8720  2.0352 -0.8181
   30SAPC   O31 3987   0.528   0.613   6.556  0.2399 -0.5298 -0.3386
   30SAPC   C31 3988   0.430   0.693   6.509  0.9931 -0.2907  0.2566
   30SAPC   O32 3989   0.384   0.693   6.395  0.1558 -0.1184 -0.0852
   30SAPC   C32 3990   0.380   0.784   6.617 -0.5331  0.2750 -0.3015
   30SAPC   H2X 3991   0.382   0.730   6.714 -1.9781 -0.6876 -0.7756
   30SAPC   H2Y 3992   0.275   0.808   6.590 -0.3954  1.1183 -0.1108
   30SAPC   C23 3993   1.024   0.963   6.557  0.1085 -0.1462 -0.8866
   30SAPC   H3R 3994   1.051   1.030   6.472 -2.1359  2.0387  0.0061
   30SAPC   H3S 3995   1.112   0.959   6.625 -1.8414 -3.1400  1.7438
   30SAPC   C24 3996   0.913   1.037   6.636 -0.3982 -0.1084  0.4906
   30SAPC   H4R 3997   0.816   1.033   6.582 -0.6318 -0.9365  0.9469
   30SAPC   H4S 3998   0.946   1.143   6.630 -0.6456 -0.0876 -1.1586
   30SAPC   C25 3999   0.885   0.990   6.777  0.3454 -0.6383  0.2928
   30SAPC   H5R 4000   0.829   0.896   6.781  0.9199 -1.1224 -1.6128
   30SAPC   C26 4001   0.895   1.063   6.891 -0.4185  0.2533 -0.2687
   30SAPC   H6R 4002   0.866   1.016   6.986 -0.5085  0.9810  0.0731
   30SAPC   C27 4003   0.961   1.200   6.911 -0.2134 -0.2275 -0.0930
   30SAPC   H7R 4004   1.011   1.236   6.819  1.3655  0.3348  0.9408
   30SAPC   H7S 4005   1.038   1.162   6.981 -0.3426 -0.4440 -0.0675
   30SAPC   C28 4006   0.875   1.308   6.971  0.1755  0.0459 -0.1435
   30SAPC   H8R 4007   0.785   1.339   6.916  0.6709  0.4600 -0.7288
   30SAPC   C29 4008   0.888   1.375   7.090 -0.4814  0.3640 -0.0931
   30SAPC   H9R 4009   0.813   1.448   7.126  1.8163  1.6746  2.3993
   30SAPC  C210 4010   1.003   1.347   7.183 -0.0204 -0.9420  0.5472
   30SAPC  H10R 4011   1.097   1.385   7.138 -0.4620 -0.5195 -0.0515
   30SAPC  H10S 4012   1.020   1.237   7.189  0.2108 -1.1194 -2.0605
   30SAPC  C211 4013   0.997   1.406   7.323  0.3313  0.8501 -0.8696
   30SAPC  H11R 4014   1.019   1.514   7.333 -3.3489  1.6269  0.3628
   30SAPC  C212 4015   0.982   1.336   7.440 -0.0197  0.4162  0.5092
   30SAPC  H12R 4016   0.979   1.391   7.536  0.9396 -0.8274  1.2767
   30SAPC  C213 4017   0.955   1.186   7.457 -0.4337 -0.9612 -0.1962
   30SAPC  H13R 4018   0.918   1.142   7.362  0.7335 -1.2437 -0.5403
   30SAPC  H13S 4019   0.877   1.170   7.534 -1.3706 -3.3660 -1.5156
   30SAPC  C214 4020   1.080   1.107   7.499 -0.4547 -1.2337  0.1137
   30SAPC  H14R 4021   1.153   1.089   7.418  0.7594  1.6174  0.4448
   30SAPC  C215 4022   1.116   1.054   7.620 -0.0576 -0.1551  0.1608
   30SAPC  H15R 4023   1.223   1.029   7.630  0.4684  2.3449  1.6961
   30SAPC  C216 4024   1.046   1.063   7.752 -0.2046 -0.0873  0.5341
   30SAPC  H16R 4025   1.035   0.957   7.785  0.2355 -0.1145  0.5890
   30SAPC  H16S 4026   0.943   1.094   7.721 -0.6314 -0.5477  1.4519
   30SAPC  C217 4027   1.089   1.166   7.850 -0.0445  0.1242  0.4918
   30SAPC  H17R 4028   1.005   1.206   7.911 -1.1051 -0.1867 -0.7242
   30SAPC  H17S 4029   1.132   1.255   7.800 -1.1574  0.8681  0.8440
   30SAPC  C218 4030   1.190   1.108   7.955  0.1754 -0.2591  0.3173
   30SAPC  H18R 4031   1.248   1.189   8.004 -0.2663 -0.2901  0.8959
   30SAPC  H18S 4032   1.265   1.054   7.893  1.3569  1.0725  0.5464
   30SAPC  C219 4033   1.138   1.008   8.064 -0.3934  0.1733  0.1054
   30SAPC  H19R 4034   1.067   0.938   8.015  0.4090  0.0465 -0.9131
   30SAPC  H19S 4035   1.077   1.073   8.130  0.6602  0.0270  1.2566
   30SAPC  C220 4036   1.252   0.938   8.138 -0.0756  0.1998  1.1221
   30SAPC  H20R 4037   1.323   0.886   8.070 -0.8347  0.7636 -0.1419
   30SAPC  H20S 4038   1.210   0.859   8.204 -0.3913  0.4645  1.2362
   30SAPC  H20T 4039   1.309   1.004   8.207  3.2862 -1.4914  0.2244
   30SAPC   C33 4040   0.462   0.911   6.650  0.4975  0.1423 -0.2357
   30SAPC   H3X 4041   0.448   0.989   6.572  2.7347  0.7892 -0.0690
   30SAPC   H3Y 4042   0.572   0.897   6.647  0.7076  1.0763  1.5195
   30SAPC   C34 4043   0.402   0.982   6.779  0.2448  0.4409 -0.1250
   30SAPC   H4X 4044   0.408   0.921   6.871 -0.3683  0.1685 -0.2538
   30SAPC   H4Y 4045   0.294   1.006   6.763  0.4935  1.0114 -1.0121
   30SAPC   C35 4046   0.468   1.121   6.805 -0.5170  0.9722 -0.2655
   30SAPC   H5X 4047   0.474   1.168   6.705  0.2859 -0.2532 -0.8187
   30SAPC   H5Y 4048   0.570   1.118   6.849  0.0980 -1.1435 -1.6968
   30SAPC   C36 4049   0.399   1.215   6.907 -0.3294 -0.5029 -0.4931
   30SAPC   H6X 4050   0.300   1.242   6.864  0.9326  2.6702 -1.7416
   30SAPC   H6Y 4051   0.459   1.309   6.913  1.5782 -1.7522  3.6304
   30SAPC   C37 4052   0.385   1.178   7.054  0.1671 -0.9554  0.3536
   30SAPC   H7X 4053   0.333   1.080   7.052 -2.6682  0.4134 -3.2485
   30SAPC   H7Y 4054   0.319   1.258   7.094  2.0742  0.6946  0.3740
   30SAPC   C38 4055   0.520   1.187   7.135  0.0698 -0.3566 -0.4775
   30SAPC   H8X 4056   0.539   1.297   7.145 -0.5365 -0.2348 -0.6314
   30SAPC   H8Y 4057   0.609   1.157   7.076  0.7039  3.3084 -1.6401
   30SAPC   C39 4058   0.524   1.118   7.270 -0.0269  0.3661 -0.2143
   30SAPC   H9X 4059   0.621   1.137   7.320 -0.3902  1.2786  0.1810
   30SAPC   H9Y 4060   0.496   1.011   7.258  0.7011  0.2611 -1.0454
   30SAPC  C310 4061   0.416   1.174   7.366  0.0447  0.8540 -0.7320
   30SAPC  H10X 4062   0.311   1.172   7.331 -0.7762  0.9948  1.5253
   30SAPC  H10Y 4063   0.433   1.281   7.390  1.1128  0.0799  2.4078
   30SAPC  C311 4064   0.414   1.098   7.493 -0.6133 -0.4415 -1.0935
   30SAPC  H11X 4065   0.391   0.989   7.490 -1.5851 -0.5003  2.5899
   30SAPC  H11Y 4066   0.338   1.144   7.560  0.8353  1.4833 -0.6988
   30SAPC  C312 4067   0.549   1.104   7.578 -0.2894 -0.3177  0.3701
   30SAPC  H12X 4068   0.586   1.209   7.575 -1.4292  0.0866 -1.8925
   30SAPC  H12Y 4069   0.625   1.038   7.532  0.1776 -0.0350  0.7265
   30SAPC  C313 4070   0.523   1.067   7.729 -0.1077  0.4100  0.4226
   30SAPC  H13X 4071   0.506   0.958   7.741 -2.6123  0.8251  1.2190
   30SAPC  H13Y 4072   0.423   1.106   7.757 -0.7314 -1.6796  1.2676
   30SAPC  C314 4073   0.631   1.111   7.825 -0.0313  0.6474  0.3619
   30SAPC  H14X 4074   0.652   1.220   7.825 -0.1776  0.6824 -0.6043
   30SAPC  H14Y 4075   0.728   1.064   7.796 -1.1235 -2.0530  0.7955
   30SAPC  C315 4076   0.604   1.060   7.965 -0.2635 -0.2657 -0.4928
   30SAPC  H15X 4077   0.566   0.955   7.968  2.9922 -1.7898 -4.2032
   30SAPC  H15Y 4078   0.519   1.122   8.000  0.4782  0.9999 -0.8690
   30SAPC  C316 4079   0.725   1.056   8.062  0.5591 -0.3343  1.2329
   30SAPC  H16X 4080   0.759   1.161   8.068 -0.5476  0.1512 -0.3722
   30SAPC  H16Y 4081   0.804   0.989   8.022  1.1945  1.4809 -0.7155
   30SAPC  C317 4082   0.674   1.006   8.205 -0.0403 -0.1077 -0.5382
   30SAPC  H17X 4083   0.624   0.908   8.190  3.5929 -2.2637  0.3733
   30SAPC  H17Y 4084   0.599   1.076   8.249  0.6873 -0.0860  0.6998
   30SAPC  C318 4085   0.797   0.996   8.305 -0.7060  0.1378 -0.2608
   30SAPC  H18X 4086   0.852   1.093   8.305  1.9870 -1.2338  1.7831
   30SAPC  H18Y 4087   0.853   0.908   8.265 -1.1527  0.3990 -1.5038
   30SAPC  H18Z 4088   0.784   0.969   8.412  0.4474  0.8073  0.0670
   31SAPC     N 4089   6.369   3.019   6.298 -0.5048 -0.0079 -0.3069
   31SAPC   C12 4090   6.377   3.145   6.392 -0.4760  0.3201 -0.4974
   31SAPC  H12A 4091   6.275   3.179   6.385 -0.6737  0.6095  2.7215
   31SAPC  H12B 4092   6.429   3.224   6.339 -2.1130  0.8539 -1.3808
   31SAPC   C13 4093   6.500   2.956   6.275  0.1572 -0.5686  0.1505
   31SAPC  H13A 4094   6.489   2.867   6.214  0.3070 -0.2116 -0.3977
   31SAPC  H13B 4095   6.567   3.024   6.226 -1.8880  0.5335 -1.2709
   31SAPC  H13C 4096   6.537   2.927   6.373 -2.4076 -2.0030  0.8084
   31SAPC   C14 4097   6.287   2.914   6.367 -0.8067 -0.1183  0.8577
   31SAPC  H14A 4098   6.202   2.945   6.425  0.1199 -1.1772  2.8765
   31SAPC  H14B 4099   6.254   2.843   6.293 -3.4652  0.8858  0.9862
   31SAPC  H14C 4100   6.348   2.855   6.434 -1.9361 -0.0794  1.9339
   31SAPC   C15 4101   6.316   3.050   6.166  0.2150 -0.6496  0.1389
   31SAPC  H15A 4102   6.303   2.967   6.099  2.1885  0.2169 -1.4308
   31SAPC  H15B 4103   6.218   3.092   6.180 -0.7889 -2.9187  0.1633
   31SAPC  H15C 4104   6.385   3.121   6.122  1.2255  0.9342  3.8984
   31SAPC   C11 4105   6.453   3.131   6.529 -0.3392  0.2266 -0.7574
   31SAPC  H11A 4106   6.425   3.039   6.584  0.9891  0.8883  1.1228
   31SAPC  H11B 4107   6.447   3.220   6.595  0.7958 -1.5791  1.9548
   31SAPC     P 4108   6.685   3.227   6.438  0.3536 -0.2226 -0.3593
   31SAPC   O13 4109   6.830   3.208   6.465 -0.6333  0.0536  0.3831
   31SAPC   O14 4110   6.651   3.220   6.294 -0.1206 -0.5426  0.5370
   31SAPC   O12 4111   6.594   3.120   6.513  0.3500 -0.2677 -0.7351
   31SAPC   O11 4112   6.635   3.364   6.500 -0.5963 -0.1819  0.2013
   31SAPC    C1 4113   6.676   3.397   6.636 -0.0789  0.1467  0.1350
   31SAPC    HA 4114   6.664   3.311   6.706  0.2442  0.6900  0.8687
   31SAPC    HB 4115   6.779   3.437   6.642 -0.7604  2.7119 -2.7246
   31SAPC    C2 4116   6.589   3.508   6.708  0.0900 -0.2586 -0.2163
   31SAPC    HS 4117   6.483   3.477   6.700 -0.1518  0.6752 -0.7065
   31SAPC   O21 4118   6.604   3.631   6.637 -0.3580  0.5772 -0.1989
   31SAPC   C21 4119   6.517   3.729   6.678  0.2894  0.4768  0.2618
   31SAPC   O22 4120   6.414   3.706   6.738  0.3156  0.3642  0.2345
   31SAPC   C22 4121   6.570   3.856   6.612 -0.8106  0.5286  0.5419
   31SAPC   H2R 4122   6.674   3.841   6.575 -0.7156  0.9623  0.6170
   31SAPC   H2S 4123   6.504   3.869   6.523  0.7475 -0.1120 -0.7755
   31SAPC    C3 4124   6.618   3.519   6.860  0.1462 -0.1201 -0.1326
   31SAPC    HX 4125   6.553   3.591   6.914 -0.8834 -0.8411 -0.3779
   31SAPC    HY 4126   6.724   3.552   6.874 -0.0215  2.5125 -3.6003
   31SAPC   O31 4127   6.600   3.390   6.911 -0.8505  0.2385  0.4208
   31SAPC   C31 4128   6.683   3.345   7.005  0.1037 -0.6623 -0.4211
   31SAPC   O32 4129   6.774   3.408   7.055 -0.3089  0.8867 -0.2560
   31SAPC   C32 4130   6.644   3.203   7.041 -0.4005  0.1774 -0.1613
   31SAPC   H2X 4131   6.587   3.168   6.952 -1.4277  1.9844 -0.2575
   31SAPC   H2Y 4132   6.561   3.192   7.114 -1.9267 -0.8495 -1.9477
   31SAPC   C23 4133   6.568   3.974   6.700 -0.1444  0.0931  0.2120
   31SAPC   H3R 4134   6.645   3.953   6.777 -0.6711 -0.9216  0.4809
   31SAPC   H3S 4135   6.479   3.983   6.766 -0.0502 -4.8561  1.4063
   31SAPC   C24 4136   6.605   4.098   6.611 -0.3269 -0.1640  0.0250
   31SAPC   H4R 4137   6.564   4.182   6.672  2.3618  0.9052  0.4745
   31SAPC   H4S 4138   6.557   4.089   6.511  1.5113  2.7874 -1.2488
   31SAPC   C25 4139   6.752   4.123   6.587 -0.1691  0.4761 -0.1006
   31SAPC   H5R 4140   6.811   4.043   6.540  1.3830  2.1045 -1.0525
   31SAPC   C26 4141   6.812   4.237   6.623  0.0834 -0.0324 -0.4953
   31SAPC   H6R 4142   6.919   4.256   6.607 -0.4362  3.2322 -0.6519
   31SAPC   C27 4143   6.754   4.348   6.702 -0.0200 -0.3761  0.9714
   31SAPC   H7R 4144   6.840   4.416   6.719  0.6282 -1.0468  0.4016
   31SAPC   H7S 4145   6.711   4.318   6.800 -0.8431  1.6452  1.2886
   31SAPC   C28 4146   6.647   4.426   6.623 -0.0735  0.4225  0.8965
   31SAPC   H8R 4147   6.661   4.413   6.514  1.9590  0.3125  1.1291
   31SAPC   C29 4148   6.549   4.506   6.670  0.6290  1.0486 -0.4580
   31SAPC   H9R 4149   6.470   4.540   6.601 -1.7864 -3.4556 -0.2905
   31SAPC  C210 4150   6.531   4.539   6.817  1.1557 -0.5521  0.3396
   31SAPC  H10R 4151   6.621   4.597   6.848  1.2913 -0.5505 -0.0454
   31SAPC  H10S 4152   6.542   4.447   6.879 -2.3122  0.0006  1.9706
   31SAPC  C211 4153   6.415   4.617   6.877 -0.1267  0.8277  0.1832
   31SAPC  H11R 4154   6.344   4.655   6.802 -1.6028  1.9668  2.0326
   31SAPC  C212 4155   6.387   4.646   7.006 -0.3606  0.4778 -0.2081
   31SAPC  H12R 4156   6.305   4.717   7.024 -0.2677  0.8574 -1.2134
   31SAPC  C213 4157   6.468   4.601   7.128 -0.4983 -0.7197  0.1564
   31SAPC  H13R 4158   6.529   4.511   7.107  0.5937  0.2756 -1.0311
   31SAPC  H13S 4159   6.390   4.558   7.195 -0.4770  0.4614  0.9743
   31SAPC  C214 4160   6.548   4.712   7.189 -0.7212  0.4854  1.0344
   31SAPC  H14R 4161   6.569   4.803   7.130  1.8206  0.8893  2.4024
   31SAPC  C215 4162   6.623   4.707   7.297  0.2122 -0.0829  0.4063
   31SAPC  H15R 4163   6.673   4.799   7.329 -0.3813  0.5714 -0.5008
   31SAPC  C216 4164   6.629   4.582   7.388 -0.5969 -0.8375  0.2851
   31SAPC  H16R 4165   6.704   4.608   7.467  0.6694 -0.7292 -0.9213
   31SAPC  H16S 4166   6.683   4.500   7.337  0.1707 -1.7721  2.4475
   31SAPC  C217 4167   6.514   4.523   7.472 -0.4901  0.2334  1.1545
   31SAPC  H17R 4168   6.519   4.413   7.460 -0.1908  0.3825 -0.3067
   31SAPC  H17S 4169   6.414   4.543   7.428 -0.1071  1.9657  1.0127
   31SAPC  C218 4170   6.534   4.561   7.611 -0.4377  0.2332  0.1430
   31SAPC  H18R 4171   6.536   4.673   7.614  0.2662  0.2265  0.0767
   31SAPC  H18S 4172   6.630   4.529   7.655 -1.5932 -4.4715 -0.2231
   31SAPC  C219 4173   6.426   4.505   7.716 -0.3101 -0.3151 -0.6783
   31SAPC  H19R 4174   6.437   4.555   7.815 -0.7881  0.1319 -0.8453
   31SAPC  H19S 4175   6.445   4.396   7.719 -1.5702 -0.6253 -2.6278
   31SAPC  C220 4176   6.274   4.512   7.676 -0.6340 -0.0256 -0.1756
   31SAPC  H20R 4177   6.242   4.617   7.657  1.6696  1.0107  1.3458
   31SAPC  H20S 4178   6.211   4.467   7.756 -0.5947  0.6885  0.2663
   31SAPC  H20T 4179   6.258   4.462   7.578  2.0497  0.7462 -1.0864
   31SAPC   C33 4180   6.770   3.112   7.060  0.1337 -0.8301 -0.3108
   31SAPC   H3X 4181   6.849   3.147   6.990  1.7273 -1.3105  1.1862
   31SAPC   H3Y 4182   6.745   3.010   7.024 -0.6088 -0.7772  0.0454
   31SAPC   C34 4183   6.823   3.103   7.208  0.5119  0.3506 -0.3631
   31SAPC   H4X 4184   6.857   3.206   7.231  0.7745  0.3213 -0.6178
   31SAPC   H4Y 4185   6.903   3.026   7.215  0.4673  0.2910 -0.4880
   31SAPC   C35 4186   6.718   3.071   7.320 -0.2245  0.0100 -1.0928
   31SAPC   H5X 4187   6.676   2.968   7.312 -0.4394 -0.0744  0.6528
   31SAPC   H5Y 4188   6.644   3.152   7.333  1.3183  1.2515  0.4352
   31SAPC   C36 4189   6.782   3.077   7.461  0.7954 -0.6920  0.5270
   31SAPC   H6X 4190   6.841   3.170   7.476  1.4462 -1.0158  0.0538
   31SAPC   H6Y 4191   6.859   2.998   7.477  0.2565 -1.2596  0.3801
   31SAPC   C37 4192   6.675   3.069   7.574  0.3386 -0.5553 -0.2260
   31SAPC   H7X 4193   6.617   2.977   7.555 -0.8541  0.5557 -2.3035
   31SAPC   H7Y 4194   6.613   3.160   7.555 -0.5508 -1.3900 -1.4933
   31SAPC   C38 4195   6.743   3.062   7.707  0.3541 -0.2757 -0.4720
   31SAPC   H8X 4196   6.830   2.995   7.721  0.0227 -0.3307  1.6918
   31SAPC   H8Y 4197   6.660   3.023   7.769 -0.7629  0.2341 -1.6038
   31SAPC   C39 4198   6.768   3.196   7.778 -0.4133 -0.2637 -0.4239
   31SAPC   H9X 4199   6.703   3.279   7.745  0.1764  0.4928  0.2820
   31SAPC   H9Y 4200   6.871   3.224   7.747 -0.9752 -0.8095 -3.0494
   31SAPC  C310 4201   6.777   3.174   7.930  0.0019 -0.7016  0.1914
   31SAPC  H10X 4202   6.675   3.139   7.960  0.3203 -2.1968 -0.3919
   31SAPC  H10Y 4203   6.805   3.266   7.986  2.1431  0.0412 -1.9370
   31SAPC  C311 4204   6.871   3.059   7.970 -0.0165  0.2726  0.1079
   31SAPC  H11X 4205   6.973   3.076   7.930 -0.6983  1.7151 -1.0739
   31SAPC  H11Y 4206   6.837   2.961   7.930  0.6892  0.4384 -0.9365
   31SAPC  C312 4207   6.864   3.039   8.121 -0.7302  0.6780  0.0697
   31SAPC  H12X 4208   6.764   3.000   8.148 -0.8190  0.7594 -0.1435
   31SAPC  H12Y 4209   6.888   3.120   8.192  1.1149  0.0219  0.2534
   31SAPC  C313 4210   6.960   2.926   8.164 -0.3113 -0.1194 -0.0209
   31SAPC  H13X 4211   7.062   2.968   8.175 -1.2008  2.0662  0.3973
   31SAPC  H13Y 4212   6.962   2.854   8.080 -0.8427  1.8441 -1.8150
   31SAPC  C314 4213   6.920   2.850   8.292  0.3879 -0.7258  0.1363
   31SAPC  H14X 4214   6.999   2.777   8.317  0.3227 -0.9219 -0.2188
   31SAPC  H14Y 4215   6.830   2.786   8.278 -1.1509  0.9353  1.7204
   31SAPC  C315 4216   6.896   2.962   8.398 -0.2202  0.5887 -0.2328
   31SAPC  H15X 4217   6.803   3.022   8.384  0.4211  1.6404 -0.1143
   31SAPC  H15Y 4218   6.977   3.038   8.382 -0.7854  1.3058  0.2411
   31SAPC  C316 4219   6.895   2.915   8.542  0.4071 -0.0633  0.2514
   31SAPC  H16X 4220   6.810   2.843   8.537 -0.0939  0.0466  4.0392
   31SAPC  H16Y 4221   6.866   2.994   8.614  0.8736  0.3943 -0.0627
   31SAPC  C317 4222   7.013   2.832   8.593  0.0983  0.1202  0.1754
   31SAPC  H17X 4223   7.060   2.789   8.502  1.4617  1.0738  0.4070
   31SAPC  H17Y 4224   6.974   2.742   8.646 -0.0222 -1.1599 -1.9481
   31SAPC  C318 4225   7.123   2.902   8.673 -0.1170 -0.4497 -0.8923
   31SAPC  H18X 4226   7.111   2.920   8.782  2.2849  0.2065 -0.6611
   31SAPC  H18Y 4227   7.147   3.006   8.642  1.0980  0.7144  3.2804
   31SAPC  H18Z 4228   7.215   2.840   8.684  0.7496  1.0318  0.5363
   32SAPC     N 4229   2.147   1.438   5.829  0.2306  0.3032  0.2524
   32SAPC   C12 4230   2.190   1.588   5.824  0.3898 -0.0413 -0.6758
   32SAPC  H12A 4231   2.101   1.648   5.833  0.1262 -0.6982  1.8587
   32SAPC  H12B 4232   2.225   1.616   5.726  0.4268  1.7875 -0.1778
   32SAPC   C13 4233   2.041   1.415   5.724  0.4901 -0.6816  0.8743
   32SAPC  H13A 4234   1.956   1.481   5.736  1.4035  1.0284 -1.2526
   32SAPC  H13B 4235   2.084   1.422   5.625 -0.1351  0.5329  0.6652
   32SAPC  H13C 4236   2.005   1.313   5.726  0.3304 -0.6287  0.7629
   32SAPC   C14 4237   2.259   1.346   5.807  0.8697  0.8444 -0.5848
   32SAPC  H14A 4238   2.334   1.373   5.880 -1.4000 -0.0801  2.2795
   32SAPC  H14B 4239   2.223   1.248   5.834 -2.2353  2.6899  3.1081
   32SAPC  H14C 4240   2.296   1.329   5.707  0.9643 -1.6614 -0.1909
   32SAPC   C15 4241   2.086   1.419   5.958  0.3814  0.3035  0.3693
   32SAPC  H15A 4242   2.028   1.327   5.954 -0.3127  0.7189  0.5953
   32SAPC  H15B 4243   2.171   1.413   6.024  1.4393 -1.9381 -1.0612
   32SAPC  H15C 4244   2.024   1.501   5.992  0.8847  0.7546  0.2133
   32SAPC   C11 4245   2.282   1.651   5.932  0.1054  0.2981 -0.1954
   32SAPC  H11A 4246   2.308   1.752   5.894  2.4429 -0.6346 -1.2971
   32SAPC  H11B 4247   2.373   1.588   5.926 -0.8119 -1.1074  0.0918
   32SAPC     P 4248   2.182   1.768   6.134 -0.1455 -0.0975  0.1392
   32SAPC   O13 4249   2.296   1.864   6.157 -0.1699  0.5703 -0.3866
   32SAPC   O14 4250   2.063   1.816   6.070  0.2256  0.2254  0.0155
   32SAPC   O12 4251   2.228   1.641   6.060 -0.2377  0.9457 -0.2968
   32SAPC   O11 4252   2.140   1.705   6.268 -1.1532  0.2778  0.1663
   32SAPC    C1 4253   2.235   1.668   6.367  0.7466  0.1895  0.2479
   32SAPC    HA 4254   2.234   1.560   6.391 -1.3401  0.2462  0.6804
   32SAPC    HB 4255   2.337   1.692   6.331  0.3406  0.6364 -0.6701
   32SAPC    C2 4256   2.215   1.753   6.495 -0.2440 -0.1887 -0.0472
   32SAPC    HS 4257   2.109   1.742   6.528 -0.7138 -1.0555 -1.6831
   32SAPC   O21 4258   2.248   1.888   6.467 -0.0905 -0.0574 -0.1201
   32SAPC   C21 4259   2.161   1.979   6.448  0.4963 -0.2388  0.0871
   32SAPC   O22 4260   2.046   1.974   6.483 -0.2230  0.3405 -0.3416
   32SAPC   C22 4261   2.229   2.104   6.405 -0.0662  0.1596  0.5090
   32SAPC   H2R 4262   2.310   2.112   6.480 -0.3320 -1.8855  1.0598
   32SAPC   H2S 4263   2.281   2.092   6.308 -0.2030  2.1096  0.1501
   32SAPC    C3 4264   2.313   1.702   6.606 -0.7717  0.0391 -0.1166
   32SAPC    HX 4265   2.406   1.667   6.558 -2.8271 -3.3118 -2.0726
   32SAPC    HY 4266   2.279   1.601   6.637  0.9336 -0.2456  0.9171
   32SAPC   O31 4267   2.321   1.785   6.718  0.5345  0.6897 -0.0761
   32SAPC   C31 4268   2.433   1.854   6.712 -0.0599 -0.1506 -0.0935
   32SAPC   O32 4269   2.514   1.858   6.624 -0.2736 -0.7291 -0.3059
   32SAPC   C32 4270   2.454   1.923   6.845  0.0616 -0.8504  0.4769
   32SAPC   H2X 4271   2.361   1.921   6.906  0.1142  0.4269  0.6128
   32SAPC   H2Y 4272   2.474   2.030   6.827  1.7053 -1.2952 -0.5724
   32SAPC   C23 4273   2.146   2.233   6.411 -1.0355 -1.3791 -0.3754
   32SAPC   H3R 4274   2.040   2.217   6.382 -0.6802 -0.5004 -2.4085
   32SAPC   H3S 4275   2.185   2.293   6.325 -0.7145 -2.3896 -0.9574
   32SAPC   C24 4276   2.150   2.310   6.544 -0.1690 -0.0412 -0.0351
   32SAPC   H4R 4277   2.121   2.227   6.613 -2.1558  0.5177 -0.1265
   32SAPC   H4S 4278   2.069   2.386   6.548 -0.0205  0.2493 -1.9767
   32SAPC   C25 4279   2.287   2.374   6.568  0.0426 -0.3498 -0.5837
   32SAPC   H5R 4280   2.344   2.397   6.477  1.9382  1.6142  0.9898
   32SAPC   C26 4281   2.336   2.404   6.687  0.3811  0.1551 -0.2294
   32SAPC   H6R 4282   2.437   2.446   6.700  0.7155  0.4829 -3.2031
   32SAPC   C27 4283   2.272   2.376   6.826 -0.1919  0.0363  0.5560
   32SAPC   H7R 4284   2.356   2.369   6.899  0.5275  1.9331 -0.0479
   32SAPC   H7S 4285   2.224   2.276   6.824  1.3616 -0.7305 -1.3364
   32SAPC   C28 4286   2.164   2.468   6.878  0.3577  0.4855 -0.2832
   32SAPC   H8R 4287   2.077   2.490   6.814  1.0261  2.1117 -0.6845
   32SAPC   C29 4288   2.158   2.510   7.008  0.1872  0.0297  0.3282
   32SAPC   H9R 4289   2.072   2.570   7.042 -0.1433 -0.6655  0.7375
   32SAPC  C210 4290   2.260   2.479   7.117  0.7171  0.1158 -0.1859
   32SAPC  H10R 4291   2.281   2.577   7.164  0.4939 -0.1608  0.5020
   32SAPC  H10S 4292   2.358   2.448   7.075 -0.6310 -1.4849 -2.3609
   32SAPC  C211 4293   2.208   2.382   7.225  0.4557  0.7772  0.2260
   32SAPC  H11R 4294   2.142   2.300   7.195 -0.6710  1.1969  1.4429
   32SAPC  C212 4295   2.241   2.382   7.354  0.3908 -0.7298  0.2123
   32SAPC  H12R 4296   2.184   2.312   7.416 -1.7809  0.3188 -0.4866
   32SAPC  C213 4297   2.337   2.463   7.430  0.2856  0.5340 -0.0733
   32SAPC  H13R 4298   2.269   2.494   7.511 -0.9076  1.7109 -1.4664
   32SAPC  H13S 4299   2.369   2.552   7.371 -0.5320  0.3295 -0.8538
   32SAPC  C214 4300   2.453   2.374   7.474  1.1577  0.1890  0.2142
   32SAPC  H14R 4301   2.490   2.327   7.382 -0.5535  2.5684 -1.8477
   32SAPC  C215 4302   2.508   2.355   7.593 -0.3769 -0.0757  0.8617
   32SAPC  H15R 4303   2.603   2.300   7.604  1.9452  3.0429 -1.6586
   32SAPC  C216 4304   2.472   2.438   7.719 -0.6090 -0.3430 -0.1586
   32SAPC  H16R 4305   2.386   2.506   7.702  0.0085  0.3307 -0.6246
   32SAPC  H16S 4306   2.555   2.503   7.754  1.5873 -1.8073 -2.2430
   32SAPC  C217 4307   2.454   2.353   7.848  0.5210 -0.1142  0.2466
   32SAPC  H17R 4308   2.425   2.250   7.817 -0.6687  0.3670 -0.3258
   32SAPC  H17S 4309   2.374   2.395   7.913 -0.7734 -2.7731  0.5321
   32SAPC  C218 4310   2.576   2.342   7.936 -0.2873  0.3705 -0.2047
   32SAPC  H18R 4311   2.608   2.440   7.978 -0.4725 -0.3209  1.6629
   32SAPC  H18S 4312   2.663   2.293   7.887  0.5011  1.4359  0.0867
   32SAPC  C219 4313   2.559   2.243   8.050  0.1955 -0.3300  0.1449
   32SAPC  H19R 4314   2.638   2.255   8.127 -0.2736 -2.4340  1.0416
   32SAPC  H19S 4315   2.575   2.136   8.022 -0.2513 -0.2399 -0.4628
   32SAPC  C220 4316   2.428   2.257   8.128  0.3339 -0.1338  0.6812
   32SAPC  H20R 4317   2.340   2.207   8.082 -0.2356 -0.2405  1.8607
   32SAPC  H20S 4318   2.401   2.364   8.143  0.1741  0.0727 -0.9008
   32SAPC  H20T 4319   2.435   2.216   8.231  0.3515  0.6353  0.9918
   32SAPC   C33 4320   2.577   1.865   6.920 -0.2635 -0.0510 -0.2521
   32SAPC   H3X 4321   2.615   1.941   6.991  3.2267 -0.0107 -1.9305
   32SAPC   H3Y 4322   2.655   1.848   6.842 -0.5922 -0.0931 -0.5715
   32SAPC   C34 4323   2.544   1.733   6.999  0.1686 -0.6212  0.1222
   32SAPC   H4X 4324   2.526   1.656   6.921  1.9414  0.4553 -1.4120
   32SAPC   H4Y 4325   2.445   1.746   7.047  0.7910  0.0003  1.2973
   32SAPC   C35 4326   2.664   1.699   7.083  0.1707  1.1322  0.3850
   32SAPC   H5X 4327   2.671   1.795   7.139 -2.7391  0.4513  2.1284
   32SAPC   H5Y 4328   2.756   1.692   7.022 -0.2427  1.8006 -0.3387
   32SAPC   C36 4329   2.632   1.583   7.158  0.3321  0.3146 -0.7667
   32SAPC   H6X 4330   2.726   1.539   7.197 -1.0615 -2.1874 -0.0229
   32SAPC   H6Y 4331   2.586   1.505   7.093 -0.8782  0.5723 -0.2587
   32SAPC   C37 4332   2.543   1.622   7.288 -0.3926 -0.1665 -0.2866
   32SAPC   H7X 4333   2.439   1.647   7.259 -1.5236  0.3631  3.6073
   32SAPC   H7Y 4334   2.590   1.711   7.336  1.4429 -0.8496 -0.7391
   32SAPC   C38 4335   2.527   1.497   7.376 -0.0311 -0.5146 -0.4650
   32SAPC   H8X 4336   2.507   1.408   7.313 -1.6649 -1.9103  1.8596
   32SAPC   H8Y 4337   2.438   1.526   7.437  0.8241  1.9074 -0.2672
   32SAPC   C39 4338   2.651   1.459   7.462  0.2066 -0.4363  0.0692
   32SAPC   H9X 4339   2.679   1.547   7.525  1.4522 -2.3002  2.2434
   32SAPC   H9Y 4340   2.735   1.444   7.391  0.5613  1.1817  0.0962
   32SAPC  C310 4341   2.622   1.333   7.547 -0.0472  0.0477  0.2110
   32SAPC  H10X 4342   2.708   1.301   7.609 -1.4408 -0.4348  1.9711
   32SAPC  H10Y 4343   2.604   1.243   7.484  0.1326 -0.4434  0.8473
   32SAPC  C311 4344   2.516   1.348   7.649  0.6021  0.3500  0.4004
   32SAPC  H11X 4345   2.420   1.357   7.594  0.7481 -1.2066 -0.1665
   32SAPC  H11Y 4346   2.529   1.441   7.708 -1.9516  0.5247  0.8021
   32SAPC  C312 4347   2.482   1.216   7.727  0.0747 -0.3496 -0.3171
   32SAPC  H12X 4348   2.517   1.134   7.662  0.2236  1.3802 -2.5687
   32SAPC  H12Y 4349   2.373   1.193   7.730  0.2473 -1.0903  2.3934
   32SAPC  C313 4350   2.553   1.209   7.859 -0.0369  0.4910 -0.2345
   32SAPC  H13X 4351   2.663   1.219   7.845  0.2220  1.2196  1.9025
   32SAPC  H13Y 4352   2.547   1.103   7.890  0.2152 -0.4350 -3.0679
   32SAPC  C314 4353   2.495   1.295   7.975 -0.3488 -0.0573  0.4706
   32SAPC  H14X 4354   2.384   1.300   7.966 -0.2552  3.5685  0.0148
   32SAPC  H14Y 4355   2.529   1.399   7.958  0.9451 -0.4424  0.6140
   32SAPC  C315 4356   2.545   1.258   8.115 -0.7849 -0.1469  0.0612
   32SAPC  H15X 4357   2.655   1.249   8.124 -0.5524  1.2046 -1.1783
   32SAPC  H15Y 4358   2.503   1.155   8.121 -0.5671 -0.4294 -2.4748
   32SAPC  C316 4359   2.481   1.347   8.227  0.0556 -0.2080  0.3939
   32SAPC  H16X 4360   2.372   1.328   8.225  0.4427 -2.9385  1.4195
   32SAPC  H16Y 4361   2.500   1.451   8.193  1.9116 -0.9195 -0.8886
   32SAPC  C317 4362   2.544   1.331   8.364 -0.4902  0.5831  0.0914
   32SAPC  H17X 4363   2.653   1.355   8.359 -0.0645 -0.9386  1.2302
   32SAPC  H17Y 4364   2.524   1.226   8.394 -3.1341  1.5764  2.2360
   32SAPC  C318 4365   2.490   1.436   8.457 -0.3115  0.6525  0.7862
   32SAPC  H18X 4366   2.385   1.398   8.460  0.6598 -3.7203 -4.6714
   32SAPC  H18Y 4367   2.495   1.544   8.428 -1.3419  0.1218 -1.6135
   32SAPC  H18Z 4368   2.533   1.427   8.559 -0.2985 -0.8391  0.6587
   33POPC     N 4369   2.128   5.220  10.482 -0.2409 -0.2060  0.3437
   33POPC   C12 4370   2.007   5.148  10.414  0.9828  0.1450  0.9044
   33POPC  H12A 4371   1.958   5.220  10.349  1.7298 -1.5629 -1.7157
   33POPC  H12B 4372   1.932   5.124  10.487 -0.8987  1.1729 -0.6040
   33POPC   C13 4373   2.171   5.143  10.600 -0.0976  0.0929 -0.8932
   33POPC  H13A 4374   2.191   5.042  10.569  0.2478  0.0989 -0.6866
   33POPC  H13B 4375   2.269   5.173  10.634 -0.6926  1.3566 -0.2325
   33POPC  H13C 4376   2.109   5.152  10.688  2.2986 -1.2484  1.0362
   33POPC   C14 4377   2.240   5.223  10.387  0.5858  0.0874 -0.8090
   33POPC  H14A 4378   2.250   5.124  10.343  1.1797 -1.8729  3.2351
   33POPC  H14B 4379   2.220   5.286  10.302 -1.2440  0.2698 -0.2850
   33POPC  H14C 4380   2.331   5.264  10.428 -0.2269  2.9512 -1.6584
   33POPC   C15 4381   2.078   5.348  10.539 -0.0591 -0.2118  0.3624
   33POPC  H15A 4382   2.157   5.411  10.576 -0.5298  1.1337 -0.8334
   33POPC  H15B 4383   1.988   5.325  10.595 -0.1761 -0.3651  0.1140
   33POPC  H15C 4384   2.051   5.407  10.452  1.6350 -1.2700 -0.9342
   33POPC   C11 4385   2.037   5.012  10.348 -0.1218 -0.3240 -1.0076
   33POPC  H11A 4386   2.105   5.017  10.260  1.0338  1.9798 -0.0513
   33POPC  H11B 4387   1.946   4.974  10.296  0.1706  0.9410 -2.5203
   33POPC     P 4388   1.992   4.831  10.531 -0.0808 -0.4433 -0.0052
   33POPC   O13 4389   1.857   4.896  10.547 -0.1370  0.2867  0.2980
   33POPC   O14 4390   2.058   4.816  10.660 -0.4142 -0.3606  0.2300
   33POPC   O12 4391   2.087   4.916  10.443  0.3441 -0.4989  0.0250
   33POPC   O11 4392   1.965   4.695  10.453 -0.1546 -0.1124  0.3086
   33POPC    C1 4393   2.070   4.598  10.436 -0.1674  0.5828  0.1522
   33POPC    HA 4394   2.173   4.637  10.454  0.9265 -1.1364 -1.8950
   33POPC    HB 4395   2.058   4.515  10.509 -0.4427  0.7215  0.2666
   33POPC    C2 4396   2.077   4.544  10.283  0.0483  1.0181  0.2031
   33POPC    HS 4397   1.973   4.521  10.252  0.6094 -3.9992  1.1535
   33POPC   O21 4398   2.152   4.426  10.282 -0.2534 -0.2641 -0.0774
   33POPC   C21 4399   2.102   4.316  10.344  0.1730  0.5865  0.3148
   33POPC   O22 4400   1.989   4.305  10.391 -0.1272  0.1329  0.9017
   33POPC   C22 4401   2.200   4.196  10.335 -0.0479  0.3310  0.5438
   33POPC   H2R 4402   2.167   4.121  10.411 -1.9859  0.0986 -0.4501
   33POPC   H2S 4403   2.300   4.235  10.362 -0.0854  0.0721  1.0693
   33POPC    C3 4404   2.151   4.645  10.187  0.5176 -0.1863  0.0077
   33POPC    HX 4405   2.259   4.644  10.211  0.4540  3.6013  1.0569
   33POPC    HY 4406   2.118   4.746  10.217 -0.4802 -1.1521  2.4686
   33POPC   O31 4407   2.116   4.607  10.048 -0.5181 -0.5027  0.2561
   33POPC   C31 4408   2.136   4.710   9.964 -0.6738  1.0445  0.0756
   33POPC   O32 4409   2.177   4.821   9.997 -0.9077 -0.0620  0.2884
   33POPC   C32 4410   2.085   4.663   9.825  0.0709  0.4605 -0.8200
   33POPC   H2X 4411   1.978   4.635   9.840  0.4575 -0.1033  1.2641
   33POPC   H2Y 4412   2.148   4.576   9.799  1.0057  0.8754  0.0073
   33POPC   C23 4413   2.184   4.145  10.184  0.4973  0.2379  0.3366
   33POPC   H3R 4414   2.078   4.127  10.155  1.0901 -1.5010 -0.8971
   33POPC   H3S 4415   2.231   4.045  10.192  2.7822  1.1565 -0.5970
   33POPC   C24 4416   2.279   4.207  10.078  0.3505 -0.6467  0.5159
   33POPC   H4R 4417   2.386   4.192  10.102  0.3869 -1.5370 -0.1604
   33POPC   H4S 4418   2.267   4.318  10.072  0.8457 -0.4829  2.1941
   33POPC   C25 4419   2.260   4.153   9.933  0.1180 -0.4454  0.3332
   33POPC   H5R 4420   2.152   4.162   9.907 -0.5930 -2.1440  2.3891
   33POPC   H5S 4421   2.275   4.044   9.923 -2.1016 -0.6772 -1.1250
   33POPC   C26 4422   2.342   4.216   9.817  0.8695 -0.5641 -0.3940
   33POPC   H6R 4423   2.437   4.229   9.874 -1.0776  1.6110  2.6774
   33POPC   H6S 4424   2.314   4.321   9.797  0.6496 -0.3277  1.0366
   33POPC   C27 4425   2.362   4.129   9.692 -1.1901  0.8025 -0.7004
   33POPC   H7R 4426   2.264   4.121   9.641 -0.1724 -3.0475 -2.4641
   33POPC   H7S 4427   2.413   4.032   9.713  0.0853  1.6114  0.0640
   33POPC   C28 4428   2.474   4.193   9.607 -0.5701 -0.4151 -1.2784
   33POPC   H8R 4429   2.517   4.112   9.544  0.6135  0.0266 -1.0630
   33POPC   H8S 4430   2.552   4.225   9.679 -3.1031  2.2980  0.4921
   33POPC   C29 4431   2.437   4.312   9.520 -0.0041  0.1864 -0.3930
   33POPC   H91 4432   2.391   4.399   9.570 -1.2460  0.0994 -1.3422
   33POPC  C210 4433   2.450   4.318   9.393 -0.5037  0.1356  0.8165
   33POPC  H101 4434   2.402   4.403   9.342 -0.9663 -0.0751  0.8935
   33POPC  C211 4435   2.509   4.224   9.295 -0.2042 -0.1729  0.4082
   33POPC  H11R 4436   2.603   4.183   9.338  0.4667  2.4306  1.6360
   33POPC  H11S 4437   2.553   4.281   9.210  0.1532 -0.6985  0.2357
   33POPC  C212 4438   2.416   4.112   9.239 -0.0383  0.6468 -0.1546
   33POPC  H12R 4439   2.364   4.065   9.326  0.5081 -0.1629 -0.2538
   33POPC  H12S 4440   2.476   4.028   9.199 -0.8887 -0.5487  0.9830
   33POPC  C213 4441   2.317   4.142   9.122 -0.3748 -0.3164  0.3062
   33POPC  H13R 4442   2.239   4.063   9.110  0.3108 -0.6837 -2.2019
   33POPC  H13S 4443   2.374   4.151   9.027 -1.7013  1.2437 -0.3977
   33POPC  C214 4444   2.234   4.272   9.129 -0.3058  0.2901 -0.3839
   33POPC  H14R 4445   2.305   4.356   9.114  1.2689 -1.0763 -0.8072
   33POPC  H14S 4446   2.201   4.287   9.234  0.4834 -0.4877 -0.0161
   33POPC  C215 4447   2.111   4.277   9.038 -0.3098  0.2616  0.1354
   33POPC  H15R 4448   2.062   4.377   9.032 -0.3941  0.1925 -0.4079
   33POPC  H15S 4449   2.034   4.205   9.072 -1.4088  2.1830  1.9733
   33POPC  C216 4450   2.161   4.250   8.886  0.0651 -0.4108 -0.0858
   33POPC  H16R 4451   2.118   4.150   8.864  0.0241 -1.0538  2.6231
   33POPC  H16S 4452   2.270   4.238   8.874  0.1546 -0.5714  0.8720
   33POPC  C217 4453   2.118   4.357   8.789 -0.3585  0.1828  0.3517
   33POPC  H17R 4454   2.178   4.450   8.788  1.3816 -0.9028 -1.0044
   33POPC  H17S 4455   2.015   4.394   8.808 -1.7285 -2.9412 -0.3512
   33POPC  C218 4456   2.111   4.305   8.643 -0.6145  0.6304 -0.5689
   33POPC  H18R 4457   2.060   4.208   8.630  0.3452  0.0230  0.1113
   33POPC  H18S 4458   2.210   4.290   8.595 -0.3757  1.4004 -0.3410
   33POPC  H18T 4459   2.061   4.383   8.582 -0.8759  0.9423  0.0331
   33POPC   C33 4460   2.106   4.774   9.718 -0.0810 -0.1870  0.1312
   33POPC   H3X 4461   2.216   4.793   9.720 -0.1262  0.4613 -1.4997
   33POPC   H3Y 4462   2.061   4.874   9.738 -2.0284 -1.4559  2.5624
   33POPC   C34 4463   2.061   4.728   9.582 -0.0588  0.6213 -0.0348
   33POPC   H4X 4464   1.951   4.743   9.585 -0.2912 -0.5407 -1.4367
   33POPC   H4Y 4465   2.064   4.618   9.572  0.4654  0.5745  0.5767
   33POPC   C35 4466   2.117   4.798   9.460 -0.4432 -0.1985 -0.5256
   33POPC   H5X 4467   2.225   4.771   9.465 -0.0548  1.3961  0.3931
   33POPC   H5Y 4468   2.109   4.908   9.457  0.0482 -0.0772  1.1607
   33POPC   C36 4469   2.050   4.744   9.333 -0.4490 -0.3659  0.0016
   33POPC   H6X 4470   1.945   4.781   9.331 -0.5555 -0.6442  0.3648
   33POPC   H6Y 4471   2.048   4.634   9.348 -0.6390 -0.6113 -1.6958
   33POPC   C37 4472   2.140   4.774   9.210  0.2074 -0.4625 -0.7112
   33POPC   H7X 4473   2.244   4.753   9.245 -0.4002 -2.6512 -0.0509
   33POPC   H7Y 4474   2.122   4.878   9.176 -2.1556 -0.3695  0.6340
   33POPC   C38 4475   2.112   4.682   9.093 -0.6879 -0.4832 -0.1246
   33POPC   H8X 4476   2.005   4.696   9.067 -1.6314 -0.6638  3.2334
   33POPC   H8Y 4477   2.135   4.576   9.119 -0.7919 -0.7610 -1.1236
   33POPC   C39 4478   2.189   4.721   8.971 -0.1512 -0.3811 -0.1568
   33POPC   H9X 4479   2.206   4.626   8.915 -0.8278 -1.3273  1.2070
   33POPC   H9Y 4480   2.296   4.739   8.996  0.0974 -1.0071 -0.7139
   33POPC  C310 4481   2.122   4.816   8.879  0.1369 -0.4875  0.1809
   33POPC  H10X 4482   2.132   4.920   8.918  0.1663 -0.1496 -0.7043
   33POPC  H10Y 4483   2.014   4.791   8.880  0.3008 -1.7324  3.9987
   33POPC  C311 4484   2.204   4.817   8.748 -0.5376  0.1762 -0.1038
   33POPC  H11X 4485   2.160   4.895   8.682  0.3754  0.9519  0.1761
   33POPC  H11Y 4486   2.178   4.719   8.703  0.8421 -0.6871  0.8942
   33POPC  C312 4487   2.359   4.836   8.756  0.2602  0.5457 -0.1597
   33POPC  H12X 4488   2.403   4.757   8.821 -1.5771 -0.2351  0.2274
   33POPC  H12Y 4489   2.372   4.928   8.817 -0.9380  0.8745 -0.3771
   33POPC  C313 4490   2.426   4.844   8.618 -0.0729  0.5348 -0.6594
   33POPC  H13X 4491   2.384   4.928   8.560 -0.2434 -0.7196 -2.4223
   33POPC  H13Y 4492   2.394   4.755   8.560  0.7149  0.6271 -1.2550
   33POPC  C314 4493   2.578   4.863   8.620 -0.5524  0.4541  0.5866
   33POPC  H14X 4494   2.630   4.777   8.667 -0.3173 -1.0541 -2.2332
   33POPC  H14Y 4495   2.602   4.956   8.676  0.2401  0.9000 -0.4803
   33POPC  C315 4496   2.642   4.883   8.477 -0.2630  0.4753 -0.3876
   33POPC  H15X 4497   2.611   4.794   8.418 -1.4413 -1.3866  2.7759
   33POPC  H15Y 4498   2.753   4.878   8.478 -0.2703 -0.3345  2.0989
   33POPC  C316 4499   2.603   5.007   8.401  0.4950 -0.0860 -0.2329
   33POPC  H16X 4500   2.585   5.091   8.472  1.0695 -0.5427  0.4766
   33POPC  H16Y 4501   2.504   4.982   8.358 -0.1612 -3.2787  2.6507
   33POPC  H16Z 4502   2.665   5.038   8.314  3.1563 -1.3333  1.0796
   34POPC     N 4503   0.979   0.248  10.756 -0.4017 -0.6136 -0.2823
   34POPC   C12 4504   0.861   0.305  10.683  0.0646  0.2800 -0.4841
   34POPC  H12A 4505   0.846   0.232  10.605 -1.6958  0.0055  0.0671
   34POPC  H12B 4506   0.882   0.393  10.624 -0.4725 -0.4899 -1.8705
   34POPC   C13 4507   0.944   0.115  10.816  0.1850  0.8240 -0.1762
   34POPC  H13A 4508   0.873   0.129  10.896  1.5029 -0.2156  1.2201
   34POPC  H13B 4509   0.901   0.050  10.740  0.3057  0.7812 -0.2072
   34POPC  H13C 4510   1.029   0.065  10.858 -0.6841 -0.2055  0.4115
   34POPC   C14 4511   1.086   0.220  10.652  0.0848 -1.0656 -0.2699
   34POPC  H14A 4512   1.177   0.208  10.708  0.7149  1.4094 -0.6119
   34POPC  H14B 4513   1.070   0.131  10.593  3.4218  0.5112 -4.0929
   34POPC  H14C 4514   1.102   0.306  10.588 -1.4794 -1.9158 -1.8891
   34POPC   C15 4515   1.033   0.344  10.851  0.6318 -0.1383 -0.4445
   34POPC  H15A 4516   1.072   0.429  10.797  0.1650  0.3261 -0.0512
   34POPC  H15B 4517   1.108   0.301  10.916  0.9746 -1.5692 -1.7409
   34POPC  H15C 4518   0.950   0.381  10.909  0.7505 -2.1603  1.1495
   34POPC   C11 4519   0.731   0.335  10.760 -0.3527  0.4254  0.0421
   34POPC  H11A 4520   0.741   0.426  10.823 -0.1182  0.3428  0.1271
   34POPC  H11B 4521   0.693   0.261  10.833 -0.3668 -0.3522 -0.7392
   34POPC     P 4522   0.590   0.496  10.600  0.1880  0.4675  0.1181
   34POPC   O13 4523   0.581   0.603  10.700 -0.1882  0.3012 -0.4911
   34POPC   O14 4524   0.479   0.477  10.506  0.2344  0.0999 -0.6059
   34POPC   O12 4525   0.626   0.357  10.665 -0.0382 -0.1141 -0.0001
   34POPC   O11 4526   0.711   0.529  10.505  0.3322 -0.0534  0.0274
   34POPC    C1 4527   0.752   0.669  10.492  0.5555  0.2831  0.1643
   34POPC    HA 4528   0.806   0.700  10.583 -1.1955  2.7843  0.4696
   34POPC    HB 4529   0.666   0.738  10.476  0.2061  0.0365  0.9474
   34POPC    C2 4530   0.848   0.702  10.367  0.3481  0.8879 -0.4667
   34POPC    HS 4531   0.877   0.809  10.371  0.6789  0.7744  0.9384
   34POPC   O21 4532   0.776   0.669  10.250  0.4750 -0.3819  0.0932
   34POPC   C21 4533   0.695   0.768  10.210  0.2356  0.3250 -0.3377
   34POPC   O22 4534   0.692   0.883  10.253 -1.1782 -0.5451 -0.6433
   34POPC   C22 4535   0.626   0.725  10.085 -0.0683  0.0386  0.0005
   34POPC   H2R 4536   0.551   0.644  10.092  0.3792 -0.7289 -2.8011
   34POPC   H2S 4537   0.706   0.686  10.018  2.1143  1.8953  1.3651
   34POPC    C3 4538   0.986   0.638  10.368  0.1732  0.1651  0.1593
   34POPC    HX 4539   0.965   0.529  10.380  0.9990 -0.0463 -0.2550
   34POPC    HY 4540   1.046   0.670  10.456  1.4842 -0.8474 -0.3248
   34POPC   O31 4541   1.058   0.668  10.246  0.9502  0.8239 -0.0097
   34POPC   C31 4542   1.038   0.592  10.136 -0.1151  0.0711 -0.4622
   34POPC   O32 4543   0.976   0.490  10.134  0.2672 -0.0510 -0.1034
   34POPC   C32 4544   1.105   0.646  10.011  0.1883 -0.0157 -0.0014
   34POPC   H2X 4545   1.165   0.562   9.970 -0.8964 -0.7014 -0.2116
   34POPC   H2Y 4546   1.156   0.743  10.031 -2.6082  1.7832 -1.0040
   34POPC   C23 4547   0.548   0.852  10.037 -0.4549  0.3932 -0.7720
   34POPC   H3R 4548   0.616   0.938  10.017 -1.5839  1.6494  0.6127
   34POPC   H3S 4549   0.476   0.891  10.112  0.1138 -0.6350  0.3532
   34POPC   C24 4550   0.467   0.826   9.908 -0.4086 -0.5205 -0.4402
   34POPC   H4R 4551   0.393   0.743   9.907 -0.2395 -0.6878  0.4655
   34POPC   H4S 4552   0.541   0.803   9.828  0.4654 -0.6228  0.3861
   34POPC   C25 4553   0.383   0.948   9.856  0.3356  0.6003 -0.0652
   34POPC   H5R 4554   0.433   1.046   9.839 -1.5235  1.3947 -1.3204
   34POPC   H5S 4555   0.317   0.972   9.942 -0.6641  1.3719 -1.0177
   34POPC   C26 4556   0.294   0.911   9.736 -0.3146 -1.0307 -0.6551
   34POPC   H6R 4557   0.214   0.985   9.757  0.4900 -0.6274  1.1814
   34POPC   H6S 4558   0.251   0.809   9.747 -0.4420 -1.1875 -2.2687
   34POPC   C27 4559   0.364   0.936   9.606 -0.1369  0.0205  0.5252
   34POPC   H7R 4560   0.455   0.874   9.589  0.7212  0.8563  1.8774
   34POPC   H7S 4561   0.383   1.045   9.600 -2.1833  0.5038  1.6627
   34POPC   C28 4562   0.263   0.885   9.500 -0.2476 -0.5873 -0.6713
   34POPC   H8R 4563   0.166   0.937   9.511  0.7488  1.7264 -2.1030
   34POPC   H8S 4564   0.244   0.776   9.515 -0.1820 -0.5456 -0.2793
   34POPC   C29 4565   0.315   0.893   9.364  0.1269  0.7089  0.0051
   34POPC   H91 4566   0.417   0.856   9.346 -0.7886 -1.7098 -0.6542
   34POPC  C210 4567   0.253   0.938   9.257  0.6487 -0.8125  0.0959
   34POPC  H101 4568   0.315   0.945   9.166 -0.8511  1.3308 -0.8465
   34POPC  C211 4569   0.110   0.992   9.240 -0.2843 -0.4239 -0.2487
   34POPC  H11R 4570   0.105   1.101   9.222 -0.0763 -0.5842 -1.3488
   34POPC  H11S 4571   0.048   0.965   9.328 -0.6288  1.1726  0.0258
   34POPC  C212 4572   0.035   0.931   9.118  0.4761 -0.0800 -0.2596
   34POPC  H12R 4573   0.096   0.956   9.029  0.1145 -2.1442 -1.1388
   34POPC  H12S 4574  -0.060   0.986   9.104 -0.6402 -0.9250  3.0920
   34POPC  C213 4575  -0.002   0.782   9.128 -0.1492  0.5845 -0.3719
   34POPC  H13R 4576  -0.075   0.773   9.211 -0.1177 -0.0806 -0.4062
   34POPC  H13S 4577   0.092   0.729   9.155  0.8824  2.5527  0.1000
   34POPC  C214 4578  -0.062   0.715   9.006 -0.2268 -0.2118  0.2526
   34POPC  H14R 4579  -0.006   0.739   8.914 -1.7231 -0.4885 -0.7744
   34POPC  H14S 4580  -0.166   0.753   8.993 -0.3428 -0.6936 -0.2695
   34POPC  C215 4581  -0.066   0.562   9.019  0.0433 -0.1252  0.0801
   34POPC  H15R 4582  -0.133   0.533   9.103 -2.7722 -1.1627 -2.3359
   34POPC  H15S 4583   0.042   0.545   9.040  0.6246  0.0782 -2.4682
   34POPC  C216 4584  -0.108   0.501   8.883 -0.3353  1.2062 -0.1706
   34POPC  H16R 4585  -0.069   0.562   8.798 -1.3933  1.8673 -0.1972
   34POPC  H16S 4586  -0.219   0.497   8.875 -0.1960 -0.5444 -2.3516
   34POPC  C217 4587  -0.048   0.355   8.854  0.6070 -0.1036  0.0864
   34POPC  H17R 4588  -0.104   0.293   8.927 -3.0537  1.7227 -0.9680
   34POPC  H17S 4589   0.062   0.346   8.871  0.3248 -1.0725  1.6648
   34POPC  C218 4590  -0.085   0.300   8.715  0.7111 -0.6016  0.1706
   34POPC  H18R 4591  -0.043   0.361   8.632  1.2454  1.2671  1.7353
   34POPC  H18S 4592  -0.195   0.308   8.699  0.9346 -1.2718 -2.0118
   34POPC  H18T 4593  -0.053   0.194   8.703  1.1733 -0.5524  0.9732
   34POPC   C33 4594   0.988   0.687   9.920  0.0261  0.1826 -0.0154
   34POPC   H3X 4595   0.918   0.754   9.975  1.5712  1.1654  0.8285
   34POPC   H3Y 4596   0.920   0.603   9.894 -0.7695  0.7723  0.1269
   34POPC   C34 4597   1.031   0.750   9.789 -0.5875  0.0522  0.4664
   34POPC   H4X 4598   1.108   0.689   9.737  1.1104  1.4853  1.1711
   34POPC   H4Y 4599   1.088   0.844   9.807  1.4628 -0.5991 -2.0645
   34POPC   C35 4600   0.908   0.768   9.695 -0.6226  0.3896 -0.4044
   34POPC   H5X 4601   0.833   0.839   9.735  0.0226  0.8153  0.0675
   34POPC   H5Y 4602   0.855   0.672   9.677  1.5072 -0.7789 -0.8079
   34POPC   C36 4603   0.938   0.827   9.557  0.8096  0.1504 -0.2957
   34POPC   H6X 4604   1.028   0.776   9.517  1.9433  0.0476  2.1696
   34POPC   H6Y 4605   0.981   0.929   9.556  0.8295  0.2192  1.9524
   34POPC   C37 4606   0.823   0.823   9.459  0.5715 -0.2404 -0.3698
   34POPC   H7X 4607   0.730   0.865   9.502  0.1255 -1.7174  0.1691
   34POPC   H7Y 4608   0.791   0.719   9.437 -1.0509  0.2057 -0.1879
   34POPC   C38 4609   0.873   0.882   9.325 -0.9330  0.2688  0.7792
   34POPC   H8X 4610   0.940   0.801   9.287 -0.5915  0.1386  1.6540
   34POPC   H8Y 4611   0.935   0.969   9.353 -2.3805  1.0351  1.7079
   34POPC   C39 4612   0.763   0.906   9.224  0.5272  0.2711 -0.3565
   34POPC   H9X 4613   0.689   0.969   9.277  1.8148  1.4493  0.0915
   34POPC   H9Y 4614   0.712   0.808   9.209 -0.0881  0.3289  1.1992
   34POPC  C310 4615   0.799   0.957   9.087  0.8314  0.4387  0.3856
   34POPC  H10X 4616   0.860   0.876   9.041  0.5525  0.7417 -0.5423
   34POPC  H10Y 4617   0.863   1.045   9.111  1.2148 -0.5039  3.1732
   34POPC  C311 4618   0.673   1.012   9.013 -0.3446 -1.1231  0.7069
   34POPC  H11X 4619   0.715   1.062   8.923  0.3497  0.4360  1.8313
   34POPC  H11Y 4620   0.618   1.084   9.077 -2.0726 -2.0467  0.3128
   34POPC  C312 4621   0.571   0.906   8.975  0.8034 -0.2890  0.4675
   34POPC  H12X 4622   0.519   0.865   9.064 -0.3216  0.4911  0.2009
   34POPC  H12Y 4623   0.627   0.817   8.939  0.2603 -0.5702  0.3066
   34POPC  C313 4624   0.474   0.973   8.873  0.8509 -0.0104  0.0120
   34POPC  H13X 4625   0.530   1.041   8.806  0.1803 -0.2391 -0.7943
   34POPC  H13Y 4626   0.406   1.032   8.939  0.1645 -1.2441  0.4439
   34POPC  C314 4627   0.399   0.869   8.795  0.1438  0.0092  0.2143
   34POPC  H14X 4628   0.317   0.821   8.852  0.0204 -0.4602 -0.3503
   34POPC  H14Y 4629   0.471   0.792   8.759  1.4366 -0.2321  3.0434
   34POPC  C315 4630   0.299   0.922   8.686  0.3149 -0.5480 -0.9757
   34POPC  H15X 4631   0.349   0.997   8.620 -1.8455  2.0822  0.2136
   34POPC  H15Y 4632   0.215   0.977   8.733  0.7822 -1.0128  0.4512
   34POPC  C316 4633   0.231   0.813   8.606 -0.3417 -0.1643 -0.3728
   34POPC  H16X 4634   0.313   0.774   8.541 -0.4148  0.9137 -1.1364
   34POPC  H16Y 4635   0.148   0.858   8.548 -0.3054 -0.1665 -0.4265
   34POPC  H16Z 4636   0.189   0.738   8.677 -1.1604 -0.9642 -1.6578
   35POPC     N 4637   6.044   2.651  10.830  0.2540 -0.4578 -0.1704
   35POPC   C12 4638   6.020   2.792  10.785  0.1081  0.0137  0.2481
   35POPC  H12A 4639   5.920   2.799  10.744  0.2169  1.4145  0.1646
   35POPC  H12B 4640   6.085   2.813  10.701 -2.7127  3.1393 -1.3858
   35POPC   C13 4641   6.182   2.625  10.869  0.4639  0.5645 -0.0541
   35POPC  H13A 4642   6.250   2.654  10.790 -0.4485  0.2795 -0.9692
   35POPC  H13B 4643   6.215   2.686  10.952  1.3866 -1.5252  1.1981
   35POPC  H13C 4644   6.199   2.520  10.888  1.0949  0.5591 -0.5899
   35POPC   C14 4645   5.958   2.606  10.953 -0.0531  0.6647  0.5379
   35POPC  H14A 4646   5.975   2.676  11.034  1.8299  1.8777 -0.8113
   35POPC  H14B 4647   5.856   2.608  10.918  0.4853  2.6408 -1.1955
   35POPC  H14C 4648   5.987   2.512  10.997 -0.8890 -0.2421 -0.7817
   35POPC   C15 4649   6.009   2.551  10.727 -0.4140  0.4848  0.0821
   35POPC  H15A 4650   6.069   2.566  10.638 -0.2470 -0.7027 -0.0204
   35POPC  H15B 4651   5.903   2.543  10.709 -0.3034 -0.3747 -0.2540
   35POPC  H15C 4652   6.026   2.450  10.763 -0.9660  1.3105  2.8912
   35POPC   C11 4653   6.040   2.907  10.884  0.1310 -0.0453 -0.1845
   35POPC  H11A 4654   6.028   2.998  10.821  1.2956  0.5482  0.4281
   35POPC  H11B 4655   6.147   2.902  10.912  0.0122  4.2678  1.9238
   35POPC     P 4656   5.807   2.967  10.970 -0.0663  0.2777 -0.1121
   35POPC   O13 4657   5.797   3.109  11.017  0.1659  0.4293  0.3610
   35POPC   O14 4658   5.709   2.866  11.021  0.2672 -0.0020 -0.0699
   35POPC   O12 4659   5.954   2.916  11.000 -0.0775 -0.0249  1.1145
   35POPC   O11 4660   5.797   2.969  10.812 -0.5650 -0.0667  0.4649
   35POPC    C1 4661   5.687   2.993  10.731  0.1408 -0.2096  0.2248
   35POPC    HA 4662   5.647   3.095  10.751  1.1276  0.1470  0.4518
   35POPC    HB 4663   5.616   2.909  10.744  0.9028 -0.7353  1.1636
   35POPC    C2 4664   5.737   3.001  10.578 -0.1583  0.3661 -0.6665
   35POPC    HS 4665   5.646   3.020  10.518 -1.1828 -1.3228  0.2712
   35POPC   O21 4666   5.800   2.879  10.532  0.0831  0.4068  0.0164
   35POPC   C21 4667   5.721   2.781  10.514  0.1019 -0.2492  0.4250
   35POPC   O22 4668   5.599   2.777  10.540  0.1878 -0.3205 -0.6651
   35POPC   C22 4669   5.797   2.669  10.450  0.0938 -0.2621  0.3713
   35POPC   H2R 4670   5.733   2.579  10.453  3.5006 -2.9364 -0.9168
   35POPC   H2S 4671   5.887   2.637  10.507 -0.3267 -2.5582 -0.1856
   35POPC    C3 4672   5.841   3.112  10.559 -0.0236 -0.7406  0.6015
   35POPC    HX 4673   5.943   3.075  10.580  0.4406 -0.0812 -0.3700
   35POPC    HY 4674   5.817   3.192  10.632 -0.3847 -1.5251  1.3524
   35POPC   O31 4675   5.828   3.178  10.432 -0.1451  0.1416 -0.0472
   35POPC   C31 4676   5.902   3.127  10.334  0.1875 -1.1230  0.0888
   35POPC   O32 4677   5.973   3.033  10.337 -0.3991  0.1563  0.5085
   35POPC   C32 4678   5.890   3.225  10.217  0.3923  0.5121 -0.0365
   35POPC   H2X 4679   5.957   3.312  10.236  2.6948 -1.3893  0.9509
   35POPC   H2Y 4680   5.785   3.261  10.218  0.2035 -0.0455  0.6622
   35POPC   C23 4681   5.820   2.706  10.300 -0.0313  0.4615 -0.7289
   35POPC   H3R 4682   5.910   2.644  10.281  1.3613  2.7014 -1.8346
   35POPC   H3S 4683   5.839   2.815  10.290  0.0607  0.6388  1.0176
   35POPC   C24 4684   5.699   2.673  10.205 -0.1177  0.1521 -0.6077
   35POPC   H4R 4685   5.714   2.740  10.117  0.9144  2.0365  0.9315
   35POPC   H4S 4686   5.604   2.706  10.252  0.6400  2.9438 -0.8419
   35POPC   C25 4687   5.688   2.524  10.163 -0.7426  0.8114 -0.2085
   35POPC   H5R 4688   5.701   2.456  10.250 -0.5756  1.3872  0.2223
   35POPC   H5S 4689   5.768   2.506  10.088 -0.2835 -0.8782  0.6309
   35POPC   C26 4690   5.551   2.480  10.102  0.1856  0.6548  0.2893
   35POPC   H6R 4691   5.521   2.553  10.024 -1.8082  0.0652  0.4500
   35POPC   H6S 4692   5.468   2.501  10.173 -2.6496 -1.7039 -2.0685
   35POPC   C27 4693   5.545   2.338  10.034 -0.4935  0.0842 -0.3212
   35POPC   H7R 4694   5.441   2.320   9.998 -0.4450 -0.7170 -0.0765
   35POPC   H7S 4695   5.569   2.259  10.108  1.6926  2.2725  1.4460
   35POPC   C28 4696   5.646   2.308   9.918 -0.0791  0.1191 -0.2888
   35POPC   H8R 4697   5.751   2.335   9.943  0.7227 -3.2979  0.5893
   35POPC   H8S 4698   5.617   2.370   9.830 -1.6868 -2.0216 -1.3692
   35POPC   C29 4699   5.661   2.166   9.872 -0.0160 -1.1142  0.2217
   35POPC   H91 4700   5.672   2.098   9.958 -0.5559  2.3040  3.2354
   35POPC  C210 4701   5.656   2.114   9.752 -0.1698 -0.5111 -0.0965
   35POPC  H101 4702   5.685   2.008   9.745  0.8815 -0.2744  0.4684
   35POPC  C211 4703   5.631   2.183   9.623 -0.0009  0.6531  0.1312
   35POPC  H11R 4704   5.544   2.252   9.631  0.6105  1.4365  0.1819
   35POPC  H11S 4705   5.599   2.109   9.547  0.2277  0.6779  0.0082
   35POPC  C212 4706   5.754   2.246   9.571 -0.0665 -0.1278 -0.4111
   35POPC  H12R 4707   5.841   2.179   9.555 -0.3348 -0.5927  0.0191
   35POPC  H12S 4708   5.783   2.330   9.637 -0.6751  0.0510 -0.3600
   35POPC  C213 4709   5.735   2.307   9.428  0.4857  0.3631 -0.2693
   35POPC  H13R 4710   5.661   2.388   9.441 -0.4882 -0.4546 -0.5909
   35POPC  H13S 4711   5.688   2.228   9.367 -0.1106 -0.4623  1.1990
   35POPC  C214 4712   5.856   2.365   9.349  0.3434  0.3837 -1.2202
   35POPC  H14R 4713   5.939   2.295   9.327  0.2589  0.0222 -0.4187
   35POPC  H14S 4714   5.908   2.435   9.419 -2.0218  1.2875 -0.2642
   35POPC  C215 4715   5.825   2.449   9.226 -0.2666 -0.6107 -0.2859
   35POPC  H15R 4716   5.902   2.529   9.224 -1.7963  0.9833  0.7113
   35POPC  H15S 4717   5.728   2.501   9.244  1.2574  2.0107  0.9197
   35POPC  C216 4718   5.807   2.370   9.102  0.4660 -0.0718 -0.0594
   35POPC  H16R 4719   5.743   2.280   9.109  0.4189 -0.0266  0.1180
   35POPC  H16S 4720   5.898   2.315   9.073  0.6434  0.3835 -0.3791
   35POPC  C217 4721   5.763   2.448   8.981 -0.7217 -0.2318  0.0786
   35POPC  H17R 4722   5.838   2.529   8.966  0.4924 -1.3493 -0.0456
   35POPC  H17S 4723   5.668   2.499   9.008 -0.1585  0.1664  1.3384
   35POPC  C218 4724   5.764   2.375   8.852 -0.5494  0.4641 -0.0816
   35POPC  H18R 4725   5.840   2.298   8.830  0.6953  2.4701 -3.7737
   35POPC  H18S 4726   5.779   2.447   8.768 -1.5319 -0.2841 -0.9213
   35POPC  H18T 4727   5.674   2.314   8.831 -0.7032  1.0274 -1.1378
   35POPC   C33 4728   5.906   3.152  10.080 -0.0638  1.1178 -0.7888
   35POPC   H3X 4729   5.846   3.058  10.077 -0.2795  1.2651 -1.5406
   35POPC   H3Y 4730   6.011   3.125  10.057  0.4110  2.9465 -0.8969
   35POPC   C34 4731   5.849   3.239   9.966 -0.0281  0.5825 -0.7408
   35POPC   H4X 4732   5.899   3.338   9.964  1.2887 -0.0709 -1.6991
   35POPC   H4Y 4733   5.739   3.250   9.978 -0.0590 -1.1985  0.9633
   35POPC   C35 4734   5.892   3.183   9.828 -0.4414  0.4313 -0.1732
   35POPC   H5X 4735   5.824   3.097   9.809 -0.2393  0.4116 -0.8211
   35POPC   H5Y 4736   5.996   3.145   9.835 -1.0302 -1.5422 -1.0951
   35POPC   C36 4737   5.883   3.281   9.712 -0.4459 -0.7195 -0.1636
   35POPC   H6X 4738   5.964   3.356   9.725 -1.3041  0.1870  0.1640
   35POPC   H6Y 4739   5.779   3.319   9.704  0.1133  0.7993 -0.6957
   35POPC   C37 4740   5.918   3.203   9.582  0.4820  0.2314 -0.1232
   35POPC   H7X 4741   5.999   3.132   9.610 -1.1875 -1.3070  0.9851
   35POPC   H7Y 4742   5.961   3.277   9.510  1.0652 -1.2712 -1.3724
   35POPC   C38 4743   5.798   3.130   9.519 -0.4895 -0.4775  0.5382
   35POPC   H8X 4744   5.723   3.212   9.511  0.6592  0.5840  0.3577
   35POPC   H8Y 4745   5.748   3.064   9.594  1.1928 -1.0160  1.2477
   35POPC   C39 4746   5.830   3.060   9.389 -0.0622  0.3684 -0.2428
   35POPC   H9X 4747   5.924   3.001   9.393  0.4677  1.1327 -0.9604
   35POPC   H9Y 4748   5.820   3.139   9.311 -0.3436 -0.3326 -0.9300
   35POPC  C310 4749   5.713   2.973   9.359  0.7409 -0.6368  0.0004
   35POPC  H10X 4750   5.620   3.033   9.346  2.1173  2.0597  1.7174
   35POPC  H10Y 4751   5.697   2.905   9.446 -1.5951  0.6676  0.6629
   35POPC  C311 4752   5.737   2.889   9.237 -0.3583  0.2417 -0.2300
   35POPC  H11X 4753   5.653   2.817   9.224  0.6620 -1.4695  2.0439
   35POPC  H11Y 4754   5.826   2.825   9.253  0.6460  1.8655  0.9297
   35POPC  C312 4755   5.739   2.963   9.102 -0.1605 -0.4042  0.7579
   35POPC  H12X 4756   5.797   3.057   9.108 -1.9968  0.8733 -0.2838
   35POPC  H12Y 4757   5.633   2.987   9.074 -0.6207 -3.5285 -0.5964
   35POPC  C313 4758   5.789   2.873   8.991 -0.3002 -0.0711  0.2972
   35POPC  H13X 4759   5.777   2.766   9.019 -1.6510  0.0569  0.3016
   35POPC  H13Y 4760   5.899   2.882   8.992 -0.3348  0.4547 -0.1536
   35POPC  C314 4761   5.730   2.894   8.850 -0.0970 -0.2690  0.2618
   35POPC  H14X 4762   5.750   2.996   8.811 -0.6005  0.2133  1.2240
   35POPC  H14Y 4763   5.621   2.875   8.859 -0.0584 -0.2856  0.7189
   35POPC  C315 4764   5.785   2.789   8.760  0.3953  0.1024  0.5383
   35POPC  H15X 4765   5.755   2.691   8.802  1.3749 -1.2586 -1.7154
   35POPC  H15Y 4766   5.895   2.805   8.769  0.6283 -0.4546 -1.0359
   35POPC  C316 4767   5.741   2.794   8.613  0.1511  0.5020  0.1756
   35POPC  H16X 4768   5.798   2.875   8.561 -0.8363  0.1788 -1.4588
   35POPC  H16Y 4769   5.640   2.839   8.613 -0.8162 -0.9973  5.1703
   35POPC  H16Z 4770   5.746   2.701   8.553 -0.5592  1.7277 -1.8833
   36POPC     N 4771   6.537   1.472  11.451 -0.5204 -0.0888 -0.4059
   36POPC   C12 4772   6.574   1.606  11.418 -0.3883 -0.2053 -0.0080
   36POPC  H12A 4773   6.680   1.625  11.417 -0.3235 -0.4837 -1.8659
   36POPC  H12B 4774   6.537   1.670  11.497  0.1107  2.5325 -1.8495
   36POPC   C13 4775   6.387   1.454  11.460 -0.4897  0.4059 -0.3781
   36POPC  H13A 4776   6.347   1.479  11.363 -1.5080 -1.2306 -0.4037
   36POPC  H13B 4777   6.352   1.355  11.483 -0.6252  0.6885  0.7157
   36POPC  H13C 4778   6.349   1.529  11.529 -1.8593 -0.9920  0.4378
   36POPC   C14 4779   6.578   1.376  11.349 -0.6195  0.1598 -0.2700
   36POPC  H14A 4780   6.684   1.382  11.332 -0.5842 -1.4958 -0.8410
   36POPC  H14B 4781   6.568   1.272  11.378  3.0747 -0.4019 -0.4960
   36POPC  H14C 4782   6.522   1.407  11.262  0.6462  0.1891 -1.0970
   36POPC   C15 4783   6.600   1.431  11.582  0.1794 -0.8374 -0.4225
   36POPC  H15A 4784   6.583   1.516  11.646 -0.7579  0.3560 -2.1627
   36POPC  H15B 4785   6.706   1.417  11.565  0.7033  2.2486 -0.4075
   36POPC  H15C 4786   6.546   1.351  11.630 -1.0398 -0.8821 -1.8121
   36POPC   C11 4787   6.512   1.666  11.292 -0.7116 -0.0298 -0.9801
   36POPC  H11A 4788   6.542   1.773  11.294  1.2723 -0.5508  0.7217
   36POPC  H11B 4789   6.401   1.664  11.304 -0.5973  1.2713  0.6385
   36POPC     P 4790   6.490   1.562  11.052  0.1274  0.0335  0.2667
   36POPC   O13 4791   6.370   1.647  11.034  0.0784 -0.8825 -0.0010
   36POPC   O14 4792   6.454   1.416  11.078  0.2166 -0.9128 -0.0400
   36POPC   O12 4793   6.568   1.605  11.179 -0.3026  0.3794  0.0266
   36POPC   O11 4794   6.599   1.582  10.935 -0.3338  0.3042  0.1060
   36POPC    C1 4795   6.653   1.718  10.923  0.0744 -0.3875 -0.2778
   36POPC    HA 4796   6.761   1.704  10.899 -0.0787 -1.1167 -0.5478
   36POPC    HB 4797   6.658   1.782  11.014 -0.4802 -1.7708  0.7620
   36POPC    C2 4798   6.585   1.802  10.812 -0.0447  0.7271  0.0162
   36POPC    HS 4799   6.478   1.818  10.840 -0.7640 -1.0341 -1.4594
   36POPC   O21 4800   6.585   1.725  10.687  0.4749  0.2742  0.3130
   36POPC   C21 4801   6.472   1.717  10.615  0.4904 -0.9045 -0.1648
   36POPC   O22 4802   6.361   1.754  10.652  0.4254 -0.4861 -0.0409
   36POPC   C22 4803   6.498   1.649  10.483 -0.0592  0.7459  0.0790
   36POPC   H2R 4804   6.543   1.550  10.504 -0.3528  0.9633  1.9360
   36POPC   H2S 4805   6.583   1.700  10.434 -0.5342  1.7051  0.2259
   36POPC    C3 4806   6.666   1.933  10.798  0.4514  0.5948  0.0818
   36POPC    HX 4807   6.775   1.914  10.789  0.1952 -0.4443 -1.1814
   36POPC    HY 4808   6.648   1.994  10.889  0.4152  0.4660  0.1601
   36POPC   O31 4809   6.628   2.004  10.675  0.1239  0.3211 -0.4007
   36POPC   C31 4810   6.529   2.097  10.692  0.5468  1.1399 -0.5160
   36POPC   O32 4811   6.464   2.116  10.789  0.2085  0.2047 -0.5484
   36POPC   C32 4812   6.508   2.182  10.565  0.4559  0.0811 -0.6262
   36POPC   H2X 4813   6.604   2.232  10.543  0.9749  0.4737  2.1775
   36POPC   H2Y 4814   6.424   2.245  10.603  0.9592  0.9547 -0.9405
   36POPC   C23 4815   6.359   1.636  10.408  0.2387  0.2170 -0.0519
   36POPC   H3R 4816   6.328   1.732  10.362  0.6828 -0.0413 -0.9139
   36POPC   H3S 4817   6.276   1.618  10.480 -0.3032 -1.3784 -1.0208
   36POPC   C24 4818   6.373   1.523  10.308  0.1852  1.1111 -0.2060
   36POPC   H4R 4819   6.439   1.447  10.356  1.6709  2.1130 -0.6052
   36POPC   H4S 4820   6.420   1.552  10.212 -0.4418 -0.0697 -0.8846
   36POPC   C25 4821   6.244   1.470  10.268  0.7103  1.1434 -0.7592
   36POPC   H5R 4822   6.183   1.453  10.359 -0.4198  1.0764 -1.5190
   36POPC   H5S 4823   6.257   1.366  10.231 -1.8871  0.8350 -0.9732
   36POPC   C26 4824   6.152   1.534  10.167  0.0851 -0.8020  0.1554
   36POPC   H6R 4825   6.129   1.638  10.199  0.0078 -0.6585 -0.3473
   36POPC   H6S 4826   6.047   1.497  10.172 -1.0116  1.9769 -0.2675
   36POPC   C27 4827   6.196   1.548  10.022  0.0177 -0.2710 -0.5210
   36POPC   H7R 4828   6.303   1.577  10.026  0.8604 -2.8799  4.7376
   36POPC   H7S 4829   6.142   1.628   9.967 -0.0315  1.0240  1.3086
   36POPC   C28 4830   6.181   1.408   9.951 -0.3633 -0.6410 -0.3279
   36POPC   H8R 4831   6.073   1.382   9.946 -0.6238  0.2177  0.5396
   36POPC   H8S 4832   6.232   1.337  10.020  1.7121  0.3805 -0.7470
   36POPC   C29 4833   6.242   1.409   9.817  0.1945  0.5111 -0.3830
   36POPC   H91 4834   6.223   1.506   9.769 -2.8837 -0.2924 -0.9684
   36POPC  C210 4835   6.288   1.303   9.752 -0.3191  0.1119 -0.3664
   36POPC  H101 4836   6.315   1.311   9.645 -4.2164 -0.1362 -1.5147
   36POPC  C211 4837   6.290   1.163   9.799 -0.3211 -0.5408 -0.3873
   36POPC  H11R 4838   6.279   1.081   9.726  0.1606 -1.2585  0.3281
   36POPC  H11S 4839   6.213   1.133   9.874  1.2695 -2.7597  0.4631
   36POPC  C212 4840   6.426   1.140   9.864  0.2720  0.0904  0.5660
   36POPC  H12R 4841   6.437   1.182   9.966 -2.1936  0.3789  0.7677
   36POPC  H12S 4842   6.507   1.188   9.804  2.4749 -0.6797  2.7370
   36POPC  C213 4843   6.460   0.987   9.877 -0.2956 -0.3010  0.2720
   36POPC  H13R 4844   6.456   0.941   9.775 -0.7275 -1.4322  0.7765
   36POPC  H13S 4845   6.376   0.936   9.930  0.1774 -1.2469  0.1426
   36POPC  C214 4846   6.592   0.972   9.958 -0.0868 -0.3277  0.1830
   36POPC  H14R 4847   6.573   1.017  10.057 -1.7803  0.7937 -0.6001
   36POPC  H14S 4848   6.667   1.027   9.898 -2.3316  1.5388 -1.0812
   36POPC  C215 4849   6.633   0.825   9.965  0.0386  0.0405  0.3554
   36POPC  H15R 4850   6.630   0.775   9.866 -0.1294 -0.7750  0.7652
   36POPC  H15S 4851   6.565   0.766  10.030 -0.3722  0.3602  0.2195
   36POPC  C216 4852   6.786   0.814  10.009 -0.1268  0.4073  0.0709
   36POPC  H16R 4853   6.794   0.860  10.110 -0.5148  1.6612 -0.4549
   36POPC  H16S 4854   6.844   0.859   9.927  0.0120  1.9421  0.9732
   36POPC  C217 4855   6.831   0.666  10.018 -0.3074  0.2530  0.8080
   36POPC  H17R 4856   6.801   0.607   9.929  1.5857 -1.7212  1.3803
   36POPC  H17S 4857   6.771   0.632  10.105 -1.2474 -0.2769 -0.0396
   36POPC  C218 4858   6.984   0.649  10.040 -0.1547 -1.2237 -0.3399
   36POPC  H18R 4859   7.022   0.554  10.083 -0.9205 -0.4132  2.3046
   36POPC  H18S 4860   7.032   0.730  10.099 -0.8977  1.9922 -3.7757
   36POPC  H18T 4861   7.016   0.663   9.935 -0.9932 -1.5598 -0.6451
   36POPC   C33 4862   6.457   2.103  10.444 -0.2618  0.9363  0.0501
   36POPC   H3X 4863   6.409   2.174  10.374  0.8627  1.6703 -0.0117
   36POPC   H3Y 4864   6.379   2.026  10.463  0.8980 -0.2512  0.1771
   36POPC   C34 4865   6.563   2.027  10.351 -0.3783 -0.1856 -0.0023
   36POPC   H4X 4866   6.602   1.939  10.406  0.8961  0.5394  0.2890
   36POPC   H4Y 4867   6.649   2.095  10.342 -1.3751  0.9042 -2.1919
   36POPC   C35 4868   6.492   1.980  10.220  0.2695  0.1589 -0.9579
   36POPC   H5X 4869   6.438   2.064  10.172  1.8072  2.8768  1.7064
   36POPC   H5Y 4870   6.419   1.900  10.247  0.7885 -0.3028 -0.9149
   36POPC   C36 4871   6.586   1.905  10.125  0.1323 -0.7437 -0.2713
   36POPC   H6X 4872   6.634   1.824  10.184 -0.6071 -0.8023  0.2653
   36POPC   H6Y 4873   6.665   1.971  10.083 -1.2482  0.0767 -1.6820
   36POPC   C37 4874   6.513   1.870  10.000  1.1726  0.7236 -0.2889
   36POPC   H7X 4875   6.464   1.964   9.968  1.3368  0.5928 -0.9412
   36POPC   H7Y 4876   6.436   1.792  10.019  1.1967  0.8743  0.4528
   36POPC   C38 4877   6.601   1.828   9.885 -0.4578  0.0595  0.0544
   36POPC   H8X 4878   6.658   1.735   9.908  0.4718  0.6858  0.3856
   36POPC   H8Y 4879   6.681   1.904   9.871 -1.0704  0.5121 -1.1180
   36POPC   C39 4880   6.537   1.804   9.749 -0.2630  0.3138 -0.7067
   36POPC   H9X 4881   6.608   1.802   9.664  0.5206  2.1732 -0.1524
   36POPC   H9Y 4882   6.476   1.893   9.721  2.0496  2.8571  1.6807
   36POPC  C310 4883   6.443   1.676   9.740 -0.7995 -0.9352 -0.0666
   36POPC  H10X 4884   6.359   1.692   9.811  0.7993  2.5743  1.2486
   36POPC  H10Y 4885   6.499   1.590   9.784 -1.1044 -0.4223  1.3912
   36POPC  C311 4886   6.406   1.650   9.592 -0.0142 -0.3303  0.0215
   36POPC  H11X 4887   6.393   1.747   9.539 -0.2232 -0.0143  0.6510
   36POPC  H11Y 4888   6.309   1.597   9.580 -2.2826  2.9663  2.0330
   36POPC  C312 4889   6.510   1.557   9.520 -0.2993  0.2708 -0.1490
   36POPC  H12X 4890   6.528   1.466   9.581  1.0516 -0.2925 -1.3222
   36POPC  H12Y 4891   6.607   1.609   9.536 -0.4159 -0.0477  1.7569
   36POPC  C313 4892   6.479   1.529   9.374 -0.1034  0.1931  0.1035
   36POPC  H13X 4893   6.382   1.476   9.364  1.2919 -2.1910 -1.8694
   36POPC  H13Y 4894   6.547   1.455   9.327  0.2277  1.4641 -1.4912
   36POPC  C314 4895   6.475   1.656   9.284  0.2583  0.4355 -0.4985
   36POPC  H14X 4896   6.578   1.698   9.275  0.7101 -0.0807  1.6451
   36POPC  H14Y 4897   6.412   1.737   9.325 -0.4019 -0.3353  0.0313
   36POPC  C315 4898   6.416   1.635   9.143 -0.4326  0.1036  0.7496
   36POPC  H15X 4899   6.321   1.578   9.154  0.2079 -1.7022 -2.0586
   36POPC  H15Y 4900   6.477   1.570   9.077 -0.5196  1.1995 -0.4659
   36POPC  C316 4901   6.379   1.763   9.073  0.2901 -0.4078  0.0182
   36POPC  H16X 4902   6.466   1.828   9.049 -1.9238  2.5366 -0.6477
   36POPC  H16Y 4903   6.321   1.825   9.145 -1.0027 -3.6414  1.9535
   36POPC  H16Z 4904   6.325   1.748   8.977  1.7995  0.0051 -0.9306
   37POPC     N 4905   4.262   3.948   6.194 -0.2555  0.6124  0.6214
   37POPC   C12 4906   4.200   4.089   6.207  0.0561  0.0479 -0.5055
   37POPC  H12A 4907   4.110   4.093   6.147 -1.3190 -1.5125  1.3430
   37POPC  H12B 4908   4.265   4.171   6.180 -1.2434  1.6359  0.9731
   37POPC   C13 4909   4.165   3.841   6.243  0.5673 -0.4058  0.0191
   37POPC  H13A 4910   4.123   3.846   6.342  2.9644 -1.7839  1.2178
   37POPC  H13B 4911   4.082   3.845   6.175  0.4035  0.4380  0.2583
   37POPC  H13C 4912   4.205   3.741   6.233 -0.1049 -0.5667 -1.2320
   37POPC   C14 4913   4.292   3.921   6.048  0.3883 -0.7483 -0.1034
   37POPC  H14A 4914   4.205   3.933   5.985 -0.0979 -3.3070 -0.0012
   37POPC  H14B 4915   4.369   3.984   6.004 -0.1179 -1.8476 -2.7759
   37POPC  H14C 4916   4.326   3.819   6.038 -0.6024 -1.4423  2.6952
   37POPC   C15 4917   4.396   3.933   6.272 -0.5179  0.1400  0.1554
   37POPC  H15A 4918   4.377   3.944   6.378  0.9155 -0.6491  0.5148
   37POPC  H15B 4919   4.466   4.004   6.232  2.8279 -1.8310  2.0683
   37POPC  H15C 4920   4.441   3.835   6.267  1.0341  0.8188  0.4086
   37POPC   C11 4921   4.165   4.126   6.352 -0.5587  0.1609 -0.5177
   37POPC  H11A 4922   4.147   4.235   6.362  0.0097  0.0808  2.2252
   37POPC  H11B 4923   4.245   4.092   6.420 -1.1198 -0.8531 -0.3489
   37POPC     P 4924   3.944   4.083   6.496  0.6077  0.2699 -0.0411
   37POPC   O13 4925   3.829   3.994   6.460  0.0271  0.2413 -0.1146
   37POPC   O14 4926   3.918   4.226   6.522  0.0487  0.1144  0.4746
   37POPC   O12 4927   4.042   4.061   6.382  0.3630 -0.6141  0.5490
   37POPC   O11 4928   4.004   4.023   6.627  0.1678 -0.0662  0.1000
   37POPC    C1 4929   4.125   4.064   6.683 -0.5322  0.4012 -0.6171
   37POPC    HA 4930   4.158   4.158   6.632 -1.0393  1.8711  1.6219
   37POPC    HB 4931   4.200   3.982   6.681 -0.7602  0.1638  0.4573
   37POPC    C2 4932   4.109   4.105   6.827  0.1080  0.1175 -0.0701
   37POPC    HS 4933   4.206   4.147   6.860 -0.3251  1.1764 -0.0861
   37POPC   O21 4934   4.075   3.979   6.891  0.8260 -0.3750 -0.1318
   37POPC   C21 4935   4.128   3.960   7.014 -0.3705 -0.0475  0.4020
   37POPC   O22 4936   4.203   4.042   7.067 -0.3920 -0.1137  0.0799
   37POPC   C22 4937   4.065   3.837   7.085  0.5825 -0.1164 -0.1778
   37POPC   H2R 4938   4.125   3.744   7.075 -2.4129 -2.1749 -0.3075
   37POPC   H2S 4939   3.964   3.807   7.049  0.1459 -0.3230  1.1602
   37POPC    C3 4940   3.996   4.213   6.849 -0.8342  0.4386  0.7323
   37POPC    HX 4941   3.895   4.193   6.808 -0.6134  1.1572 -0.2188
   37POPC    HY 4942   4.045   4.292   6.787 -0.7508 -0.5852 -0.5527
   37POPC   O31 4943   3.983   4.244   6.984  0.1821  0.1763 -0.2110
   37POPC   C31 4944   4.054   4.349   7.031 -0.1127  0.2594 -0.3001
   37POPC   O32 4945   4.122   4.424   6.963 -0.4520  0.3665 -0.0490
   37POPC   C32 4946   4.013   4.361   7.174 -0.2763 -0.4584 -0.1801
   37POPC   H2X 4947   4.039   4.264   7.221  1.4154  0.0797  0.0473
   37POPC   H2Y 4948   3.904   4.379   7.187  0.1996  0.5996  3.4533
   37POPC   C23 4949   4.062   3.847   7.235 -0.7385 -0.1305 -0.0308
   37POPC   H3R 4950   4.168   3.848   7.268 -0.8949  0.1917  0.4690
   37POPC   H3S 4951   4.011   3.760   7.282 -0.5579 -1.3457 -1.9665
   37POPC   C24 4952   3.991   3.977   7.281 -0.4147 -0.3264  0.1328
   37POPC   H4R 4953   3.928   4.015   7.198 -3.0628 -0.3471  1.9957
   37POPC   H4S 4954   4.070   4.050   7.308 -0.3881 -0.9996  2.0296
   37POPC   C25 4955   3.904   3.955   7.401  0.0169  0.9759  0.0752
   37POPC   H5R 4956   3.948   3.886   7.477 -1.3205 -3.3807 -2.7433
   37POPC   H5S 4957   3.812   3.903   7.368  0.1660 -0.3381  1.5749
   37POPC   C26 4958   3.861   4.080   7.478  0.0431 -0.1723 -0.0738
   37POPC   H6R 4959   3.839   4.163   7.408  2.0819 -0.4171 -1.0646
   37POPC   H6S 4960   3.945   4.123   7.535 -1.6601  1.8655  1.0435
   37POPC   C27 4961   3.745   4.042   7.581  0.2230 -0.3391  0.0919
   37POPC   H7R 4962   3.787   3.962   7.645  1.0624  0.0120 -0.0039
   37POPC   H7S 4963   3.662   3.990   7.528  1.4184 -3.3082  0.9703
   37POPC   C28 4964   3.698   4.168   7.653  0.3485 -0.6424 -0.0017
   37POPC   H8R 4965   3.633   4.216   7.576 -0.9983 -2.0694  0.2079
   37POPC   H8S 4966   3.779   4.243   7.665  2.1916 -2.2701 -1.5382
   37POPC   C29 4967   3.616   4.144   7.775  0.1333  0.1836 -0.7168
   37POPC   H91 4968   3.508   4.160   7.760  0.0024 -0.0060 -0.0180
   37POPC  C210 4969   3.655   4.114   7.901  0.8178 -0.4854 -0.1108
   37POPC  H101 4970   3.587   4.114   7.987  0.9645  0.3242  0.0188
   37POPC  C211 4971   3.797   4.099   7.949  0.5047 -0.3477  0.6825
   37POPC  H11R 4972   3.870   4.134   7.872 -0.4324 -1.3033 -0.6948
   37POPC  H11S 4973   3.811   3.993   7.980  0.3706 -1.2443 -2.0778
   37POPC  C212 4974   3.839   4.184   8.066 -0.0476  0.2422 -0.6110
   37POPC  H12R 4975   3.747   4.204   8.125  1.5944  1.4926  1.6963
   37POPC  H12S 4976   3.882   4.282   8.036  0.5209 -0.3194 -1.6683
   37POPC  C213 4977   3.945   4.114   8.158  0.1991  0.0650 -0.3320
   37POPC  H13R 4978   4.034   4.106   8.092 -0.4674 -1.3750 -1.1163
   37POPC  H13S 4979   3.903   4.015   8.186 -1.5602  1.0798  0.7869
   37POPC  C214 4980   3.979   4.198   8.281  0.2884  0.5103 -0.6833
   37POPC  H14R 4981   4.056   4.139   8.335  0.0583 -0.2630 -1.1847
   37POPC  H14S 4982   3.897   4.212   8.354  3.0390  2.2434  2.3770
   37POPC  C215 4983   4.048   4.338   8.255  0.5571 -0.4788  0.7359
   37POPC  H15R 4984   3.968   4.416   8.252 -0.4394 -1.4237 -3.0663
   37POPC  H15S 4985   4.086   4.341   8.150  1.1905 -0.0239  0.9722
   37POPC  C216 4986   4.150   4.377   8.356  0.4352 -0.4523 -0.4765
   37POPC  H16R 4987   4.238   4.308   8.347 -0.7808 -2.1017 -0.1770
   37POPC  H16S 4988   4.105   4.367   8.457 -1.4174  1.9090 -0.9825
   37POPC  C217 4989   4.193   4.525   8.345  0.3963 -0.1533 -0.3646
   37POPC  H17R 4990   4.258   4.549   8.432  1.3399  1.0940 -1.3721
   37POPC  H17S 4991   4.103   4.584   8.370 -0.4894 -0.2931 -2.9151
   37POPC  C218 4992   4.255   4.567   8.213 -0.1242  0.5970  0.3818
   37POPC  H18R 4993   4.187   4.550   8.127 -1.5359 -0.1816  1.6119
   37POPC  H18S 4994   4.356   4.523   8.196 -1.2907 -1.6379 -1.1268
   37POPC  H18T 4995   4.274   4.677   8.218  1.1118  0.3794  0.7892
   37POPC   C33 4996   4.098   4.472   7.242  0.2083 -0.1818 -0.4551
   37POPC   H3X 4997   4.052   4.567   7.208  1.2102  0.3243 -0.4240
   37POPC   H3Y 4998   4.205   4.464   7.212 -0.0525 -1.0476 -1.2370
   37POPC   C34 4999   4.089   4.460   7.390  0.6935 -0.0211  0.4306
   37POPC   H4X 5000   3.988   4.418   7.410  0.8023 -0.6434 -0.3070
   37POPC   H4Y 5001   4.100   4.559   7.439 -0.1625 -0.0233  0.6355
   37POPC   C35 5002   4.199   4.368   7.448 -0.2178 -0.3469  0.2737
   37POPC   H5X 5003   4.222   4.286   7.376  0.3563  0.2562 -0.2491
   37POPC   H5Y 5004   4.153   4.330   7.542  0.5844 -2.2828 -0.0670
   37POPC   C36 5005   4.336   4.432   7.477  0.0821  0.7296  0.0122
   37POPC   H6X 5006   4.395   4.461   7.388  1.4322 -3.0289 -0.4634
   37POPC   H6Y 5007   4.405   4.359   7.523  2.2062  2.9015  0.4705
   37POPC   C37 5008   4.327   4.552   7.565 -0.1848  0.3564 -0.0162
   37POPC   H7X 5009   4.281   4.529   7.664  2.8884  0.1519  1.5016
   37POPC   H7Y 5010   4.274   4.639   7.521 -0.1219  1.4034  1.8352
   37POPC   C38 5011   4.463   4.615   7.593 -0.6043 -0.4754 -0.0127
   37POPC   H8X 5012   4.504   4.662   7.501 -1.4698  1.4118  0.5111
   37POPC   H8Y 5013   4.523   4.526   7.622 -0.3502 -0.3475 -0.1477
   37POPC   C39 5014   4.463   4.724   7.701  0.3217 -0.1562 -0.2165
   37POPC   H9X 5015   4.418   4.813   7.651  0.6527  0.2073  0.1244
   37POPC   H9Y 5016   4.567   4.758   7.716 -0.6300  4.0793 -1.8212
   37POPC  C310 5017   4.385   4.704   7.827  0.4104  0.1947  0.1654
   37POPC  H10X 5018   4.390   4.598   7.858 -2.3967 -0.1965 -0.4181
   37POPC  H10Y 5019   4.280   4.728   7.800 -0.0840 -1.7128  0.3182
   37POPC  C311 5020   4.429   4.801   7.935 -0.3126 -0.1927 -0.8886
   37POPC  H11X 5021   4.342   4.811   8.002 -0.0362 -1.8089 -0.2386
   37POPC  H11Y 5022   4.441   4.908   7.906  1.6188  0.1230  0.8248
   37POPC  C312 5023   4.558   4.746   8.015  0.3657  0.1849 -0.7273
   37POPC  H12X 5024   4.644   4.728   7.946  0.7911 -0.2274 -0.1095
   37POPC  H12Y 5025   4.520   4.657   8.070  2.1891  0.6818  1.5217
   37POPC  C313 5026   4.598   4.845   8.129 -0.1838  1.1862 -0.0373
   37POPC  H13X 5027   4.629   4.935   8.073 -0.4358 -0.5338 -3.2136
   37POPC  H13Y 5028   4.691   4.800   8.171  0.0663  1.3914 -0.3662
   37POPC  C314 5029   4.482   4.862   8.227 -0.0670 -0.1474 -0.1375
   37POPC  H14X 5030   4.459   4.768   8.281 -0.3074  0.2792  0.5192
   37POPC  H14Y 5031   4.392   4.902   8.175 -0.6055 -0.5548  0.4675
   37POPC  C315 5032   4.502   4.978   8.322  0.1667 -0.5108  0.2251
   37POPC  H15X 5033   4.597   4.967   8.377  1.5286  1.2103 -1.6406
   37POPC  H15Y 5034   4.426   4.975   8.403 -0.9421  0.1805 -0.7568
   37POPC  C316 5035   4.486   5.116   8.257  0.3091  0.5597 -0.0799
   37POPC  H16X 5036   4.385   5.122   8.213  0.4372  1.0147 -0.3210
   37POPC  H16Y 5037   4.566   5.135   8.182 -1.2960  0.8160 -1.7779
   37POPC  H16Z 5038   4.491   5.195   8.335 -2.1034 -0.4352  1.1721
   38POPC     N 5039   0.162   1.634   6.337 -0.3320 -0.0021 -0.1017
   38POPC   C12 5040   0.110   1.520   6.250  0.5419  0.4477 -0.0742
   38POPC  H12A 5041   0.039   1.560   6.179 -0.6673 -0.7273  0.4141
   38POPC  H12B 5042   0.066   1.443   6.312  2.8292 -0.8147  0.0512
   38POPC   C13 5043   0.272   1.593   6.421 -0.6521 -0.2307  0.4663
   38POPC  H13A 5044   0.356   1.587   6.353 -2.2332  0.3506 -1.6177
   38POPC  H13B 5045   0.301   1.667   6.495  0.1696  0.5250 -0.5875
   38POPC  H13C 5046   0.262   1.492   6.457  1.3518 -0.9190 -0.7396
   38POPC   C14 5047   0.214   1.752   6.259 -0.3512 -0.3660  0.1826
   38POPC  H14A 5048   0.312   1.735   6.218  0.6711  0.0566  2.3310
   38POPC  H14B 5049   0.146   1.778   6.179  0.5155  0.4707 -0.2944
   38POPC  H14C 5050   0.224   1.838   6.324  1.2744  1.3981 -2.2496
   38POPC   C15 5051   0.058   1.687   6.434 -0.6936 -0.5407  0.2845
   38POPC  H15A 5052   0.100   1.760   6.502  0.0747  2.5678 -3.1634
   38POPC  H15B 5053   0.005   1.606   6.480  0.5509 -2.1776 -1.0454
   38POPC  H15C 5054  -0.023   1.729   6.376  0.2208 -1.9561 -2.1471
   38POPC   C11 5055   0.210   1.440   6.164 -0.2806 -0.7070  0.2404
   38POPC  H11A 5056   0.280   1.388   6.233 -1.7921  0.3144  2.6636
   38POPC  H11B 5057   0.259   1.511   6.094 -0.9733 -2.0157 -1.6545
   38POPC     P 5058   0.057   1.230   6.131 -0.2645  0.0828  0.1880
   38POPC   O13 5059   0.087   1.095   6.077 -0.2895  0.3558  0.1091
   38POPC   O14 5060  -0.085   1.270   6.111  0.1182 -0.0941 -0.0462
   38POPC   O12 5061   0.157   1.343   6.075  0.0378  0.2359  0.1773
   38POPC   O11 5062   0.080   1.231   6.286  0.1664  0.4491  0.5515
   38POPC    C1 5063  -0.019   1.161   6.366 -0.9139  0.9362 -0.3024
   38POPC    HA 5064   0.023   1.063   6.396  0.3785  1.2361 -1.0585
   38POPC    HB 5065  -0.112   1.136   6.310  1.5237 -1.2463 -3.7170
   38POPC    C2 5066  -0.051   1.239   6.494  0.5101  0.3086  0.6642
   38POPC    HS 5067  -0.122   1.177   6.553  1.3569 -0.0779  1.3087
   38POPC   O21 5068  -0.093   1.373   6.468  0.0048 -0.4098 -0.6521
   38POPC   C21 5069  -0.225   1.380   6.443 -0.1406 -0.1617  0.8739
   38POPC   O22 5070  -0.301   1.285   6.460  0.1189 -0.3243  0.3286
   38POPC   C22 5071  -0.260   1.520   6.403  0.2865 -0.4413  0.2251
   38POPC   H2R 5072  -0.347   1.511   6.334  1.9562 -0.2141 -2.0290
   38POPC   H2S 5073  -0.178   1.565   6.343 -0.0731 -0.8926 -0.6247
   38POPC    C3 5074   0.077   1.248   6.573 -0.1935  0.6914 -0.2773
   38POPC    HX 5075   0.143   1.327   6.532 -2.5535  2.2421 -1.2966
   38POPC    HY 5076   0.121   1.148   6.557 -0.8473  0.8256 -3.6313
   38POPC   O31 5077   0.050   1.268   6.713  0.2278 -0.7008  0.0031
   38POPC   C31 5078   0.058   1.386   6.757  0.0783 -0.5275  0.3705
   38POPC   O32 5079   0.077   1.489   6.700  0.4227  0.1269  0.2849
   38POPC   C32 5080   0.054   1.388   6.917 -0.7847  0.2560 -0.1302
   38POPC   H2X 5081   0.137   1.458   6.942  0.6620 -1.3740 -0.1209
   38POPC   H2Y 5082   0.092   1.291   6.957  1.5964 -0.4903 -3.7031
   38POPC   C23 5083  -0.281   1.603   6.535 -0.2769 -0.0770  0.0864
   38POPC   H3R 5084  -0.309   1.700   6.488 -0.8670  0.1127  0.8086
   38POPC   H3S 5085  -0.181   1.626   6.578 -0.1448  2.1834 -1.2617
   38POPC   C24 5086  -0.370   1.544   6.647 -0.3775  0.0661  0.6634
   38POPC   H4R 5087  -0.328   1.448   6.683 -1.0533 -0.4401  0.1262
   38POPC   H4S 5088  -0.471   1.518   6.607 -0.1655 -0.5127  0.5063
   38POPC   C25 5089  -0.364   1.648   6.766  0.2011 -0.1247 -0.7494
   38POPC   H5R 5090  -0.396   1.746   6.725  2.5843  1.2980  0.5416
   38POPC   H5S 5091  -0.259   1.657   6.803  0.1089  1.0518 -0.7233
   38POPC   C26 5092  -0.433   1.612   6.892  0.5578  0.9392  0.4077
   38POPC   H6R 5093  -0.389   1.516   6.927 -0.2479  0.4426  0.1015
   38POPC   H6S 5094  -0.543   1.598   6.882  0.3188  1.9468  1.3728
   38POPC   C27 5095  -0.410   1.712   6.996 -0.3234 -0.2599 -0.0381
   38POPC   H7R 5096  -0.449   1.815   6.982 -0.8796 -0.5245 -0.5032
   38POPC   H7S 5097  -0.304   1.729   7.022 -1.4031  4.6412  2.3916
   38POPC   C28 5098  -0.448   1.671   7.144 -0.3492  0.3382  0.0332
   38POPC   H8R 5099  -0.398   1.573   7.161 -1.8766 -0.7096 -1.2155
   38POPC   H8S 5100  -0.554   1.640   7.155 -0.7715  1.8484  0.3291
   38POPC   C29 5101  -0.413   1.774   7.243 -0.5361 -0.1455 -0.1681
   38POPC   H91 5102  -0.445   1.878   7.233 -0.2825 -0.0201  0.3074
   38POPC  C210 5103  -0.341   1.757   7.352 -0.1831  0.3156 -0.3842
   38POPC  H101 5104  -0.339   1.841   7.422 -0.5397  0.1596 -0.1883
   38POPC  C211 5105  -0.268   1.634   7.402  1.1696 -0.8069 -0.5891
   38POPC  H11R 5106  -0.157   1.639   7.399  1.1885 -0.4395  0.4261
   38POPC  H11S 5107  -0.296   1.549   7.336 -1.2668 -0.1208 -0.5249
   38POPC  C212 5108  -0.329   1.611   7.541 -0.6499 -0.0807  0.1537
   38POPC  H12R 5109  -0.316   1.506   7.577 -0.4667 -0.0624  0.1420
   38POPC  H12S 5110  -0.440   1.614   7.547 -0.7633 -1.3170 -0.8865
   38POPC  C213 5111  -0.263   1.690   7.649  0.5797  0.7158 -0.2796
   38POPC  H13R 5112  -0.311   1.790   7.654 -1.0753 -0.1034  1.6838
   38POPC  H13S 5113  -0.154   1.696   7.627  0.6364 -1.5607 -0.8651
   38POPC  C214 5114  -0.276   1.616   7.790  0.3835  0.0664  0.0185
   38POPC  H14R 5115  -0.229   1.516   7.786 -1.0182 -0.5755 -1.4354
   38POPC  H14S 5116  -0.382   1.606   7.823  1.2145 -0.6177  2.6988
   38POPC  C215 5117  -0.200   1.694   7.907 -0.2643  0.0296 -0.5118
   38POPC  H15R 5118  -0.252   1.791   7.921  0.0634  0.6145 -2.8305
   38POPC  H15S 5119  -0.094   1.711   7.878 -1.0084  0.8279 -3.0537
   38POPC  C216 5120  -0.203   1.615   8.042  0.1826  0.0350 -0.3845
   38POPC  H16R 5121  -0.157   1.673   8.125 -1.3214  0.1864  0.3733
   38POPC  H16S 5122  -0.147   1.522   8.018  0.4129  0.1453 -0.2801
   38POPC  C217 5123  -0.345   1.581   8.086 -0.1529  0.1103 -0.4260
   38POPC  H17R 5124  -0.383   1.489   8.038 -0.6047  0.3129 -0.4570
   38POPC  H17S 5125  -0.413   1.658   8.042  1.2480  0.8268 -1.4235
   38POPC  C218 5126  -0.367   1.566   8.240  0.0559 -1.1548 -0.1869
   38POPC  H18R 5127  -0.456   1.505   8.266 -1.1001  0.2797 -0.6270
   38POPC  H18S 5128  -0.392   1.669   8.272  1.7572 -0.7671 -0.0167
   38POPC  H18T 5129  -0.283   1.521   8.297  0.2033 -1.9911 -1.0400
   38POPC   C33 5130  -0.074   1.444   6.982 -0.8746 -0.9246  0.5386
   38POPC   H3X 5131  -0.157   1.372   6.966 -2.2004  0.3182  1.5999
   38POPC   H3Y 5132  -0.103   1.542   6.937  2.1789 -0.1917 -0.1117
   38POPC   C34 5133  -0.045   1.457   7.139 -0.8387  0.1581  0.1390
   38POPC   H4X 5134  -0.137   1.500   7.182 -0.8784 -0.2101  0.4281
   38POPC   H4Y 5135   0.050   1.513   7.150  0.8987 -2.4245 -0.7296
   38POPC   C35 5136  -0.049   1.330   7.214  0.1937  0.5448 -0.4587
   38POPC   H5X 5137   0.019   1.263   7.158 -1.0119 -1.1716  0.0473
   38POPC   H5Y 5138  -0.145   1.276   7.201  2.1821 -3.1112 -1.1348
   38POPC   C36 5139  -0.001   1.333   7.364 -0.5644 -0.1215 -0.7347
   38POPC   H6X 5140   0.010   1.230   7.405 -3.6988 -0.4551 -0.4336
   38POPC   H6Y 5141  -0.081   1.383   7.424  0.4277  4.4345 -2.8583
   38POPC   C37 5142   0.129   1.414   7.368 -0.4313 -0.1955 -0.2418
   38POPC   H7X 5143   0.110   1.522   7.353  0.9040  0.1374  0.3591
   38POPC   H7Y 5144   0.206   1.375   7.297 -0.2253 -1.6455  0.7350
   38POPC   C38 5145   0.202   1.402   7.508 -0.3167 -0.3814 -0.2233
   38POPC   H8X 5146   0.308   1.425   7.485  0.1395 -2.1347 -0.0208
   38POPC   H8Y 5147   0.200   1.297   7.544 -1.3457 -0.3866 -0.2433
   38POPC   C39 5148   0.151   1.497   7.614  0.1154  0.1775 -0.7638
   38POPC   H9X 5149   0.131   1.593   7.561  2.0465 -0.6436 -3.1438
   38POPC   H9Y 5150   0.224   1.504   7.697 -1.0367 -0.5219  0.3587
   38POPC  C310 5151   0.020   1.462   7.687  0.0376  0.0247 -0.6228
   38POPC  H10X 5152  -0.060   1.443   7.612  0.4714 -0.1871 -1.0390
   38POPC  H10Y 5153  -0.005   1.551   7.748 -0.5906 -1.2776  1.0884
   38POPC  C311 5154   0.045   1.334   7.771  0.3746 -0.2898  0.2929
   38POPC  H11X 5155   0.052   1.248   7.701  0.4552  0.6112 -0.8356
   38POPC  H11Y 5156  -0.053   1.314   7.819  0.9537 -1.4242  1.0644
   38POPC  C312 5157   0.159   1.325   7.876  0.3090 -0.5625  0.2976
   38POPC  H12X 5158   0.139   1.413   7.941  0.6408  0.4035 -0.8722
   38POPC  H12Y 5159   0.257   1.350   7.830 -1.5425  2.8237 -2.2846
   38POPC  C313 5160   0.170   1.192   7.946 -0.3505  0.5697  0.3377
   38POPC  H13X 5161   0.244   1.124   7.898  0.4184  1.3408  0.4132
   38POPC  H13Y 5162   0.075   1.135   7.935 -0.1881 -0.6638  4.0607
   38POPC  C314 5163   0.209   1.204   8.091  0.2672  0.1352  0.2295
   38POPC  H14X 5164   0.116   1.234   8.145  0.4721  1.7332 -0.2553
   38POPC  H14Y 5165   0.285   1.282   8.112 -1.3489  1.6329  0.7983
   38POPC  C315 5166   0.242   1.063   8.138  0.1627 -0.1656 -0.4247
   38POPC  H15X 5167   0.326   1.023   8.077 -0.1984 -1.0113 -0.3715
   38POPC  H15Y 5168   0.149   1.002   8.127  0.1483 -0.5948  1.7520
   38POPC  C316 5169   0.285   1.047   8.288  0.8812  0.1917  0.6827
   38POPC  H16X 5170   0.200   1.081   8.351  0.1475 -0.7586  0.2298
   38POPC  H16Y 5171   0.368   1.119   8.306 -0.8536  2.0872  1.4175
   38POPC  H16Z 5172   0.301   0.944   8.326 -0.2900 -0.9914 -1.7978
   39POPC     N 5173   1.913   3.023   6.119  0.4011  0.6730  0.3391
   39POPC   C12 5174   1.982   3.129   6.205 -0.1210 -0.0291 -0.7841
   39POPC  H12A 5175   1.998   3.085   6.303  0.4876  0.2357 -0.7589
   39POPC  H12B 5176   1.907   3.204   6.224  0.5098  0.1972  1.0846
   39POPC   C13 5177   1.873   3.095   5.993  0.6867 -0.6419 -0.0894
   39POPC  H13A 5178   1.958   3.131   5.937  0.6477  1.0722  0.9116
   39POPC  H13B 5179   1.819   3.017   5.941  1.0799 -0.7714 -0.3089
   39POPC  H13C 5180   1.816   3.184   6.015 -1.1860 -0.9462 -3.1221
   39POPC   C14 5181   1.993   2.898   6.101 -0.6891 -0.4169 -0.7247
   39POPC  H14A 5182   2.094   2.922   6.071  0.6342  0.2193  3.4808
   39POPC  H14B 5183   1.990   2.844   6.195 -3.3074  1.0734  0.1456
   39POPC  H14C 5184   1.952   2.828   6.031  3.0661 -1.4868 -2.0799
   39POPC   C15 5185   1.785   2.978   6.175 -0.5291  0.6448  0.4221
   39POPC  H15A 5186   1.780   2.975   6.283 -0.8157 -0.5860  0.3947
   39POPC  H15B 5187   1.748   2.884   6.137 -1.7702  0.0615  2.8995
   39POPC  H15C 5188   1.703   3.042   6.144  1.1602  1.6976 -2.1999
   39POPC   C11 5189   2.114   3.192   6.155  0.9248  0.5633  0.1255
   39POPC  H11A 5190   2.138   3.267   6.233 -0.6791  0.0569  1.1515
   39POPC  H11B 5191   2.107   3.256   6.065 -1.6837  1.5707  0.9545
   39POPC     P 5192   2.319   3.047   6.255 -0.2299  0.3363  0.1107
   39POPC   O13 5193   2.402   3.157   6.292  0.0553  0.1463 -0.2468
   39POPC   O14 5194   2.388   2.926   6.203 -0.1752 -0.0755  0.0484
   39POPC   O12 5195   2.220   3.090   6.142  0.9270 -0.3391 -0.0938
   39POPC   O11 5196   2.229   3.020   6.382  0.1490  0.2741 -0.4969
   39POPC    C1 5197   2.240   3.080   6.513  0.3248 -0.1887  0.8888
   39POPC    HA 5198   2.185   3.177   6.517  0.2482 -0.2685  1.9291
   39POPC    HB 5199   2.344   3.101   6.544 -0.1598  0.5410  2.0832
   39POPC    C2 5200   2.171   3.003   6.628 -0.9372  0.3564 -0.6441
   39POPC    HS 5201   2.151   3.082   6.704  2.3976  1.1769 -0.4541
   39POPC   O21 5202   2.268   2.911   6.690 -0.2657 -0.0390  0.2660
   39POPC   C21 5203   2.271   2.902   6.820 -0.1085  1.0052 -0.3208
   39POPC   O22 5204   2.193   2.959   6.894 -0.5922 -0.9235 -0.2704
   39POPC   C22 5205   2.396   2.815   6.857 -0.3034  0.0684 -0.1229
   39POPC   H2R 5206   2.487   2.859   6.811  1.4319 -2.4388  0.6757
   39POPC   H2S 5207   2.379   2.714   6.813 -2.1449  0.0919  0.4524
   39POPC    C3 5208   2.042   2.928   6.585 -0.4378 -0.0851  0.4383
   39POPC    HX 5209   2.070   2.855   6.507 -2.3022  1.8038 -2.1710
   39POPC    HY 5210   1.975   3.004   6.540  3.0682  1.4040 -2.8062
   39POPC   O31 5211   1.986   2.842   6.690 -0.0712 -0.6148  0.0197
   39POPC   C31 5212   1.918   2.907   6.781  0.9060 -0.3448 -0.0505
   39POPC   O32 5213   1.873   3.024   6.775 -0.1839  0.5672  0.0116
   39POPC   C32 5214   1.884   2.811   6.893 -0.0276  0.7468  0.8035
   39POPC   H2X 5215   1.773   2.814   6.895 -0.0460 -0.0411  1.2623
   39POPC   H2Y 5216   1.928   2.710   6.873 -3.0294 -1.0991  2.7368
   39POPC   C23 5217   2.417   2.816   7.011  0.7601 -1.1640  0.7476
   39POPC   H3R 5218   2.344   2.741   7.050  0.8742 -2.4869 -1.4017
   39POPC   H3S 5219   2.390   2.918   7.045  1.2418 -0.9897  0.6143
   39POPC   C24 5220   2.561   2.782   7.048  0.3934  0.1881 -0.4404
   39POPC   H4R 5221   2.634   2.844   6.992  0.8559  0.0578  0.0106
   39POPC   H4S 5222   2.583   2.673   7.040  0.5604  0.2213 -0.4317
   39POPC   C25 5223   2.590   2.828   7.199  0.3587 -0.1316  0.0295
   39POPC   H5R 5224   2.513   2.778   7.262 -1.0830  2.2963  0.3371
   39POPC   H5S 5225   2.583   2.939   7.206  0.9964 -0.1626  1.7952
   39POPC   C26 5226   2.727   2.784   7.253  0.2467  0.2705  0.1368
   39POPC   H6R 5227   2.807   2.860   7.243 -0.2913  1.0450  1.5058
   39POPC   H6S 5228   2.752   2.705   7.179 -2.8089 -3.0545  2.3215
   39POPC   C27 5229   2.729   2.732   7.403 -0.4451 -0.0617 -0.5367
   39POPC   H7R 5230   2.689   2.629   7.410 -0.0738 -0.1501  0.3483
   39POPC   H7S 5231   2.671   2.799   7.470 -0.4601 -1.3300  0.7727
   39POPC   C28 5232   2.877   2.729   7.455  0.2833 -1.1681 -0.3562
   39POPC   H8R 5233   2.924   2.830   7.448 -1.5275 -0.3127 -0.8309
   39POPC   H8S 5234   2.941   2.660   7.397 -0.1170 -0.4593 -1.7052
   39POPC   C29 5235   2.882   2.702   7.601  0.4858  0.0586  0.3686
   39POPC   H91 5236   2.855   2.783   7.670  1.5885 -0.5498  1.5449
   39POPC  C210 5237   2.926   2.595   7.666 -0.4703  0.4866 -0.7048
   39POPC  H101 5238   2.923   2.585   7.776  0.0309  0.7641 -0.6628
   39POPC  C211 5239   2.969   2.465   7.600  0.1298 -0.1738 -0.3438
   39POPC  H11R 5240   3.035   2.484   7.513 -0.1778  0.5000 -0.4351
   39POPC  H11S 5241   2.877   2.407   7.576 -0.0043 -0.4234  0.7026
   39POPC  C212 5242   3.059   2.373   7.690 -0.1933  0.1519 -0.4449
   39POPC  H12R 5243   3.144   2.434   7.727 -3.0754  2.3692  3.1765
   39POPC  H12S 5244   3.101   2.283   7.640  1.9952  0.9279 -0.1227
   39POPC  C213 5245   2.991   2.297   7.809 -0.1945 -0.3436 -0.1282
   39POPC  H13R 5246   3.050   2.204   7.822 -0.7626 -0.7137 -0.1539
   39POPC  H13S 5247   2.893   2.260   7.771 -1.3096  1.4499  0.8415
   39POPC  C214 5248   2.968   2.380   7.931  0.2916  0.2085  0.2432
   39POPC  H14R 5249   2.874   2.437   7.917 -1.2903 -1.7200  2.1843
   39POPC  H14S 5250   3.055   2.447   7.945  0.2645  0.2171  0.3651
   39POPC  C215 5251   2.945   2.302   8.060 -0.1151 -0.2342  0.5361
   39POPC  H15R 5252   3.046   2.262   8.081  0.4265  0.3603 -0.8370
   39POPC  H15S 5253   2.872   2.220   8.039 -0.4101  0.9874 -4.1459
   39POPC  C216 5254   2.898   2.393   8.171 -0.4341  0.3938  0.5672
   39POPC  H16R 5255   2.903   2.329   8.262  2.1263  0.4541  0.5545
   39POPC  H16S 5256   2.794   2.427   8.150 -0.9153 -1.4486 -0.1951
   39POPC  C217 5257   2.982   2.514   8.201 -0.0562  0.4791  0.1321
   39POPC  H17R 5258   2.982   2.583   8.114 -2.0093  2.5687  1.6582
   39POPC  H17S 5259   3.086   2.476   8.211 -0.3998 -0.4582  0.1919
   39POPC  C218 5260   2.944   2.592   8.325  0.1780 -0.0543 -0.5189
   39POPC  H18R 5261   2.834   2.586   8.309  0.2122  0.5987 -1.0417
   39POPC  H18S 5262   2.974   2.699   8.321 -0.4015  0.1534  0.3702
   39POPC  H18T 5263   2.972   2.539   8.419  1.1620  1.4668  0.0812
   39POPC   C33 5264   1.934   2.851   7.032 -0.0043 -0.0756 -0.5093
   39POPC   H3X 5265   1.931   2.962   7.040  1.7737 -0.1431  2.4189
   39POPC   H3Y 5266   2.037   2.813   7.042  1.2689  2.7386 -1.7601
   39POPC   C34 5267   1.853   2.790   7.149  0.7210 -0.5078  0.3471
   39POPC   H4X 5268   1.869   2.680   7.155  2.1055 -0.3773 -0.6805
   39POPC   H4Y 5269   1.746   2.806   7.123  0.6461 -2.7294 -1.0211
   39POPC   C35 5270   1.889   2.861   7.280  0.1414 -0.7493  0.4260
   39POPC   H5X 5271   1.832   2.815   7.364 -0.4380  1.1908  1.1322
   39POPC   H5Y 5272   1.838   2.959   7.276 -1.4394 -1.4429  2.0995
   39POPC   C36 5273   2.030   2.858   7.323 -0.5087  0.5143  0.4808
   39POPC   H6X 5274   2.035   2.936   7.401  1.4210  0.0209  0.8981
   39POPC   H6Y 5275   2.103   2.900   7.251 -0.2931  2.4539  1.7865
   39POPC   C37 5276   2.080   2.728   7.384  0.2915 -0.7420 -0.3055
   39POPC   H7X 5277   2.186   2.735   7.415  0.0087 -0.8174  0.7341
   39POPC   H7Y 5278   2.075   2.639   7.317  0.1388 -1.3672  0.5127
   39POPC   C38 5279   2.001   2.683   7.514  0.3541 -0.1464  0.0940
   39POPC   H8X 5280   2.038   2.582   7.541  1.4569  0.5399  1.2647
   39POPC   H8Y 5281   1.892   2.677   7.496  0.5052 -1.9816 -0.3469
   39POPC   C39 5282   2.034   2.765   7.644 -0.2030  0.4992 -0.2114
   39POPC   H9X 5283   2.021   2.875   7.635  0.3248  0.8299  2.3544
   39POPC   H9Y 5284   2.142   2.751   7.668 -0.9618 -1.8134  2.4312
   39POPC  C310 5285   1.973   2.705   7.763  0.4141 -0.1257 -0.0552
   39POPC  H10X 5286   1.978   2.783   7.842  1.7050 -0.4386  0.1968
   39POPC  H10Y 5287   2.034   2.619   7.798 -0.6383 -0.6325  0.6041
   39POPC  C311 5288   1.828   2.655   7.745 -0.3285 -0.5075 -0.2576
   39POPC  H11X 5289   1.814   2.580   7.664 -2.1805 -1.6252  1.0010
   39POPC  H11Y 5290   1.759   2.739   7.722 -1.2396 -1.3275 -0.6066
   39POPC  C312 5291   1.764   2.582   7.859  0.4114  0.0493 -1.0330
   39POPC  H12X 5292   1.831   2.518   7.921  0.5591  2.8609  1.9752
   39POPC  H12Y 5293   1.671   2.528   7.829  0.8876 -0.5136 -1.5121
   39POPC  C313 5294   1.726   2.692   7.960  0.0500 -0.9216  0.1855
   39POPC  H13X 5295   1.659   2.769   7.916 -1.2642 -2.4208 -0.5293
   39POPC  H13Y 5296   1.820   2.746   7.986  0.5974 -0.9797 -1.5257
   39POPC  C314 5297   1.672   2.633   8.092 -0.8321  0.5693  0.3292
   39POPC  H14X 5298   1.756   2.569   8.125 -2.7646 -0.5480  3.4930
   39POPC  H14Y 5299   1.587   2.569   8.060  0.0870 -0.7232  0.4048
   39POPC  C315 5300   1.648   2.737   8.189 -0.2892 -0.2604  0.0040
   39POPC  H15X 5301   1.610   2.829   8.139  0.1280  0.7650  1.5064
   39POPC  H15Y 5302   1.739   2.780   8.235 -0.1249 -1.6091  0.9875
   39POPC  C316 5303   1.563   2.694   8.308 -0.3821 -0.3293  0.5804
   39POPC  H16X 5304   1.463   2.662   8.273  0.0680 -0.3108 -0.7735
   39POPC  H16Y 5305   1.555   2.781   8.376  0.0942  0.6527 -0.5923
   39POPC  H16Z 5306   1.605   2.608   8.366 -0.3696 -0.8266 -0.1485
   40POPC     N 5307   3.061   0.770   6.243  0.1051 -0.5531 -0.1861
   40POPC   C12 5308   3.045   0.634   6.305  0.2783 -0.4178  0.0015
   40POPC  H12A 5309   2.976   0.636   6.388 -2.2549 -1.4850 -1.9227
   40POPC  H12B 5310   3.143   0.603   6.338  0.0741  0.0942  1.1110
   40POPC   C13 5311   3.151   0.767   6.121 -0.6806 -0.7790 -0.1235
   40POPC  H13A 5312   3.186   0.866   6.098  0.7756 -1.3867 -0.6082
   40POPC  H13B 5313   3.247   0.725   6.147 -0.1231  1.3216  1.5715
   40POPC  H13C 5314   3.115   0.714   6.034  0.4374 -2.0659  0.1614
   40POPC   C14 5315   2.925   0.817   6.199 -0.3219  0.1877 -0.2655
   40POPC  H14A 5316   2.937   0.911   6.147  2.8971  0.0652  0.0597
   40POPC  H14B 5317   2.891   0.744   6.127 -0.8397 -1.1573  1.2778
   40POPC  H14C 5318   2.848   0.810   6.275 -0.1689  0.1160 -0.1154
   40POPC   C15 5319   3.112   0.878   6.331 -0.3341  0.6983  0.7594
   40POPC  H15A 5320   3.212   0.846   6.359 -0.5305  0.4648  1.2017
   40POPC  H15B 5321   3.055   0.901   6.420  0.7136 -0.1800  1.6851
   40POPC  H15C 5322   3.116   0.968   6.272 -0.6774 -0.1516 -0.6045
   40POPC   C11 5323   2.997   0.528   6.206  0.6683 -0.2874 -0.0311
   40POPC  H11A 5324   3.022   0.430   6.251  2.5572 -0.2426 -0.8846
   40POPC  H11B 5325   3.051   0.530   6.109  1.4036  0.0003  0.3755
   40POPC     P 5326   2.748   0.503   6.283 -0.0073 -0.3216 -0.3025
   40POPC   O13 5327   2.727   0.359   6.267  0.4084 -0.2330  0.0107
   40POPC   O14 5328   2.632   0.593   6.269  0.0379  0.4533 -0.0110
   40POPC   O12 5329   2.859   0.536   6.177  1.1812  0.6259 -0.2969
   40POPC   O11 5330   2.807   0.520   6.423  0.2487  0.5547  0.2760
   40POPC    C1 5331   2.783   0.421   6.531 -0.4416  0.2979  1.2740
   40POPC    HA 5332   2.823   0.463   6.625 -1.7224  1.9737  1.1173
   40POPC    HB 5333   2.828   0.321   6.512 -0.5378  0.6294 -1.0273
   40POPC    C2 5334   2.631   0.397   6.561  0.2627 -0.3365 -0.1998
   40POPC    HS 5335   2.573   0.372   6.470 -1.4297  0.9148  0.4779
   40POPC   O21 5336   2.579   0.521   6.618 -0.7456 -1.3060 -0.1097
   40POPC   C21 5337   2.453   0.530   6.634 -0.0998 -0.0038 -0.8709
   40POPC   O22 5338   2.370   0.442   6.600 -0.6430  0.0238 -0.2585
   40POPC   C22 5339   2.421   0.655   6.723  0.4019 -0.4523  0.4958
   40POPC   H2R 5340   2.313   0.666   6.745  0.5031  0.9690  0.3728
   40POPC   H2S 5341   2.450   0.745   6.664 -1.8678 -1.4481 -2.3968
   40POPC    C3 5342   2.614   0.274   6.648 -0.3252  0.5731 -0.4398
   40POPC    HX 5343   2.677   0.192   6.607  0.5287  1.0843 -0.1881
   40POPC    HY 5344   2.512   0.231   6.640  0.4788 -1.3928 -0.7593
   40POPC   O31 5345   2.652   0.293   6.791 -0.4077 -0.2914  0.4372
   40POPC   C31 5346   2.766   0.239   6.829 -0.3961 -0.4027  0.2007
   40POPC   O32 5347   2.842   0.175   6.759 -0.9155  0.3473  0.0749
   40POPC   C32 5348   2.788   0.275   6.973 -0.0899 -0.3541  0.1500
   40POPC   H2X 5349   2.689   0.257   7.020 -0.6596  1.5986 -0.1925
   40POPC   H2Y 5350   2.799   0.386   6.980 -1.3181  0.0040 -2.4117
   40POPC   C23 5351   2.488   0.644   6.869 -0.1126 -0.0887  0.0894
   40POPC   H3R 5352   2.464   0.742   6.915  0.7359 -0.2753  0.9507
   40POPC   H3S 5353   2.599   0.637   6.868 -0.1467 -0.7069  0.0902
   40POPC   C24 5354   2.440   0.534   6.956 -0.0747  0.0144  0.0928
   40POPC   H4R 5355   2.473   0.433   6.924 -0.1788 -0.2663  0.8449
   40POPC   H4S 5356   2.329   0.537   6.964 -0.2948 -2.9200 -0.7601
   40POPC   C25 5357   2.504   0.548   7.093 -0.2070  0.1237 -0.3592
   40POPC   H5R 5358   2.485   0.654   7.116  0.3899 -0.0441  0.9979
   40POPC   H5S 5359   2.615   0.539   7.088  0.2795  2.2727  3.1370
   40POPC   C26 5360   2.439   0.450   7.196  0.0729 -0.3356 -0.1244
   40POPC   H6R 5361   2.452   0.349   7.152 -1.4359 -1.2692  1.4449
   40POPC   H6S 5362   2.330   0.468   7.188 -0.4053 -1.6325  2.2690
   40POPC   C27 5363   2.488   0.450   7.333  0.2979  0.2692 -0.5630
   40POPC   H7R 5364   2.599   0.450   7.340  0.3207 -2.3611  0.1522
   40POPC   H7S 5365   2.456   0.355   7.383  0.2908  0.5195 -0.0802
   40POPC   C28 5366   2.425   0.571   7.418 -0.0330 -0.0842  0.4801
   40POPC   H8R 5367   2.316   0.571   7.397  0.1557  1.9324 -0.6959
   40POPC   H8S 5368   2.477   0.662   7.384  0.8149 -0.4638  0.7334
   40POPC   C29 5369   2.464   0.569   7.560 -0.6356 -0.5639 -0.2261
   40POPC   H91 5370   2.560   0.612   7.592 -0.9302 -0.0691 -0.0049
   40POPC  C210 5371   2.388   0.494   7.643 -0.2427 -0.6120  0.0710
   40POPC  H101 5372   2.417   0.491   7.749  1.6370 -1.1522 -0.4144
   40POPC  C211 5373   2.272   0.407   7.615  0.1024 -0.7027 -0.0063
   40POPC  H11R 5374   2.297   0.299   7.620  1.1711 -0.4520  0.3209
   40POPC  H11S 5375   2.241   0.415   7.508  0.0815  0.4205  0.0784
   40POPC  C212 5376   2.157   0.429   7.718  0.3814  0.5887  0.3026
   40POPC  H12R 5377   2.067   0.372   7.689  2.4194 -1.7120 -2.0513
   40POPC  H12S 5378   2.117   0.530   7.697 -1.2215  0.1012  0.8618
   40POPC  C213 5379   2.181   0.412   7.862 -0.3174  0.0752  1.0946
   40POPC  H13R 5380   2.270   0.466   7.901 -0.4338  1.3001 -0.2751
   40POPC  H13S 5381   2.204   0.305   7.885 -2.3987 -0.7425 -0.3815
   40POPC  C214 5382   2.064   0.444   7.959  0.2834  0.2248  0.4970
   40POPC  H14R 5383   1.973   0.386   7.934  2.7419 -3.4517 -0.7029
   40POPC  H14S 5384   2.039   0.551   7.939  3.4132  0.8026 -0.9726
   40POPC  C215 5385   2.092   0.422   8.107 -0.6757  0.5177  0.0354
   40POPC  H15R 5386   2.019   0.471   8.175  2.1939  0.4273  3.4726
   40POPC  H15S 5387   2.194   0.459   8.133  0.3690 -2.5781  0.7212
   40POPC  C216 5388   2.105   0.274   8.146  0.0900 -0.8589  0.0264
   40POPC  H16R 5389   2.123   0.261   8.255  3.3819  2.5495  0.1071
   40POPC  H16S 5390   2.191   0.227   8.093  0.2912 -0.1602 -0.2797
   40POPC  C217 5391   1.982   0.184   8.111  0.3642  0.8378 -0.1719
   40POPC  H17R 5392   1.968   0.175   8.001  2.3711  2.7924 -0.6727
   40POPC  H17S 5393   1.888   0.234   8.142 -1.4792 -1.0443 -2.3631
   40POPC  C218 5394   1.986   0.052   8.198  0.1704  0.3101  0.2114
   40POPC  H18R 5395   2.006   0.071   8.306  1.1691  0.9262 -0.0689
   40POPC  H18S 5396   2.072  -0.003   8.154  1.9688  2.6092  0.6598
   40POPC  H18T 5397   1.899  -0.010   8.169 -0.0852  0.6348  0.2809
   40POPC   C33 5398   2.920   0.219   7.030 -0.0753 -0.5494 -0.8990
   40POPC   H3X 5399   3.006   0.259   6.972 -1.8580  0.9898 -2.6679
   40POPC   H3Y 5400   2.930   0.112   7.001  0.8610 -1.1705  1.5206
   40POPC   C34 5401   2.936   0.264   7.175 -0.0935 -0.6863 -0.3328
   40POPC   H4X 5402   2.939   0.375   7.175 -2.6509 -0.5610 -1.1353
   40POPC   H4Y 5403   3.032   0.222   7.213  0.9146  0.4791 -1.4967
   40POPC   C35 5404   2.828   0.228   7.278  0.0771  0.3825  0.6868
   40POPC   H5X 5405   2.809   0.119   7.287 -0.5091  0.3063 -1.2035
   40POPC   H5Y 5406   2.733   0.276   7.248 -0.2658 -0.7063 -0.0127
   40POPC   C36 5407   2.870   0.282   7.417  0.8335  0.0500 -0.2770
   40POPC   H6X 5408   2.877   0.391   7.396  0.1603 -0.1551 -1.6445
   40POPC   H6Y 5409   2.972   0.248   7.445  0.8077  0.0599 -0.1720
   40POPC   C37 5410   2.765   0.251   7.524 -0.7215  0.1649 -0.1681
   40POPC   H7X 5411   2.782   0.146   7.555 -0.0773  0.3680  0.1842
   40POPC   H7Y 5412   2.658   0.256   7.494 -1.0034 -1.8323  0.3751
   40POPC   C38 5413   2.769   0.333   7.654 -0.5445 -0.3055 -0.2366
   40POPC   H8X 5414   2.758   0.440   7.627 -0.6856  0.0719  1.2222
   40POPC   H8Y 5415   2.874   0.325   7.687  0.7156  2.1215 -3.1664
   40POPC   C39 5416   2.680   0.269   7.758  0.4754  0.0634 -0.4856
   40POPC   H9X 5417   2.711   0.162   7.763  0.7604  0.1012 -1.3156
   40POPC   H9Y 5418   2.574   0.271   7.725 -0.2336  2.2155  1.6040
   40POPC  C310 5419   2.692   0.338   7.895  0.2137 -0.1677 -0.5412
   40POPC  H10X 5420   2.717   0.446   7.884  2.4702 -0.7998 -2.5252
   40POPC  H10Y 5421   2.772   0.293   7.957 -0.9692 -1.2189  0.2721
   40POPC  C311 5422   2.566   0.314   7.987  0.1386  0.8633  0.2767
   40POPC  H11X 5423   2.561   0.203   7.988 -1.5617  0.9059 -0.2251
   40POPC  H11Y 5424   2.474   0.348   7.935 -0.2790 -0.6240  0.0057
   40POPC  C312 5425   2.589   0.380   8.128 -0.5535  0.4208  0.3114
   40POPC  H12X 5426   2.603   0.490   8.133 -1.0330  0.4307  2.9620
   40POPC  H12Y 5427   2.675   0.324   8.171 -0.5224  0.6587  0.5627
   40POPC  C313 5428   2.460   0.340   8.214 -0.0781  0.7898  0.8459
   40POPC  H13X 5429   2.464   0.229   8.227 -1.1319  0.7172  0.6572
   40POPC  H13Y 5430   2.379   0.357   8.141  1.0741 -1.8779 -1.2394
   40POPC  C314 5431   2.447   0.398   8.352  0.8261 -0.9956 -0.3500
   40POPC  H14X 5432   2.341   0.381   8.379 -0.2300  0.6900 -3.0573
   40POPC  H14Y 5433   2.444   0.509   8.359  0.3400 -1.0373  0.1650
   40POPC  C315 5434   2.526   0.332   8.471 -0.2970 -0.1163 -0.7000
   40POPC  H15X 5435   2.633   0.360   8.459 -0.7789  3.3790  1.8101
   40POPC  H15Y 5436   2.495   0.227   8.452 -0.9957 -0.2505  1.0078
   40POPC  C316 5437   2.474   0.357   8.606 -0.3888 -0.8822 -0.3511
   40POPC  H16X 5438   2.461   0.467   8.618 -2.5516 -1.0856 -0.5975
   40POPC  H16Y 5439   2.542   0.321   8.687  0.5033  0.7417 -0.3187
   40POPC  H16Z 5440   2.379   0.302   8.623 -0.2961 -0.9294  0.0380
   41CHL1    C3 5441   0.287   5.226  10.167 -0.2484  0.5051  0.1315
   41CHL1    H3 5442   0.243   5.328  10.173 -0.8058  0.2190  1.1507
   41CHL1    O3 5443   0.304   5.187  10.298  0.2364  0.5384 -0.1352
   41CHL1   H3' 5444   0.397   5.185  10.320  0.4679 -1.2324 -1.0722
   41CHL1    C4 5445   0.181   5.140  10.095  0.1046  0.0912 -0.0423
   41CHL1   H4A 5446   0.217   5.035  10.098 -0.4328 -0.1754 -1.6439
   41CHL1   H4B 5447   0.089   5.155  10.155 -0.5885 -0.2707 -0.9943
   41CHL1    C5 5448   0.158   5.186   9.959 -0.9519 -0.9330  0.9383
   41CHL1    C6 5449   0.035   5.233   9.924  0.0190 -0.2653  0.6509
   41CHL1    H6 5450  -0.051   5.227   9.991 -0.0968  1.0675  0.6501
   41CHL1    C7 5451  -0.002   5.283   9.786  0.7865  0.3358 -0.5751
   41CHL1   H7A 5452  -0.089   5.226   9.749  1.7522 -0.3991 -1.8089
   41CHL1   H7B 5453  -0.021   5.392   9.784  3.5487  1.0540  2.5061
   41CHL1    C8 5454   0.113   5.244   9.690 -0.3347  0.4986  0.8418
   41CHL1    H8 5455   0.109   5.135   9.667 -1.7867  0.7816 -0.3573
   41CHL1   C14 5456   0.093   5.327   9.562  0.0766 -0.2282 -0.6597
   41CHL1   H14 5457   0.110   5.430   9.597  0.3040 -0.4804 -0.0238
   41CHL1   C15 5458  -0.051   5.333   9.506 -0.2321  0.2790 -0.7243
   41CHL1  H15A 5459  -0.087   5.228   9.502  1.8973 -0.5033 -1.1035
   41CHL1  H15B 5460  -0.106   5.409   9.564  1.0202  0.5298  0.1783
   41CHL1   C16 5461  -0.024   5.384   9.361  0.0913  0.3999  1.0091
   41CHL1  H16A 5462  -0.066   5.312   9.288  0.0932 -1.9941  3.2441
   41CHL1  H16B 5463  -0.068   5.485   9.341 -1.0973  0.0729  1.8652
   41CHL1   C17 5464   0.130   5.391   9.345  0.0674  0.3642  0.5341
   41CHL1   H17 5465   0.160   5.494   9.373  1.6525  0.2410 -0.5258
   41CHL1   C13 5466   0.191   5.295   9.446  0.7549 -0.4386  0.6732
   41CHL1   C18 5467   0.180   5.145   9.402  0.3827 -0.1631  0.1174
   41CHL1  H18A 5468   0.081   5.124   9.356  1.1783 -2.9400 -0.5181
   41CHL1  H18B 5469   0.256   5.119   9.325 -2.1995 -1.2375 -2.2412
   41CHL1  H18C 5470   0.195   5.082   9.492  2.4908  0.9159  0.5928
   41CHL1   C12 5471   0.331   5.337   9.501 -0.5073  0.6196 -0.3474
   41CHL1  H12A 5472   0.404   5.314   9.421 -1.4836  0.5880 -1.2631
   41CHL1  H12B 5473   0.340   5.447   9.517  0.3123  0.2628  1.9418
   41CHL1   C11 5474   0.369   5.256   9.628  0.0472  0.0705 -0.3823
   41CHL1  H11A 5475   0.384   5.147   9.615  2.1153  0.2351  0.2501
   41CHL1  H11B 5476   0.463   5.297   9.671  1.2126 -0.5734 -2.1837
   41CHL1    C9 5477   0.254   5.279   9.741 -0.1813  0.0897  0.6800
   41CHL1    H9 5478   0.261   5.389   9.752  1.6939  0.0187  0.5431
   41CHL1   C10 5479   0.290   5.206   9.870  0.7604  0.5798  0.0172
   41CHL1   C19 5480   0.338   5.061   9.849 -0.1905  0.2718  0.4503
   41CHL1  H19A 5481   0.434   5.053   9.795  0.3969  1.1957  1.3236
   41CHL1  H19B 5482   0.352   5.002   9.942  2.8838 -2.0727 -1.3159
   41CHL1  H19C 5483   0.268   5.013   9.777 -0.4710  1.5003 -0.1188
   41CHL1    C1 5484   0.398   5.281   9.952  0.3256 -0.4352  0.4406
   41CHL1   H1A 5485   0.496   5.267   9.901 -0.1223  0.3049 -0.6660
   41CHL1   H1B 5486   0.372   5.389   9.959  0.2131 -0.5019  1.0867
   41CHL1    C2 5487   0.425   5.226  10.086  0.1371 -0.2400 -0.2321
   41CHL1   H2A 5488   0.492   5.295  10.142 -1.7753 -0.0776  1.9662
   41CHL1   H2B 5489   0.460   5.121  10.092 -0.6244 -0.4644  0.4050
   41CHL1   C20 5490   0.182   5.384   9.200  0.2895  0.1643 -0.0310
   41CHL1   H20 5491   0.183   5.276   9.174  2.7352  0.4629 -1.4736
   41CHL1   C21 5492   0.323   5.419   9.191 -0.3648  0.2182  0.4268
   41CHL1  H21A 5493   0.339   5.441   9.083 -0.7337  1.4824  0.6063
   41CHL1  H21B 5494   0.390   5.341   9.231  1.5741  1.4173 -0.3303
   41CHL1  H21C 5495   0.353   5.514   9.241 -0.2356  1.0142 -1.0998
   41CHL1   C22 5496   0.091   5.454   9.087  0.6681  0.9255  0.3404
   41CHL1  H22A 5497  -0.019   5.456   9.103  0.6092  0.4761  0.0477
   41CHL1  H22B 5498   0.127   5.558   9.078  1.6701  0.4251 -3.6103
   41CHL1   C23 5499   0.112   5.403   8.941  0.6063  0.0562  0.0930
   41CHL1  H23A 5500   0.221   5.397   8.922  1.0137  0.2069  2.0824
   41CHL1  H23B 5501   0.068   5.301   8.946  0.1881  0.2821  1.6310
   41CHL1   C24 5502   0.037   5.490   8.840 -0.4862 -0.3377  0.3442
   41CHL1  H24A 5503  -0.069   5.514   8.861 -0.6940 -0.3210 -0.6766
   41CHL1  H24B 5504   0.080   5.591   8.822 -0.8280 -0.6028 -2.4109
   41CHL1   C25 5505   0.035   5.434   8.694  0.3613  0.8075  0.5319
   41CHL1   H25 5506   0.144   5.417   8.683  0.3907 -0.5777  2.3371
   41CHL1   C26 5507  -0.025   5.291   8.693 -0.4006 -0.2591  0.2727
   41CHL1  H26A 5508  -0.127   5.286   8.738  0.8247 -2.3584  3.1614
   41CHL1  H26B 5509  -0.028   5.254   8.589 -1.6310  0.3915  0.0579
   41CHL1  H26C 5510   0.035   5.217   8.750  0.3345 -1.1738 -1.6364
   41CHL1   C27 5511  -0.040   5.519   8.586  0.0508 -0.2585  0.4749
   41CHL1  H27A 5512   0.018   5.614   8.581  0.2468 -0.3433  1.0564
   41CHL1  H27B 5513  -0.045   5.475   8.485 -0.1711 -0.1267  0.4274
   41CHL1  H27C 5514  -0.146   5.530   8.619  0.5696 -0.1467  2.2468
   42CHL1    C3 5515   0.720   5.746   9.869 -0.0414 -0.0545 -0.2495
   42CHL1    H3 5516   0.736   5.843   9.816 -2.1514  0.7554  0.4796
   42CHL1    O3 5517   0.663   5.779   9.996  0.3834 -0.6566  0.1524
   42CHL1   H3' 5518   0.589   5.838   9.978 -0.4866 -1.8127 -0.1631
   42CHL1    C4 5519   0.625   5.652   9.794 -0.3548 -0.0124  0.6825
   42CHL1   H4A 5520   0.601   5.564   9.856 -0.2943 -0.2304  0.3981
   42CHL1   H4B 5521   0.536   5.710   9.759 -0.9195 -2.2168 -1.8787
   42CHL1    C5 5522   0.677   5.591   9.669 -0.8079 -0.2082  0.3733
   42CHL1    C6 5523   0.609   5.595   9.550  0.0278  0.2119 -0.2132
   42CHL1    H6 5524   0.507   5.636   9.545 -0.3459 -0.7533 -0.7323
   42CHL1    C7 5525   0.644   5.541   9.416 -0.4198  0.5314 -0.1792
   42CHL1   H7A 5526   0.561   5.477   9.380 -0.3411 -0.0131  0.5742
   42CHL1   H7B 5527   0.668   5.613   9.335  0.3769 -0.7514 -1.1245
   42CHL1    C8 5528   0.769   5.447   9.435  0.0811  0.0202  0.1168
   42CHL1    H8 5529   0.739   5.346   9.473 -1.2753  0.7032  0.9392
   42CHL1   C14 5530   0.840   5.432   9.299  0.2871  0.1332  0.4140
   42CHL1   H14 5531   0.869   5.537   9.277 -0.4554  0.6088  1.5714
   42CHL1   C15 5532   0.753   5.381   9.184  0.4335 -0.1123 -0.2839
   42CHL1  H15A 5533   0.674   5.313   9.223 -0.1025 -0.1079 -1.3385
   42CHL1  H15B 5534   0.700   5.469   9.141  1.1027 -0.6218 -2.2590
   42CHL1   C16 5535   0.853   5.321   9.086 -0.2683  0.0891 -0.1685
   42CHL1  H16A 5536   0.840   5.211   9.081  0.7614 -0.0811  0.5231
   42CHL1  H16B 5537   0.848   5.355   8.980 -1.6319 -0.3223 -0.2481
   42CHL1   C17 5538   0.989   5.351   9.146  0.1848 -0.3245  0.5738
   42CHL1   H17 5539   1.017   5.456   9.123  1.5871 -0.3967  1.8327
   42CHL1   C13 5540   0.968   5.349   9.299  0.0265  0.5952 -0.2513
   42CHL1   C18 5541   0.945   5.205   9.332  1.0771 -0.3794  0.2644
   42CHL1  H18A 5542   0.923   5.212   9.441  0.7023  1.4424  0.1025
   42CHL1  H18B 5543   0.852   5.164   9.286  1.0768 -0.7331  0.5722
   42CHL1  H18C 5544   1.022   5.126   9.318  0.2383 -1.6777  2.4262
   42CHL1   C12 5545   1.069   5.426   9.378 -0.1463 -0.0592  0.3670
   42CHL1  H12A 5546   1.166   5.374   9.389  0.7876  1.8339  1.6971
   42CHL1  H12B 5547   1.072   5.530   9.340 -2.7631 -0.4375 -1.1483
   42CHL1   C11 5548   1.013   5.447   9.528  0.1266 -0.7266 -0.4644
   42CHL1  H11A 5549   1.037   5.354   9.584  3.4768  0.5583  0.5179
   42CHL1  H11B 5550   1.077   5.521   9.582 -1.5440  0.4617 -0.0218
   42CHL1    C9 5551   0.873   5.507   9.540 -0.1021 -0.2371 -0.4059
   42CHL1    H9 5552   0.884   5.610   9.499  1.0666 -0.8204 -1.6277
   42CHL1   C10 5553   0.821   5.537   9.683 -0.3504  0.5057 -0.0985
   42CHL1   C19 5554   0.824   5.400   9.756  0.0775 -0.2205  0.5728
   42CHL1  H19A 5555   0.777   5.315   9.702  2.2309 -1.2592  0.2264
   42CHL1  H19B 5556   0.926   5.360   9.772 -0.1978 -1.2114 -0.0558
   42CHL1  H19C 5557   0.782   5.401   9.859 -0.9321 -2.1331  0.2411
   42CHL1    C1 5558   0.913   5.641   9.761 -0.1603  0.2793  0.6481
   42CHL1   H1A 5559   1.019   5.606   9.763  0.1047  1.0714  0.8856
   42CHL1   H1B 5560   0.908   5.732   9.698 -1.8119  0.8363  1.5299
   42CHL1    C2 5561   0.858   5.681   9.895  0.3268  0.1037 -0.5970
   42CHL1   H2A 5562   0.930   5.753   9.939  0.5442 -0.3545 -0.1829
   42CHL1   H2B 5563   0.843   5.598   9.968  1.4219  2.2308  2.2113
   42CHL1   C20 5564   1.088   5.252   9.084  0.1504 -0.0444 -0.1698
   42CHL1   H20 5565   1.051   5.148   9.079  2.0301 -0.7816  0.3102
   42CHL1   C21 5566   1.218   5.251   9.160  0.9200  0.1332 -0.4551
   42CHL1  H21A 5567   1.300   5.190   9.118  0.2269 -0.0539 -1.5717
   42CHL1  H21B 5568   1.189   5.210   9.258 -2.1634  2.3220 -0.3083
   42CHL1  H21C 5569   1.263   5.353   9.167 -0.2603  0.6248  0.1662
   42CHL1   C22 5570   1.132   5.306   8.940  0.6735 -0.6496  0.2835
   42CHL1  H22A 5571   1.034   5.313   8.889  2.0745 -0.1142 -2.4936
   42CHL1  H22B 5572   1.179   5.406   8.949 -1.1104  0.0502  3.5822
   42CHL1   C23 5573   1.229   5.219   8.854  0.4697  0.1771 -0.1204
   42CHL1  H23A 5574   1.248   5.264   8.754 -2.9934  1.4646 -0.3396
   42CHL1  H23B 5575   1.325   5.209   8.908  0.0458 -0.6139  0.5163
   42CHL1   C24 5576   1.182   5.076   8.817  0.1471 -0.6499 -0.4265
   42CHL1  H24A 5577   1.271   5.010   8.808  0.0245 -0.9478  0.4318
   42CHL1  H24B 5578   1.122   5.050   8.907 -3.8109 -0.2573 -2.6952
   42CHL1   C25 5579   1.082   5.069   8.694  0.6043  0.4467  0.0675
   42CHL1   H25 5580   0.998   5.136   8.721  0.7954  0.9558 -0.5704
   42CHL1   C26 5581   1.153   5.098   8.565 -0.4438  0.2140  0.0556
   42CHL1  H26A 5582   1.215   5.191   8.572  0.5168 -0.4731  1.2577
   42CHL1  H26B 5583   1.215   5.009   8.540  0.8183  1.0077  0.2254
   42CHL1  H26C 5584   1.078   5.121   8.487 -0.4163  1.7275  0.4431
   42CHL1   C27 5585   1.024   4.927   8.685 -0.2641 -0.1323 -0.0521
   42CHL1  H27A 5586   1.099   4.845   8.675 -0.2166  0.1993 -3.6869
   42CHL1  H27B 5587   0.964   4.909   8.777 -1.4011  3.3573  0.0324
   42CHL1  H27C 5588   0.971   4.921   8.588  1.5358 -0.4404 -1.0761
   43CHL1    C3 5589   2.631   5.834  10.009 -0.5294  0.0167 -0.2070
   43CHL1    H3 5590   2.585   5.932  10.036 -0.5972  0.2662 -1.1872
   43CHL1    O3 5591   2.679   5.765  10.121 -0.1852  0.1611  0.2583
   43CHL1   H3' 5592   2.600   5.728  10.161 -1.4095  2.4231  0.1231
   43CHL1    C4 5593   2.537   5.744   9.930  0.4381 -0.0195 -0.8387
   43CHL1   H4A 5594   2.591   5.648   9.919 -0.9346 -0.7769 -1.1853
   43CHL1   H4B 5595   2.451   5.719   9.996  1.6144 -0.3011  0.6423
   43CHL1    C5 5596   2.497   5.791   9.787  0.3086  0.8495 -0.7280
   43CHL1    C6 5597   2.368   5.798   9.758 -0.5328  0.0845  0.1424
   43CHL1    H6 5598   2.292   5.763   9.830 -0.0173  0.0102  0.6539
   43CHL1    C7 5599   2.328   5.847   9.621  1.1105  0.0012 -0.1950
   43CHL1   H7A 5600   2.248   5.792   9.567  1.2966 -2.9477  2.2527
   43CHL1   H7B 5601   2.286   5.946   9.647  1.7394 -0.3268  2.3283
   43CHL1    C8 5602   2.445   5.865   9.524 -0.3980  0.6149 -1.1540
   43CHL1    H8 5603   2.475   5.765   9.485 -2.3996 -0.6732  0.4349
   43CHL1   C14 5604   2.396   5.950   9.407 -0.7201 -0.4772  0.3228
   43CHL1   H14 5605   2.369   6.048   9.451  0.5962  0.6562 -1.2833
   43CHL1   C15 5606   2.285   5.899   9.325  0.2698 -0.1310 -0.3049
   43CHL1  H15A 5607   2.298   5.792   9.298  0.9143  0.2015 -1.4091
   43CHL1  H15B 5608   2.187   5.912   9.376 -0.1685 -2.4417 -0.4786
   43CHL1   C16 5609   2.285   5.974   9.187  0.8328 -0.3682  0.3855
   43CHL1  H16A 5610   2.282   5.906   9.099 -0.9637  0.5230 -0.3006
   43CHL1  H16B 5611   2.203   6.045   9.163 -0.6285 -2.1714 -0.1586
   43CHL1   C17 5612   2.415   6.055   9.191 -0.4688  0.3829  0.0129
   43CHL1   H17 5613   2.387   6.152   9.237  2.9771  0.9218  1.2483
   43CHL1   C13 5614   2.502   5.976   9.300 -0.2677 -0.0235 -0.0045
   43CHL1   C18 5615   2.562   5.845   9.234  0.2876 -0.1712 -0.2919
   43CHL1  H18A 5616   2.483   5.802   9.169  0.2876 -2.1726  0.9204
   43CHL1  H18B 5617   2.654   5.869   9.176 -0.2995 -1.1102 -1.6454
   43CHL1  H18C 5618   2.571   5.769   9.315 -0.1616  1.1103  1.0130
   43CHL1   C12 5619   2.622   6.047   9.356 -0.0953 -0.1607 -0.3976
   43CHL1  H12A 5620   2.705   6.069   9.286 -0.0398  0.6058 -0.1059
   43CHL1  H12B 5621   2.579   6.146   9.384 -3.0003 -1.6186  0.6582
   43CHL1   C11 5622   2.682   5.976   9.477  0.3342  0.6965 -0.9199
   43CHL1  H11A 5623   2.733   5.887   9.435 -0.1848  0.0001 -0.1090
   43CHL1  H11B 5624   2.767   6.030   9.523  0.6244  0.5865 -1.3263
   43CHL1    C9 5625   2.572   5.929   9.588 -0.0572  0.3840 -0.1169
   43CHL1    H9 5626   2.548   6.024   9.641 -0.3149  1.0629 -1.4206
   43CHL1   C10 5627   2.621   5.839   9.708 -0.1656 -0.1779  0.8188
   43CHL1   C19 5628   2.697   5.717   9.652 -0.9450 -0.9100  0.1384
   43CHL1  H19A 5629   2.798   5.755   9.624 -0.4730 -1.5426  0.9295
   43CHL1  H19B 5630   2.721   5.645   9.733 -1.1929  0.7348  1.7435
   43CHL1  H19C 5631   2.649   5.676   9.560 -0.5876 -0.2236 -0.3629
   43CHL1    C1 5632   2.712   5.926   9.789  0.2125  0.1175  0.5518
   43CHL1   H1A 5633   2.799   5.965   9.732  0.8844 -1.9041  0.1383
   43CHL1   H1B 5634   2.652   6.011   9.829  1.5766  1.8357 -0.8740
   43CHL1    C2 5635   2.758   5.862   9.922  0.7333  0.2428  0.2784
   43CHL1   H2A 5636   2.812   5.948   9.967 -2.7362  2.0048  1.4304
   43CHL1   H2B 5637   2.833   5.784   9.899 -0.0350 -0.8870  1.4146
   43CHL1   C20 5638   2.486   6.103   9.060 -0.5649  0.1913 -0.3413
   43CHL1   H20 5639   2.557   6.023   9.031  0.8891  1.5226 -0.6296
   43CHL1   C21 5640   2.559   6.235   9.091  0.2488 -0.6297  0.0745
   43CHL1  H21A 5641   2.631   6.267   9.013 -0.1262  1.0819  0.3740
   43CHL1  H21B 5642   2.612   6.250   9.188  1.1629 -1.5425 -0.2681
   43CHL1  H21C 5643   2.486   6.319   9.090  0.9964  0.4650  5.2741
   43CHL1   C22 5644   2.387   6.114   8.936 -0.4691  0.1507  0.4230
   43CHL1  H22A 5645   2.357   6.010   8.910  1.4601 -0.2008 -0.6139
   43CHL1  H22B 5646   2.298   6.173   8.965 -0.3874  0.5715 -0.1543
   43CHL1   C23 5647   2.449   6.172   8.809 -0.7622 -0.7706  0.0491
   43CHL1  H23A 5648   2.363   6.194   8.742 -0.4839  2.2496  0.5339
   43CHL1  H23B 5649   2.490   6.268   8.845 -0.8921 -0.1567 -1.3833
   43CHL1   C24 5650   2.551   6.085   8.735 -0.5927  0.4701  0.2268
   43CHL1  H24A 5651   2.622   6.063   8.817 -0.6324 -1.2671 -0.1737
   43CHL1  H24B 5652   2.509   5.992   8.692 -0.7450  0.3522  0.6294
   43CHL1   C25 5653   2.617   6.177   8.626 -0.1435 -0.6174  1.2390
   43CHL1   H25 5654   2.536   6.246   8.594  0.5816  0.5571  1.8727
   43CHL1   C26 5655   2.738   6.256   8.680 -0.4170 -0.1523  0.3826
   43CHL1  H26A 5656   2.780   6.325   8.604 -0.8768 -1.5744 -1.2351
   43CHL1  H26B 5657   2.696   6.301   8.772 -0.4147  2.0476 -0.6421
   43CHL1  H26C 5658   2.821   6.189   8.714 -0.0753  0.2874  0.4241
   43CHL1   C27 5659   2.672   6.105   8.506  0.1844  0.4188  0.7583
   43CHL1  H27A 5660   2.694   6.175   8.422 -1.6577 -0.4730 -0.5393
   43CHL1  H27B 5661   2.767   6.055   8.534  0.7493  1.3063  0.4752
   43CHL1  H27C 5662   2.592   6.030   8.489  1.1082 -0.9101  2.0981
   44CHL1    C3 5663   3.448   6.140  10.098  0.0373 -0.1152  0.1628
   44CHL1    H3 5664   3.368   6.217  10.107  0.7679  0.6288  0.3757
   44CHL1    O3 5665   3.512   6.113  10.223 -0.2866  0.3830  0.0964
   44CHL1   H3' 5666   3.441   6.078  10.278 -0.3668 -0.1313 -0.3290
   44CHL1    C4 5667   3.374   6.013  10.061  0.2349 -0.3544  0.8081
   44CHL1   H4A 5668   3.454   5.936  10.067  1.2896  0.1803 -3.1914
   44CHL1   H4B 5669   3.302   5.976  10.136  1.5104 -2.0648  1.2755
   44CHL1    C5 5670   3.309   6.016   9.919  0.0808 -0.5418 -0.6048
   44CHL1    C6 5671   3.183   5.982   9.891  0.5041 -0.1468  0.2855
   44CHL1    H6 5672   3.127   5.953   9.982  0.5846 -0.3089  0.2838
   44CHL1    C7 5673   3.120   5.977   9.754 -0.0582  0.0840  0.2382
   44CHL1   H7A 5674   3.053   5.889   9.750 -0.3731  0.3596 -1.5878
   44CHL1   H7B 5675   3.065   6.070   9.728  0.0276  0.2914  0.7919
   44CHL1    C8 5676   3.232   5.978   9.643  0.2078  0.0641  0.2231
   44CHL1    H8 5677   3.271   5.874   9.637  1.6840  0.6133 -0.0834
   44CHL1   C14 5678   3.179   5.997   9.496  0.6398  0.2101 -0.5902
   44CHL1   H14 5679   3.124   6.093   9.497  1.2376  0.5714 -1.4615
   44CHL1   C15 5680   3.065   5.902   9.450 -0.2838  1.1159 -0.3638
   44CHL1  H15A 5681   3.088   5.797   9.479 -0.1641  1.3596  0.4526
   44CHL1  H15B 5682   2.963   5.928   9.486 -1.0156 -2.6455  0.6390
   44CHL1   C16 5683   3.058   5.916   9.301 -0.1548 -0.4638 -0.2565
   44CHL1  H16A 5684   3.083   5.825   9.243 -1.1938 -0.8449 -0.1249
   44CHL1  H16B 5685   2.967   5.975   9.275 -0.7861 -1.2356  0.1577
   44CHL1   C17 5686   3.182   6.016   9.268 -0.4598 -0.4075 -0.0206
   44CHL1   H17 5687   3.146   6.121   9.281 -0.5732 -0.4823  0.2874
   44CHL1   C13 5688   3.280   6.013   9.385  0.2829 -0.5260  0.2666
   44CHL1   C18 5689   3.364   5.880   9.375 -0.0846  0.3686  0.0325
   44CHL1  H18A 5690   3.418   5.865   9.471  0.2026  1.1675  0.0036
   44CHL1  H18B 5691   3.298   5.796   9.344  0.5331  0.1598 -0.7442
   44CHL1  H18C 5692   3.437   5.890   9.292 -1.4003 -1.5946 -1.4547
   44CHL1   C12 5693   3.364   6.139   9.425  0.0229  0.3644  1.1043
   44CHL1  H12A 5694   3.446   6.156   9.352 -1.5588 -0.7934 -1.0792
   44CHL1  H12B 5695   3.298   6.228   9.432 -0.8319 -0.3803  4.0216
   44CHL1   C11 5696   3.439   6.119   9.555  1.2152  0.2243  0.2814
   44CHL1  H11A 5697   3.528   6.053   9.545  1.3231  0.4293 -0.1194
   44CHL1  H11B 5698   3.470   6.221   9.586  0.4001  0.5587  0.0212
   44CHL1    C9 5699   3.340   6.076   9.673 -0.7218 -1.1438  0.3683
   44CHL1    H9 5700   3.298   6.177   9.694  2.0116  0.5282 -1.6077
   44CHL1   C10 5701   3.415   6.053   9.811 -0.1806  0.8001  0.5111
   44CHL1   C19 5702   3.516   5.932   9.801 -0.5684 -0.1890 -0.2652
   44CHL1  H19A 5703   3.582   5.919   9.890  0.5811 -2.4028 -1.3690
   44CHL1  H19B 5704   3.465   5.834   9.788  0.2864 -0.9586  1.6986
   44CHL1  H19C 5705   3.593   5.948   9.722 -0.1003 -2.8354 -0.4210
   44CHL1    C1 5706   3.494   6.180   9.851  0.3494  0.0531  0.3668
   44CHL1   H1A 5707   3.571   6.207   9.776 -1.5077  1.5565 -1.0779
   44CHL1   H1B 5708   3.422   6.264   9.844  0.2207 -0.1446 -0.8505
   44CHL1    C2 5709   3.555   6.173   9.991 -0.6468 -0.4937 -0.1719
   44CHL1   H2A 5710   3.614   6.266  10.008  1.0597 -1.7628  1.3096
   44CHL1   H2B 5711   3.630   6.091  10.002 -0.2169 -0.1485 -0.4726
   44CHL1   C20 5712   3.232   5.998   9.123  0.2827  0.4282  0.0422
   44CHL1   H20 5713   3.277   5.896   9.120  0.1322  0.3143  1.0763
   44CHL1   C21 5714   3.330   6.109   9.096 -0.7066  0.1967 -0.0684
   44CHL1  H21A 5715   3.417   6.088   9.161 -0.9064 -3.3955 -0.7445
   44CHL1  H21B 5716   3.276   6.203   9.119 -0.6696 -0.0624  1.1109
   44CHL1  H21C 5717   3.375   6.102   8.994 -0.2048 -2.0983  0.2482
   44CHL1   C22 5718   3.120   6.005   9.020 -0.4033  0.4279 -0.4781
   44CHL1  H22A 5719   3.045   5.927   9.046 -0.2103  0.0318 -1.0800
   44CHL1  H22B 5720   3.078   6.107   9.014  0.1952  0.6265 -1.4597
   44CHL1   C23 5721   3.171   5.976   8.869  0.5357 -0.0742 -0.1195
   44CHL1  H23A 5722   3.281   5.989   8.860  0.5680 -0.0413  0.3091
   44CHL1  H23B 5723   3.144   5.868   8.860  2.2268 -0.7023  1.6778
   44CHL1   C24 5724   3.088   6.051   8.763 -0.1982 -0.5111 -0.1334
   44CHL1  H24A 5725   2.982   6.047   8.795  0.1021 -0.7247  0.8450
   44CHL1  H24B 5726   3.123   6.157   8.766 -0.0064 -0.4554 -2.4852
   44CHL1   C25 5727   3.101   5.999   8.616  0.2524  0.1457 -0.2290
   44CHL1   H25 5728   3.210   5.975   8.607  1.1247  2.6142  2.1946
   44CHL1   C26 5729   3.014   5.871   8.610  0.1638 -0.0468 -0.2264
   44CHL1  H26A 5730   2.904   5.888   8.616  0.0005 -0.7839 -0.9551
   44CHL1  H26B 5731   3.048   5.817   8.519  1.6991 -1.6310  1.1995
   44CHL1  H26C 5732   3.050   5.804   8.691  1.5820 -0.8033 -1.4262
   44CHL1   C27 5733   3.065   6.086   8.505  0.2314  0.2008 -0.4273
   44CHL1  H27A 5734   3.102   6.191   8.505  2.3971 -0.5099 -0.8488
   44CHL1  H27B 5735   3.110   6.047   8.411 -2.4809  0.9536 -2.1554
   44CHL1  H27C 5736   2.955   6.096   8.502  0.0948  1.6713  3.6785
   45CHL1    C3 5737   5.188   4.597  10.240  1.0518 -0.3937  0.1911
   45CHL1    H3 5738   5.247   4.534  10.311  1.8924 -0.4626 -0.5588
   45CHL1    O3 5739   5.068   4.643  10.298  0.3453  0.7926 -0.3173
   45CHL1   H3' 5740   5.094   4.710  10.362  0.1857 -1.2777  2.0554
   45CHL1    C4 5741   5.272   4.712  10.178  0.2005 -0.2773 -0.1688
   45CHL1   H4A 5742   5.203   4.777  10.120  2.1238  0.8930 -1.2724
   45CHL1   H4B 5743   5.301   4.773  10.266 -1.5808  2.4964 -1.3970
   45CHL1    C5 5744   5.402   4.658  10.112  0.0561 -0.0508  0.2092
   45CHL1    C6 5745   5.521   4.679  10.162  0.3489 -0.9066  0.2346
   45CHL1    H6 5746   5.528   4.751  10.245 -4.5984 -1.0933  1.0915
   45CHL1    C7 5747   5.646   4.615  10.110 -0.0135  0.5150  0.7652
   45CHL1   H7A 5748   5.732   4.685  10.120  0.0016  0.3560  1.9094
   45CHL1   H7B 5749   5.670   4.526  10.173 -0.6621 -0.8886 -0.8960
   45CHL1    C8 5750   5.628   4.565   9.965  0.3756  0.3213  0.7226
   45CHL1    H8 5751   5.711   4.492   9.951  0.7612  0.9594 -0.4571
   45CHL1   C14 5752   5.649   4.679   9.858 -0.5621  0.7847  0.1614
   45CHL1   H14 5753   5.586   4.768   9.880 -0.5805  0.4774  1.4122
   45CHL1   C15 5754   5.793   4.742   9.856 -0.4940  0.2878 -0.7791
   45CHL1  H15A 5755   5.792   4.851   9.835  0.3408 -0.0642 -2.8941
   45CHL1  H15B 5756   5.846   4.726   9.952 -0.0683 -0.0433 -1.0681
   45CHL1   C16 5757   5.863   4.688   9.727  0.2737 -0.0657 -0.0250
   45CHL1  H16A 5758   5.868   4.771   9.653 -0.1632  0.5756  0.6453
   45CHL1  H16B 5759   5.964   4.647   9.749 -0.4718 -0.7122  2.4365
   45CHL1   C17 5760   5.769   4.576   9.673 -0.1563 -0.2753 -0.6306
   45CHL1   H17 5761   5.782   4.486   9.737 -0.5992  0.3538  0.3648
   45CHL1   C13 5762   5.625   4.626   9.713 -0.1231 -0.4474  0.6584
   45CHL1   C18 5763   5.593   4.749   9.618  0.3743 -0.0912  0.2112
   45CHL1  H18A 5764   5.500   4.795   9.659  0.7081  3.6273 -2.7109
   45CHL1  H18B 5765   5.670   4.828   9.630 -0.8253  1.5179 -2.0295
   45CHL1  H18C 5766   5.565   4.716   9.516  1.7317  0.8653 -0.4990
   45CHL1   C12 5767   5.519   4.520   9.690 -0.0151 -0.2649  0.3603
   45CHL1  H12A 5768   5.430   4.580   9.662  0.3619  0.0884 -0.1005
   45CHL1  H12B 5769   5.538   4.462   9.596 -0.5554  0.6858 -0.3491
   45CHL1   C11 5770   5.491   4.425   9.801  0.3263  0.4691  0.3630
   45CHL1  H11A 5771   5.397   4.368   9.784 -0.0826  0.8149  1.3871
   45CHL1  H11B 5772   5.561   4.340   9.809 -0.5675 -0.1187  2.4554
   45CHL1    C9 5773   5.498   4.488   9.942  0.4756  0.2272  0.2785
   45CHL1    H9 5774   5.508   4.393  10.000  0.8174 -0.1671 -0.4110
   45CHL1   C10 5775   5.373   4.561   9.990  0.3918  0.7505  0.1840
   45CHL1   C19 5776   5.316   4.650   9.882  0.2371 -0.0687 -0.2319
   45CHL1  H19A 5777   5.233   4.714   9.919  0.0919  0.1386 -0.8997
   45CHL1  H19B 5778   5.386   4.729   9.846  0.1610  1.1009  2.0688
   45CHL1  H19C 5779   5.266   4.592   9.800 -1.2331 -1.2836  1.4469
   45CHL1    C1 5780   5.267   4.453  10.037 -0.1317 -0.8168 -0.5957
   45CHL1   H1A 5781   5.228   4.393   9.952 -0.0120  1.1880 -2.1166
   45CHL1   H1B 5782   5.328   4.385  10.101  1.6747  1.0696 -0.2404
   45CHL1    C2 5783   5.146   4.503  10.122 -0.4792  0.2006 -0.9639
   45CHL1   H2A 5784   5.108   4.406  10.161 -0.8703 -0.2163 -2.3126
   45CHL1   H2B 5785   5.067   4.552  10.061 -0.2782  4.0721  1.5463
   45CHL1   C20 5786   5.788   4.528   9.529  0.3332  1.1225  0.3792
   45CHL1   H20 5787   5.695   4.503   9.475 -0.1506  1.7731  0.8901
   45CHL1   C21 5788   5.890   4.414   9.544  0.8932  0.2937  0.5349
   45CHL1  H21A 5789   5.905   4.362   9.447 -2.4616  1.1475 -0.5752
   45CHL1  H21B 5790   5.848   4.343   9.619  3.0195  0.3010  1.8016
   45CHL1  H21C 5791   5.985   4.455   9.586  2.0234 -1.6802  0.0195
   45CHL1   C22 5792   5.846   4.634   9.436  0.1632  0.1983 -0.4154
   45CHL1  H22A 5793   5.791   4.730   9.435 -0.4061 -0.1246 -0.7773
   45CHL1  H22B 5794   5.947   4.658   9.476 -1.5475  2.5902  3.0347
   45CHL1   C23 5795   5.839   4.590   9.292  0.1404 -0.0436  0.3721
   45CHL1  H23A 5796   5.848   4.481   9.275 -0.5896 -0.4705  2.5073
   45CHL1  H23B 5797   5.735   4.608   9.258  0.8007  0.6726 -1.4148
   45CHL1   C24 5798   5.925   4.677   9.207  0.2361  0.2824  0.3871
   45CHL1  H24A 5799   5.899   4.782   9.229  0.2699  0.6085 -1.0171
   45CHL1  H24B 5800   6.029   4.657   9.242 -0.2585 -3.5741  0.1325
   45CHL1   C25 5801   5.917   4.645   9.055  0.3455  0.5825 -0.2223
   45CHL1   H25 5802   5.812   4.663   9.025 -1.8580 -2.3813  4.4280
   45CHL1   C26 5803   6.011   4.736   8.967  0.2580  0.2264 -0.2226
   45CHL1  H26A 5804   5.971   4.839   8.959 -0.5296  0.1345  1.8336
   45CHL1  H26B 5805   6.113   4.737   9.012 -0.5879  1.5410  1.8384
   45CHL1  H26C 5806   6.004   4.693   8.865 -3.0771  0.0397 -0.0128
   45CHL1   C27 5807   5.937   4.491   9.027 -0.4214 -0.2759  0.0148
   45CHL1  H27A 5808   6.040   4.460   9.053  0.7016  3.1826  0.1496
   45CHL1  H27B 5809   5.861   4.423   9.072 -0.6369  0.7213  1.2188
   45CHL1  H27C 5810   5.936   4.473   8.918  0.9849  2.3202 -0.5103
   46CHL1    C3 5811   1.407   2.933  10.089 -0.0182  0.1233 -0.0453
   46CHL1    H3 5812   1.315   2.977  10.134  0.1248 -0.0501  0.4225
   46CHL1    O3 5813   1.473   2.862  10.198 -0.0598  0.2380  0.4479
   46CHL1   H3' 5814   1.568   2.860  10.184  0.8946  0.9944  5.2296
   46CHL1    C4 5815   1.378   2.831   9.981  0.5379  0.0708  0.0787
   46CHL1   H4A 5816   1.480   2.799   9.951  1.4302  0.9732  1.9540
   46CHL1   H4B 5817   1.323   2.741  10.018 -0.9452  1.3527  1.1323
   46CHL1    C5 5818   1.308   2.897   9.860  0.1699  0.4061  0.8064
   46CHL1    C6 5819   1.190   2.855   9.810  0.1582  0.3015  0.4135
   46CHL1    H6 5820   1.131   2.768   9.839 -1.3508  0.3773 -2.1155
   46CHL1    C7 5821   1.119   2.912   9.682  0.2549  0.3607  0.0027
   46CHL1   H7A 5822   1.073   2.831   9.621 -1.8777 -0.5696  2.6731
   46CHL1   H7B 5823   1.033   2.975   9.710 -0.2299  0.5307 -1.7382
   46CHL1    C8 5824   1.224   2.987   9.602 -0.0893 -0.4514 -0.5301
   46CHL1    H8 5825   1.295   2.916   9.553  0.7371  1.1744 -1.7862
   46CHL1   C14 5826   1.162   3.069   9.485 -0.2059  0.1525  0.5546
   46CHL1   H14 5827   1.091   3.137   9.537 -2.1465 -0.9033 -0.5540
   46CHL1   C15 5828   1.080   2.991   9.382 -0.2029 -0.7126  0.2611
   46CHL1  H15A 5829   1.132   2.902   9.342  0.3742 -0.9138  1.4075
   46CHL1  H15B 5830   0.979   2.959   9.417 -1.2349  1.8646 -0.1353
   46CHL1   C16 5831   1.071   3.083   9.259  0.5483  0.2508  0.1983
   46CHL1  H16A 5832   1.100   3.038   9.162  0.2687 -1.7920  1.0155
   46CHL1  H16B 5833   0.962   3.105   9.260 -0.1195 -2.7303  1.3967
   46CHL1   C17 5834   1.157   3.210   9.290 -0.4938  0.2526 -0.9856
   46CHL1   H17 5835   1.090   3.288   9.331  2.0142  0.0495  4.3920
   46CHL1   C13 5836   1.251   3.161   9.400 -0.6472  0.4479  0.2614
   46CHL1   C18 5837   1.368   3.078   9.341 -0.5895 -0.4165  0.3568
   46CHL1  H18A 5838   1.458   3.140   9.324  0.6923 -1.6993  2.1580
   46CHL1  H18B 5839   1.399   2.997   9.410  1.1944  1.6703  2.1671
   46CHL1  H18C 5840   1.327   3.029   9.250 -0.2452  1.8836 -1.1122
   46CHL1   C12 5841   1.305   3.267   9.498  0.6345  0.4134 -0.2113
   46CHL1  H12A 5842   1.371   3.338   9.445 -0.7343  1.3262 -0.7699
   46CHL1  H12B 5843   1.227   3.328   9.550  1.2288  0.0566  1.1562
   46CHL1   C11 5844   1.386   3.197   9.612  0.3487 -0.5606 -0.3286
   46CHL1  H11A 5845   1.476   3.145   9.574  1.6886  1.7218 -0.4573
   46CHL1  H11B 5846   1.415   3.271   9.690  2.1882 -0.2815 -1.2399
   46CHL1    C9 5847   1.306   3.090   9.692 -0.3906  0.1196 -0.2797
   46CHL1    H9 5848   1.221   3.145   9.737  1.1773  3.4175 -1.1081
   46CHL1   C10 5849   1.389   3.020   9.809 -0.3001  0.0040 -0.1160
   46CHL1   C19 5850   1.515   2.956   9.737  1.0404 -0.0302  0.3230
   46CHL1  H19A 5851   1.490   2.925   9.634 -0.0590 -0.4182  0.6941
   46CHL1  H19B 5852   1.602   3.026   9.736  0.0651  1.2481  1.1954
   46CHL1  H19C 5853   1.555   2.867   9.790 -0.0304 -0.6755  0.0718
   46CHL1    C1 5854   1.431   3.118   9.918 -0.2834 -0.8900  0.4058
   46CHL1   H1A 5855   1.497   3.198   9.878 -3.2987  1.1730 -0.8774
   46CHL1   H1B 5856   1.344   3.177   9.957 -0.3029 -0.1883 -0.6536
   46CHL1    C2 5857   1.498   3.050  10.040 -0.8786  0.4869  0.2784
   46CHL1   H2A 5858   1.515   3.127  10.118 -1.3751 -0.9323  1.8691
   46CHL1   H2B 5859   1.597   3.006  10.017 -0.7044  1.4180 -0.8291
   46CHL1   C20 5860   1.202   3.270   9.158 -0.1140 -0.0232  0.8929
   46CHL1   H20 5861   1.263   3.195   9.103 -0.2243  0.4627  0.0884
   46CHL1   C21 5862   1.299   3.397   9.174  0.7711  0.5205 -0.1143
   46CHL1  H21A 5863   1.391   3.346   9.209  1.0730  0.1895 -1.3405
   46CHL1  H21B 5864   1.259   3.464   9.252  0.2877  0.8710 -0.6507
   46CHL1  H21C 5865   1.320   3.452   9.079  0.5211  1.0252  0.1217
   46CHL1   C22 5866   1.083   3.309   9.072 -0.2023  0.6823 -0.0184
   46CHL1  H22A 5867   1.001   3.240   9.102  0.5980 -1.4965 -2.4489
   46CHL1  H22B 5868   1.057   3.416   9.089  0.2089  1.0125 -1.3736
   46CHL1   C23 5869   1.110   3.293   8.917  0.3559  0.3576  0.6480
   46CHL1  H23A 5870   1.198   3.356   8.892 -0.2244  0.7715 -0.4186
   46CHL1  H23B 5871   1.128   3.185   8.901 -1.3662  0.0061  0.8336
   46CHL1   C24 5872   0.987   3.331   8.829 -0.8850 -0.3820 -0.5510
   46CHL1  H24A 5873   0.897   3.290   8.879  1.1522 -0.4385  3.5686
   46CHL1  H24B 5874   0.973   3.441   8.826 -0.0434 -0.2238  0.3575
   46CHL1   C25 5875   0.986   3.275   8.688 -0.2897  0.0124  0.1780
   46CHL1   H25 5876   1.006   3.166   8.693 -0.9129 -0.3858 -3.3539
   46CHL1   C26 5877   0.856   3.300   8.602 -0.1094 -0.1865  0.2015
   46CHL1  H26A 5878   0.768   3.245   8.643  0.2378 -0.9626 -0.0619
   46CHL1  H26B 5879   0.845   3.410   8.604  0.9279  0.3749 -5.8922
   46CHL1  H26C 5880   0.866   3.276   8.494 -0.0240  1.1181 -0.0968
   46CHL1   C27 5881   1.114   3.326   8.620 -0.3158 -0.9376 -0.2227
   46CHL1  H27A 5882   1.121   3.276   8.521 -2.2616 -1.9546  0.1073
   46CHL1  H27B 5883   1.118   3.435   8.600 -1.3865 -0.6705  0.9050
   46CHL1  H27C 5884   1.203   3.305   8.684 -0.2537  0.4671  0.1772
   47CHL1    C3 5885   2.920   5.173   9.904  0.4703 -0.4871 -0.2832
   47CHL1    H3 5886   2.932   5.278   9.868  2.5804 -0.6541 -0.1737
   47CHL1    O3 5887   2.881   5.153  10.041  0.2527  0.5264  0.1443
   47CHL1   H3' 5888   2.955   5.124  10.095 -1.5095 -0.5787  2.1384
   47CHL1    C4 5889   2.805   5.127   9.817  0.6519  0.2715 -0.2060
   47CHL1   H4A 5890   2.780   5.020   9.837  0.8402  0.4429  1.0173
   47CHL1   H4B 5891   2.710   5.179   9.844  1.3535  0.6183  1.7314
   47CHL1    C5 5892   2.840   5.133   9.670  0.3467  0.7599 -0.0414
   47CHL1    C6 5893   2.783   5.210   9.583  0.0945  0.1137  0.0922
   47CHL1    H6 5894   2.694   5.270   9.609  0.4741  0.6034  0.3022
   47CHL1    C7 5895   2.807   5.219   9.437  0.3517 -0.3565  0.1166
   47CHL1   H7A 5896   2.709   5.208   9.386 -1.7008 -1.2661  3.8552
   47CHL1   H7B 5897   2.849   5.318   9.410 -1.1437  0.7719  1.6351
   47CHL1    C8 5898   2.894   5.100   9.391  0.2926  0.3523 -0.2206
   47CHL1    H8 5899   2.830   5.010   9.394  1.4408 -0.4599  1.5007
   47CHL1   C14 5900   2.946   5.128   9.256 -0.5292  0.6734  0.2683
   47CHL1   H14 5901   3.013   5.216   9.273  0.9175 -0.7111  2.3151
   47CHL1   C15 5902   2.850   5.174   9.147 -0.0586  0.1906 -0.3798
   47CHL1  H15A 5903   2.756   5.115   9.149  0.7375 -1.1394 -0.7913
   47CHL1  H15B 5904   2.824   5.282   9.158  1.7074  0.4988  1.3184
   47CHL1   C16 5905   2.929   5.156   9.018 -0.3270 -0.2265  0.3496
   47CHL1  H16A 5906   2.863   5.089   8.960 -0.2809  0.6973 -0.8159
   47CHL1  H16B 5907   2.942   5.243   8.949 -1.1283  0.5067  1.0994
   47CHL1   C17 5908   3.061   5.086   9.054  0.5465  0.5650 -0.1790
   47CHL1   H17 5909   3.128   5.174   9.071 -0.9396  1.7657 -0.3196
   47CHL1   C13 5910   3.041   5.021   9.192  0.3353  0.2467 -0.2712
   47CHL1   C18 5911   2.969   4.885   9.184  0.1684  0.0132 -0.6831
   47CHL1  H18A 5912   2.938   4.842   9.281  1.5485  0.5604  0.0170
   47CHL1  H18B 5913   2.877   4.892   9.122  0.1206 -1.7180 -0.8556
   47CHL1  H18C 5914   3.032   4.803   9.144 -1.5520 -2.0726  0.6777
   47CHL1   C12 5915   3.169   5.012   9.279 -0.1815  0.0686 -0.5439
   47CHL1  H12A 5916   3.223   4.921   9.244  2.1097  1.3935 -0.6262
   47CHL1  H12B 5917   3.227   5.106   9.274 -0.3677  0.1620 -1.0427
   47CHL1   C11 5918   3.120   4.983   9.425  0.3284 -0.3541  0.5141
   47CHL1  H11A 5919   3.089   4.876   9.419  0.1193 -0.2064 -1.6564
   47CHL1  H11B 5920   3.203   4.976   9.500  0.2998  1.3815  0.7476
   47CHL1    C9 5921   3.015   5.079   9.483  0.1724  0.1405  0.2302
   47CHL1    H9 5922   3.066   5.177   9.482 -1.3281  0.9840  1.6228
   47CHL1   C10 5923   2.964   5.052   9.630 -0.0343 -0.1231  0.3933
   47CHL1   C19 5924   2.921   4.901   9.648 -1.3894 -0.3534 -0.6843
   47CHL1  H19A 5925   2.863   4.873   9.558  0.6260  0.2164 -2.2344
   47CHL1  H19B 5926   3.016   4.845   9.632 -0.2784  1.4178 -0.4900
   47CHL1  H19C 5927   2.876   4.876   9.747 -0.3308 -0.2179 -0.1542
   47CHL1    C1 5928   3.074   5.098   9.729 -0.3870  0.1739 -0.0754
   47CHL1   H1A 5929   3.163   5.041   9.693  0.3321  1.3704 -0.2257
   47CHL1   H1B 5930   3.095   5.204   9.703 -2.1344  0.7751  0.7935
   47CHL1    C2 5931   3.043   5.093   9.879 -0.2546 -0.0154 -1.1898
   47CHL1   H2A 5932   3.130   5.125   9.941 -0.0250  0.2666 -1.6516
   47CHL1   H2B 5933   3.034   4.985   9.906  2.2878 -0.4413 -1.7273
   47CHL1   C20 5934   3.116   5.008   8.935 -0.1485  0.1271  0.0200
   47CHL1   H20 5935   3.050   4.922   8.914 -0.5212  0.4814 -0.2866
   47CHL1   C21 5936   3.251   4.959   8.983 -0.4235  0.1741  0.7927
   47CHL1  H21A 5937   3.323   4.925   8.905 -0.3460 -2.6399  1.9778
   47CHL1  H21B 5938   3.243   4.866   9.044  1.7237 -0.0629  0.7942
   47CHL1  H21C 5939   3.320   5.029   9.035  3.2360 -0.9971 -2.0554
   47CHL1   C22 5940   3.120   5.076   8.796 -0.2061 -0.1229 -0.3517
   47CHL1  H22A 5941   3.162   5.006   8.721 -2.2685 -0.9158 -0.8378
   47CHL1  H22B 5942   3.017   5.104   8.765 -1.4728 -2.5251  1.3873
   47CHL1   C23 5943   3.202   5.206   8.801 -0.2186 -0.1468  0.4287
   47CHL1  H23A 5944   3.173   5.277   8.881 -0.7060  2.6353 -2.0407
   47CHL1  H23B 5945   3.309   5.180   8.814  0.2831  2.0867  1.0618
   47CHL1   C24 5946   3.168   5.295   8.681  0.5528 -1.0847  0.9970
   47CHL1  H24A 5947   3.195   5.253   8.582 -0.7028  0.7100 -0.1643
   47CHL1  H24B 5948   3.058   5.308   8.680  0.7092  0.6447  1.6821
   47CHL1   C25 5949   3.246   5.428   8.690 -0.1970  0.1791 -0.0331
   47CHL1   H25 5950   3.217   5.475   8.786  1.9135  1.3986  0.0658
   47CHL1   C26 5951   3.398   5.410   8.698  0.0501  0.2292 -0.2400
   47CHL1  H26A 5952   3.439   5.345   8.778 -0.9146 -1.1236 -0.8119
   47CHL1  H26B 5953   3.439   5.514   8.702 -1.1120  0.6828  0.1226
   47CHL1  H26C 5954   3.430   5.360   8.604  0.9506 -1.7449  1.0436
   47CHL1   C27 5955   3.201   5.523   8.571  0.0023  0.3340 -0.0725
   47CHL1  H27A 5956   3.209   5.473   8.472  1.9009  1.4425 -0.5249
   47CHL1  H27B 5957   3.096   5.553   8.593 -0.3937 -1.9933  1.5927
   47CHL1  H27C 5958   3.260   5.616   8.557 -0.4013  0.3941 -1.6198
   48CHL1    C3 5959   4.086   5.893   9.966 -0.6480 -0.3082  0.0796
   48CHL1    H3 5960   4.134   5.816   9.902  0.6423 -1.0989  1.9264
   48CHL1    O3 5961   4.115   5.868  10.103 -0.2022 -0.5072  0.3760
   48CHL1   H3' 5962   4.098   5.941  10.164 -1.9675 -1.4199  1.0718
   48CHL1    C4 5963   4.140   6.030   9.933 -0.5213 -0.4011  0.0427
   48CHL1   H4A 5964   4.086   6.112   9.985 -0.2048 -1.2007  1.7016
   48CHL1   H4B 5965   4.244   6.030   9.972 -0.2759 -0.5541 -0.5985
   48CHL1    C5 5966   4.125   6.064   9.785 -0.5309  0.4780 -0.4152
   48CHL1    C6 5967   4.220   6.088   9.700  0.2832 -0.0638  0.4722
   48CHL1    H6 5968   4.324   6.086   9.734 -0.0028 -2.2662  1.3306
   48CHL1    C7 5969   4.200   6.109   9.557  0.0987 -0.1799  0.3841
   48CHL1   H7A 5970   4.272   6.186   9.521 -1.7509  1.9499  0.9627
   48CHL1   H7B 5971   4.221   6.019   9.496 -1.3497 -1.2411  1.3984
   48CHL1    C8 5972   4.058   6.147   9.515  0.2437  0.1303  0.2709
   48CHL1    H8 5973   4.037   6.253   9.538 -1.4167 -0.3707  1.2592
   48CHL1   C14 5974   4.039   6.131   9.360 -0.6452 -0.0827  0.3503
   48CHL1   H14 5975   4.049   6.022   9.340  0.0965 -0.4461  2.4300
   48CHL1   C15 5976   4.148   6.196   9.269  0.0800  1.2917 -0.3133
   48CHL1  H15A 5977   4.170   6.300   9.300 -1.2664  1.4185  0.3054
   48CHL1  H15B 5978   4.235   6.129   9.254  0.4358  1.1381  2.0645
   48CHL1   C16 5979   4.080   6.209   9.135  0.5810  0.6423  0.2145
   48CHL1  H16A 5980   4.067   6.314   9.103 -0.9190 -0.1377 -1.9871
   48CHL1  H16B 5981   4.128   6.145   9.058 -1.8685 -2.4523  1.0359
   48CHL1   C17 5982   3.940   6.140   9.155  0.0782 -0.7794 -0.1691
   48CHL1   H17 5983   3.957   6.031   9.142 -2.2808 -1.1944 -0.2405
   48CHL1   C13 5984   3.910   6.162   9.306  0.2998  0.0062  0.0214
   48CHL1   C18 5985   3.879   6.308   9.341  0.1418  0.1897 -0.2095
   48CHL1  H18A 5986   3.775   6.328   9.306  0.2390  1.9585  0.4060
   48CHL1  H18B 5987   3.879   6.333   9.449  0.0550 -1.4235  0.1900
   48CHL1  H18C 5988   3.943   6.378   9.284  2.0556 -3.0177 -2.2999
   48CHL1   C12 5989   3.806   6.079   9.384 -0.1015 -0.2261  0.8176
   48CHL1  H12A 5990   3.702   6.108   9.359 -0.4656 -1.6275  0.6271
   48CHL1  H12B 5991   3.805   5.974   9.348 -2.2348 -0.5583  1.7052
   48CHL1   C11 5992   3.811   6.072   9.537  0.3692 -0.4643 -0.2897
   48CHL1  H11A 5993   3.763   6.167   9.568 -0.2523 -1.1671  0.9706
   48CHL1  H11B 5994   3.734   5.998   9.568  1.6868 -2.2345 -1.0965
   48CHL1    C9 5995   3.953   6.049   9.588  0.2543 -0.4206 -0.3673
   48CHL1    H9 5996   3.986   5.949   9.554 -1.4858 -0.7917 -1.0710
   48CHL1   C10 5997   3.969   6.053   9.743 -0.1386 -0.0850  0.3940
   48CHL1   C19 5998   3.888   6.176   9.802 -0.4265  0.1257  0.7052
   48CHL1  H19A 5999   3.914   6.202   9.907  1.5499  0.5403  0.1519
   48CHL1  H19B 6000   3.908   6.266   9.740 -0.6981  0.1768  0.6901
   48CHL1  H19C 6001   3.780   6.152   9.811 -0.0185 -1.8652  0.8007
   48CHL1    C1 6002   3.909   5.917   9.800  0.8492 -0.7338  0.6193
   48CHL1   H1A 6003   3.799   5.914   9.787  1.0395 -0.5478 -1.2024
   48CHL1   H1B 6004   3.941   5.837   9.729  0.5427 -0.4052  0.1109
   48CHL1    C2 6005   3.938   5.881   9.944 -0.1964  0.7519 -0.2679
   48CHL1   H2A 6006   3.905   5.780   9.977  0.6360  1.3314  2.5212
   48CHL1   H2B 6007   3.898   5.960  10.011 -2.1111 -0.0677 -0.3644
   48CHL1   C20 6008   3.833   6.182   9.055  0.1187 -0.1206  0.1271
   48CHL1   H20 6009   3.815   6.290   9.075 -2.3841 -0.0933 -1.7929
   48CHL1   C21 6010   3.698   6.112   9.087 -0.1833 -0.6089  0.3243
   48CHL1  H21A 6011   3.718   6.004   9.102  0.5721 -0.4820  0.2710
   48CHL1  H21B 6012   3.624   6.132   9.006  0.1139  1.5806  0.5236
   48CHL1  H21C 6013   3.653   6.153   9.180  0.9308 -1.2859  1.1802
   48CHL1   C22 6014   3.874   6.159   8.913  0.1737  0.4696  0.2940
   48CHL1  H22A 6015   3.791   6.193   8.848 -0.8378 -1.1130  0.7172
   48CHL1  H22B 6016   3.963   6.223   8.893  0.3308 -0.4633 -2.4926
   48CHL1   C23 6017   3.912   6.015   8.879 -0.2575 -0.4883 -0.0719
   48CHL1  H23A 6018   3.992   5.976   8.946 -0.1850  0.2094  0.2519
   48CHL1  H23B 6019   3.822   5.949   8.878 -0.3181 -0.5668 -3.9185
   48CHL1   C24 6020   3.962   6.015   8.726 -0.8057  0.5402 -0.2131
   48CHL1  H24A 6021   3.893   6.049   8.646 -0.5270 -0.1353 -0.7467
   48CHL1  H24B 6022   4.045   6.088   8.719 -0.5451  0.2534 -0.1432
   48CHL1   C25 6023   4.021   5.884   8.679  0.0906 -0.5458  0.2719
   48CHL1   H25 6024   3.946   5.810   8.712  0.9556 -0.9526  1.3635
   48CHL1   C26 6025   4.042   5.867   8.527 -1.0540 -0.4866 -0.7870
   48CHL1  H26A 6026   4.051   5.760   8.500  2.5509 -0.1152 -1.5878
   48CHL1  H26B 6027   3.960   5.920   8.475 -0.1434  0.5629 -1.2060
   48CHL1  H26C 6028   4.136   5.916   8.491 -1.2402 -1.4620 -2.7533
   48CHL1   C27 6029   4.157   5.853   8.745  0.7342  0.5456 -0.2415
   48CHL1  H27A 6030   4.151   5.823   8.852 -2.4231  0.8152 -0.2449
   48CHL1  H27B 6031   4.210   5.764   8.704 -0.1538 -1.4415  2.5313
   48CHL1  H27C 6032   4.221   5.943   8.737 -0.2998  1.1545 -2.3222
   49CHL1    C3 6033   0.492   0.245  10.005  0.5979  0.4969  0.0143
   49CHL1    H3 6034   0.424   0.166   9.965 -1.6068  2.2812  0.0683
   49CHL1    O3 6035   0.526   0.222  10.142 -0.0397 -0.4780  0.0304
   49CHL1   H3' 6036   0.601   0.280  10.159 -0.3007  0.3764 -1.5125
   49CHL1    C4 6037   0.627   0.245   9.928 -0.1820 -0.1865 -0.2467
   49CHL1   H4A 6038   0.688   0.330   9.964 -0.5934  0.3316 -0.7320
   49CHL1   H4B 6039   0.682   0.152   9.954  0.4430  0.4620  0.8224
   49CHL1    C5 6040   0.611   0.264   9.780  0.5700  0.8043 -0.7235
   49CHL1    C6 6041   0.660   0.171   9.699 -0.0793 -0.6506 -0.0174
   49CHL1    H6 6042   0.726   0.092   9.737  0.6017 -0.8429 -1.5201
   49CHL1    C7 6043   0.648   0.187   9.548 -0.3701 -0.4673 -0.9351
   49CHL1   H7A 6044   0.750   0.177   9.505 -0.7031 -0.5005 -1.7250
   49CHL1   H7B 6045   0.579   0.108   9.513 -1.7609  0.4351 -0.2830
   49CHL1    C8 6046   0.586   0.320   9.493 -0.3312 -0.3246 -0.2892
   49CHL1    H8 6047   0.674   0.387   9.481 -0.0904 -0.7490 -1.0062
   49CHL1   C14 6048   0.527   0.297   9.351 -0.1050 -0.0786 -0.5847
   49CHL1   H14 6049   0.434   0.236   9.359  1.0076 -1.8760 -1.0035
   49CHL1   C15 6050   0.605   0.237   9.238  0.2417  0.0420  0.6969
   49CHL1  H15A 6051   0.707   0.278   9.226 -0.4000  1.0558 -1.7791
   49CHL1  H15B 6052   0.623   0.127   9.245  1.4493  0.1194 -0.8530
   49CHL1   C16 6053   0.522   0.276   9.117  0.5478 -0.3343  0.5126
   49CHL1  H16A 6054   0.605   0.309   9.050 -0.0351  0.9494  0.3901
   49CHL1  H16B 6055   0.477   0.182   9.080  0.9729 -1.3685  2.4982
   49CHL1   C17 6056   0.419   0.378   9.148 -0.5199  0.1633 -0.3834
   49CHL1   H17 6057   0.322   0.330   9.174  0.1899  0.1842  2.7222
   49CHL1   C13 6058   0.467   0.427   9.290  0.0466 -0.5494  0.4323
   49CHL1   C18 6059   0.572   0.538   9.284  0.6729  0.2985  0.3098
   49CHL1  H18A 6060   0.638   0.548   9.373 -0.6896  1.3303  1.2472
   49CHL1  H18B 6061   0.632   0.536   9.190 -0.0794 -2.3158 -0.1926
   49CHL1  H18C 6062   0.518   0.635   9.292  0.3829  0.1563  0.1022
   49CHL1   C12 6063   0.360   0.472   9.387 -0.6556  0.2938 -0.7305
   49CHL1  H12A 6064   0.312   0.568   9.357  0.4910  1.1312  0.0132
   49CHL1  H12B 6065   0.285   0.391   9.401  1.0553 -1.1985  0.2471
   49CHL1   C11 6066   0.410   0.495   9.532  0.0196  0.2159  0.0514
   49CHL1  H11A 6067   0.473   0.586   9.533  0.5776 -0.1719  0.6655
   49CHL1  H11B 6068   0.317   0.513   9.590  0.7265  0.3247  1.1796
   49CHL1    C9 6069   0.484   0.374   9.589  0.3210  0.2031 -0.0209
   49CHL1    H9 6070   0.408   0.293   9.602 -1.6016  2.2346  2.4363
   49CHL1   C10 6071   0.523   0.388   9.736 -0.2498 -0.6221 -0.5006
   49CHL1   C19 6072   0.611   0.513   9.747 -0.3070 -0.3753  0.5044
   49CHL1  H19A 6073   0.706   0.502   9.692  1.2261  0.5117  2.8237
   49CHL1  H19B 6074   0.550   0.601   9.716 -3.2183 -3.0988 -2.1895
   49CHL1  H19C 6075   0.632   0.522   9.856 -0.3692 -2.5772  0.7360
   49CHL1    C1 6076   0.398   0.395   9.831  0.5436  0.0152  0.4638
   49CHL1   H1A 6077   0.335   0.483   9.806  1.0838  0.0538 -0.8448
   49CHL1   H1B 6078   0.332   0.311   9.801 -0.8422  0.2437  2.7300
   49CHL1    C2 6079   0.416   0.380   9.983 -0.4227 -0.1251  0.4857
   49CHL1   H2A 6080   0.316   0.385  10.031 -1.1756 -0.6843 -0.9542
   49CHL1   H2B 6081   0.475   0.462  10.029  0.5490 -0.4269 -0.2003
   49CHL1   C20 6082   0.402   0.488   9.039  0.1112  0.2459  0.0414
   49CHL1   H20 6083   0.490   0.552   9.013 -0.6255  1.1327 -0.3365
   49CHL1   C21 6084   0.304   0.588   9.090  0.8479 -0.0711 -0.1301
   49CHL1  H21A 6085   0.222   0.535   9.144 -0.4960  0.4762 -1.5605
   49CHL1  H21B 6086   0.267   0.645   9.002  0.2583 -0.6470 -0.2743
   49CHL1  H21C 6087   0.359   0.653   9.160  0.2463 -0.7853  1.0500
   49CHL1   C22 6088   0.351   0.417   8.905 -0.0706 -0.5301  0.3177
   49CHL1  H22A 6089   0.429   0.343   8.876 -1.5669 -2.5857  1.2111
   49CHL1  H22B 6090   0.260   0.355   8.921  0.4749 -0.6701  3.5277
   49CHL1   C23 6091   0.329   0.515   8.789  0.4249  0.6116 -0.1615
   49CHL1  H23A 6092   0.239   0.579   8.801  0.6153  1.2023 -1.6577
   49CHL1  H23B 6093   0.410   0.591   8.792 -0.2369  1.3394 -0.3496
   49CHL1   C24 6094   0.328   0.443   8.654  0.2705  0.3610  0.5699
   49CHL1  H24A 6095   0.248   0.368   8.637 -0.5891  1.1970  0.8959
   49CHL1  H24B 6096   0.311   0.521   8.577 -1.4212  1.6403  2.1662
   49CHL1   C25 6097   0.461   0.364   8.621 -0.8048  0.4971 -0.3684
   49CHL1   H25 6098   0.467   0.279   8.692  1.5927  0.1504 -0.9042
   49CHL1   C26 6099   0.443   0.315   8.475 -0.1321  0.2382  0.0518
   49CHL1  H26A 6100   0.467   0.393   8.400 -2.5527  1.0140 -0.0202
   49CHL1  H26B 6101   0.501   0.221   8.460 -0.1791  0.1679  0.3096
   49CHL1  H26C 6102   0.339   0.276   8.461  0.1362 -1.2909  1.8923
   49CHL1   C27 6103   0.586   0.446   8.641 -0.0937  0.1004 -0.4220
   49CHL1  H27A 6104   0.570   0.546   8.595 -1.4138  0.2345  0.2651
   49CHL1  H27B 6105   0.615   0.462   8.746  1.6348 -0.4583 -0.7870
   49CHL1  H27C 6106   0.675   0.400   8.593 -0.8345 -2.4024  0.4430
   50CHL1    C3 6107   4.560   3.257  10.044 -0.2553 -0.0650  0.7181
   50CHL1    H3 6108   4.457   3.245  10.004 -0.4286  0.8253  0.8732
   50CHL1    O3 6109   4.543   3.204  10.166 -0.0659 -0.2826 -0.5346
   50CHL1   H3' 6110   4.563   3.281  10.219 -1.0600  0.3229 -1.0188
   50CHL1    C4 6111   4.658   3.165   9.976 -0.0742 -0.0493  0.8172
   50CHL1   H4A 6112   4.747   3.147  10.039  1.1751 -0.4267 -0.9690
   50CHL1   H4B 6113   4.608   3.066   9.966  2.5937 -1.4295  0.1768
   50CHL1    C5 6114   4.684   3.221   9.836 -0.5561  0.8829 -0.4730
   50CHL1    C6 6115   4.681   3.143   9.729  0.9149 -0.1179  0.0483
   50CHL1    H6 6116   4.654   3.037   9.737  1.9468 -0.3291  0.9803
   50CHL1    C7 6117   4.720   3.185   9.592  0.6254 -0.0146 -0.0944
   50CHL1   H7A 6118   4.803   3.122   9.554  1.0372  0.2554  0.3536
   50CHL1   H7B 6119   4.629   3.173   9.529 -1.0814 -0.5051  2.3150
   50CHL1    C8 6120   4.774   3.327   9.584  0.5596 -0.1057 -0.2992
   50CHL1    H8 6121   4.878   3.308   9.616  0.6512 -0.1329 -0.6084
   50CHL1   C14 6122   4.758   3.385   9.446 -0.3073  0.5577  0.3719
   50CHL1   H14 6123   4.648   3.401   9.435 -0.6688 -1.7833  0.0124
   50CHL1   C15 6124   4.807   3.297   9.334  0.2412  0.6313  0.0700
   50CHL1  H15A 6125   4.907   3.251   9.346  1.4381  2.7037 -1.3828
   50CHL1  H15B 6126   4.742   3.211   9.305  1.2107 -0.0109 -0.2416
   50CHL1   C16 6127   4.832   3.388   9.213 -0.1554 -0.6868 -0.3921
   50CHL1  H16A 6128   4.939   3.388   9.182  0.4344 -0.8772  1.5144
   50CHL1  H16B 6129   4.763   3.370   9.128  0.9412 -0.6574 -1.3191
   50CHL1   C17 6130   4.807   3.532   9.272  0.2106 -0.4301 -0.0485
   50CHL1   H17 6131   4.698   3.544   9.249  0.8104  1.7321 -2.2850
   50CHL1   C13 6132   4.825   3.523   9.431  1.0908  0.1951  0.2330
   50CHL1   C18 6133   4.973   3.520   9.466  0.3485  0.9833  0.5905
   50CHL1  H18A 6134   4.989   3.497   9.573  0.2540 -0.1587  0.3781
   50CHL1  H18B 6135   5.011   3.439   9.400 -0.9738  1.5345 -0.9045
   50CHL1  H18C 6136   5.026   3.615   9.443 -0.6877  1.6079  0.7450
   50CHL1   C12 6137   4.746   3.623   9.515  0.7171  0.6103 -0.6151
   50CHL1  H12A 6138   4.798   3.721   9.519 -0.8366  1.7268 -3.8401
   50CHL1  H12B 6139   4.649   3.644   9.465  0.5264 -1.7580 -1.3291
   50CHL1   C11 6140   4.743   3.566   9.660  0.0178 -0.1574 -0.6587
   50CHL1  H11A 6141   4.849   3.563   9.695  0.4483  3.5998 -1.2101
   50CHL1  H11B 6142   4.682   3.630   9.727 -0.6035 -1.0211 -0.3797
   50CHL1    C9 6143   4.700   3.419   9.686  0.0436 -0.0140 -0.6244
   50CHL1    H9 6144   4.596   3.405   9.649 -0.0354 -0.9815 -0.0659
   50CHL1   C10 6145   4.718   3.371   9.829 -0.0196 -0.0333  0.0083
   50CHL1   C19 6146   4.860   3.396   9.881  0.1848  0.8621 -0.6965
   50CHL1  H19A 6147   4.890   3.502   9.869  0.5786  0.4966 -3.7465
   50CHL1  H19B 6148   4.868   3.362   9.986 -1.0912  1.0055 -0.5412
   50CHL1  H19C 6149   4.932   3.339   9.817  2.0379  2.5621 -0.2287
   50CHL1    C1 6150   4.615   3.451   9.908  0.0193  0.2424 -0.0725
   50CHL1   H1A 6151   4.650   3.557   9.915  3.1280 -0.6410 -0.4905
   50CHL1   H1B 6152   4.516   3.467   9.861 -0.1136  2.7276  0.9091
   50CHL1    C2 6153   4.595   3.402  10.045  1.3920  0.7167 -0.3489
   50CHL1   H2A 6154   4.508   3.452  10.093  1.0467 -0.9208  0.8341
   50CHL1   H2B 6155   4.688   3.418  10.104  0.5596 -1.1543  1.6084
   50CHL1   C20 6156   4.883   3.644   9.194  0.1191 -0.8624 -1.0251
   50CHL1   H20 6157   4.988   3.658   9.227  0.1479  1.1792 -1.8808
   50CHL1   C21 6158   4.833   3.786   9.222 -0.4249  0.3662 -0.2581
   50CHL1  H21A 6159   4.892   3.852   9.155 -2.5577  1.9001 -0.7029
   50CHL1  H21B 6160   4.851   3.828   9.323 -0.2844  0.4145 -0.3022
   50CHL1  H21C 6161   4.724   3.790   9.204 -0.9631 -0.0692  2.4674
   50CHL1   C22 6162   4.892   3.621   9.040  0.1274  0.1132  0.1710
   50CHL1  H22A 6163   4.952   3.704   8.997 -0.0138  0.1984  0.1378
   50CHL1  H22B 6164   4.947   3.529   9.010 -0.6173  0.0573 -1.1154
   50CHL1   C23 6165   4.762   3.613   8.961 -0.0821 -0.0884  0.4573
   50CHL1  H23A 6166   4.732   3.506   8.963  0.7318 -0.3514 -0.3496
   50CHL1  H23B 6167   4.686   3.673   9.016  0.5808  0.0119  1.2713
   50CHL1   C24 6168   4.786   3.639   8.804  0.6923  0.2343 -0.4831
   50CHL1  H24A 6169   4.842   3.735   8.802  0.1475  0.6203  1.1509
   50CHL1  H24B 6170   4.844   3.553   8.764  1.7379 -0.3636  2.1163
   50CHL1   C25 6171   4.658   3.662   8.716  0.0616 -0.1186 -0.8913
   50CHL1   H25 6172   4.596   3.741   8.765 -0.1174  0.6350 -2.2652
   50CHL1   C26 6173   4.694   3.722   8.581  0.4441  0.6023 -0.0111
   50CHL1  H26A 6174   4.742   3.823   8.586  2.0043  0.0120 -1.8538
   50CHL1  H26B 6175   4.772   3.663   8.528  0.6171  0.1224  0.7718
   50CHL1  H26C 6176   4.602   3.733   8.520 -0.0993 -0.2744  0.6300
   50CHL1   C27 6177   4.572   3.536   8.705 -1.0444 -0.7385 -0.5906
   50CHL1  H27A 6178   4.628   3.459   8.647 -0.6597 -0.0564 -1.1320
   50CHL1  H27B 6179   4.556   3.483   8.802 -3.1074  1.0085  0.0899
   50CHL1  H27C 6180   4.472   3.547   8.658 -1.2806 -1.0073 -0.1587
   51CHL1    C3 6181   6.183   4.960  10.299  0.6574  0.0214  0.2753
   51CHL1    H3 6182   6.229   4.859  10.295 -0.9627 -0.7556  0.4155
   51CHL1    O3 6183   6.162   4.985  10.437 -0.3205 -0.5365 -0.3200
   51CHL1   H3' 6184   6.157   5.080  10.446  1.3600 -0.5342  1.6100
   51CHL1    C4 6185   6.287   5.058  10.244 -0.6370 -0.1792  0.2481
   51CHL1   H4A 6186   6.248   5.160  10.265  0.5794  0.5180 -0.7222
   51CHL1   H4B 6187   6.379   5.047  10.305  0.3027  2.5576 -0.5343
   51CHL1    C5 6188   6.312   5.043  10.092  0.5314 -0.5475  0.9505
   51CHL1    C6 6189   6.437   5.030  10.039 -0.7537  0.6050 -0.3547
   51CHL1    H6 6190   6.519   5.032  10.113 -0.1130 -0.1818 -1.0190
   51CHL1    C7 6191   6.465   5.008   9.894  0.5176 -0.0825 -0.1679
   51CHL1   H7A 6192   6.548   5.067   9.851  1.8064  0.3339  2.7213
   51CHL1   H7B 6193   6.485   4.901   9.872 -1.8267 -0.7172  0.5285
   51CHL1    C8 6194   6.340   5.036   9.809 -0.2151 -0.3416 -0.0173
   51CHL1    H8 6195   6.316   5.144   9.804 -0.8864 -0.5521 -1.8754
   51CHL1   C14 6196   6.355   4.982   9.670 -0.2219 -0.1429 -0.0882
   51CHL1   H14 6197   6.372   4.873   9.675 -0.9847 -0.2195  1.1526
   51CHL1   C15 6198   6.485   5.025   9.593  0.5041 -0.2886  0.2864
   51CHL1  H15A 6199   6.507   5.132   9.613 -1.2321 -0.0822  1.3721
   51CHL1  H15B 6200   6.575   4.966   9.621  0.7811  0.2226  0.4862
   51CHL1   C16 6201   6.451   5.010   9.445 -0.3980  0.3122  0.5282
   51CHL1  H16A 6202   6.470   5.111   9.404  1.0588 -0.1469  0.0207
   51CHL1  H16B 6203   6.517   4.939   9.390 -1.5775  1.5774 -2.7385
   51CHL1   C17 6204   6.306   4.967   9.437  0.1985  0.0466 -0.3699
   51CHL1   H17 6205   6.312   4.856   9.437  1.0160  0.0830 -0.5913
   51CHL1   C13 6206   6.239   5.005   9.577 -0.3504 -0.6256 -0.2392
   51CHL1   C18 6207   6.208   5.163   9.573 -0.2644 -0.1339 -0.3899
   51CHL1  H18A 6208   6.171   5.194   9.472  0.3491  0.3119 -0.4842
   51CHL1  H18B 6209   6.144   5.196   9.658 -0.5747  0.2616 -0.7697
   51CHL1  H18C 6210   6.302   5.220   9.587  1.3455 -3.1255  2.2045
   51CHL1   C12 6211   6.118   4.936   9.628  0.6992  0.3084 -0.2095
   51CHL1  H12A 6212   6.037   4.974   9.561  1.1296  1.8190  0.0889
   51CHL1  H12B 6213   6.125   4.826   9.613  1.1456  0.1903  0.8321
   51CHL1   C11 6214   6.092   4.971   9.774 -0.2384 -0.1460  0.8646
   51CHL1  H11A 6215   6.052   5.075   9.768  0.1075 -0.0718 -0.5036
   51CHL1  H11B 6216   6.010   4.911   9.818  0.2860 -1.8432 -0.3862
   51CHL1    C9 6217   6.212   4.973   9.868 -0.5540  0.1645 -0.1078
   51CHL1    H9 6218   6.236   4.865   9.880 -0.3257  0.1040 -1.0149
   51CHL1   C10 6219   6.185   5.041  10.006  0.4933 -0.0855 -0.6776
   51CHL1   C19 6220   6.139   5.189   9.981  0.1348 -0.5348  0.2667
   51CHL1  H19A 6221   6.058   5.201   9.905  0.3372 -2.8019 -0.3858
   51CHL1  H19B 6222   6.089   5.227  10.073 -0.2579  0.3494 -0.3003
   51CHL1  H19C 6223   6.227   5.245   9.943  0.3689 -0.6456  0.6376
   51CHL1    C1 6224   6.070   4.961  10.074  0.5517  0.3583 -0.6770
   51CHL1   H1A 6225   5.980   4.976  10.011  0.8066  3.2256 -0.5149
   51CHL1   H1B 6226   6.100   4.854  10.069 -0.5856 -0.0807  1.0436
   51CHL1    C2 6227   6.047   4.975  10.222 -0.3612 -0.2069 -0.2348
   51CHL1   H2A 6228   5.978   4.900  10.267 -0.5572  0.0284 -0.1395
   51CHL1   H2B 6229   6.007   5.075  10.250 -0.6738 -0.4295  0.1213
   51CHL1   C20 6230   6.246   5.010   9.302  0.2254  0.1580  0.3490
   51CHL1   H20 6231   6.236   5.119   9.287 -2.1650 -0.0693 -0.1236
   51CHL1   C21 6232   6.103   4.945   9.286  0.2382  1.0397 -0.0214
   51CHL1  H21A 6233   6.077   4.926   9.180  0.5207 -0.5361  0.1640
   51CHL1  H21B 6234   6.023   5.001   9.339 -2.1580 -3.2423  1.4096
   51CHL1  H21C 6235   6.096   4.851   9.344 -1.1045  2.1748  1.7313
   51CHL1   C22 6236   6.339   4.962   9.185 -0.0078  0.1685 -0.2285
   51CHL1  H22A 6237   6.408   4.883   9.221 -0.8684 -0.9121 -0.9066
   51CHL1  H22B 6238   6.288   4.920   9.096  0.7071 -2.8232  0.6643
   51CHL1   C23 6239   6.407   5.086   9.122 -0.7626  0.1796  0.5819
   51CHL1  H23A 6240   6.330   5.157   9.084 -0.1852  1.3680  1.5585
   51CHL1  H23B 6241   6.472   5.138   9.196  0.5283 -0.7504  0.1496
   51CHL1   C24 6242   6.508   5.037   9.011  0.0958  0.2258  0.1333
   51CHL1  H24A 6243   6.448   4.968   8.948  0.6850  0.2444 -0.4663
   51CHL1  H24B 6244   6.539   5.123   8.947 -1.1811  0.7503  0.2023
   51CHL1   C25 6245   6.639   4.961   9.051 -0.0815 -0.3373  0.4224
   51CHL1   H25 6246   6.618   4.875   9.118 -1.6390 -1.1497 -1.0288
   51CHL1   C26 6247   6.702   4.902   8.922 -0.0675  0.4323 -0.1155
   51CHL1  H26A 6248   6.772   4.824   8.961  1.2066  2.1705  1.2336
   51CHL1  H26B 6249   6.628   4.859   8.851  0.3880 -2.0425  0.7948
   51CHL1  H26C 6250   6.763   4.980   8.872  1.8577 -2.2074 -2.2763
   51CHL1   C27 6251   6.726   5.065   9.124 -0.5066  0.8757 -0.6567
   51CHL1  H27A 6252   6.687   5.099   9.223  1.6838  0.2457  0.5057
   51CHL1  H27B 6253   6.823   5.013   9.141 -0.0502  1.5171 -1.2412
   51CHL1  H27C 6254   6.750   5.154   9.063 -0.2188 -0.0047 -1.8518
   52CHL1    C3 6255   2.344   5.199   9.935  0.0329  0.1528  1.0370
   52CHL1    H3 6256   2.455   5.212   9.934  0.1162 -0.5376  0.9520
   52CHL1    O3 6257   2.300   5.200  10.066  0.4018 -0.0294  0.1624
   52CHL1   H3' 6258   2.299   5.294  10.083 -0.1375 -0.1285  0.7041
   52CHL1    C4 6259   2.280   5.320   9.867 -0.1195  0.1431  0.2818
   52CHL1   H4A 6260   2.171   5.299   9.875  0.1632 -1.5542  0.1856
   52CHL1   H4B 6261   2.305   5.414   9.920 -0.1865  0.8030 -0.8305
   52CHL1    C5 6262   2.328   5.329   9.724  0.0929  0.8717 -0.3782
   52CHL1    C6 6263   2.396   5.435   9.680  0.1837  0.1264  0.2435
   52CHL1    H6 6264   2.421   5.521   9.742  1.3531  0.7915 -1.0994
   52CHL1    C7 6265   2.442   5.452   9.542  0.0547 -0.5157  0.5363
   52CHL1   H7A 6266   2.422   5.555   9.506 -0.2688 -1.6644 -2.9275
   52CHL1   H7B 6267   2.553   5.452   9.546  0.1225  0.0130 -0.7840
   52CHL1    C8 6268   2.369   5.363   9.438 -0.0160  0.7319 -0.0439
   52CHL1    H8 6269   2.266   5.401   9.426  0.7691  2.7121 -1.1327
   52CHL1   C14 6270   2.444   5.364   9.313 -0.0949  0.2069  0.0989
   52CHL1   H14 6271   2.551   5.337   9.321 -0.3077 -2.4535 -3.5054
   52CHL1   C15 6272   2.469   5.497   9.250 -0.0171  0.2652  0.1450
   52CHL1  H15A 6273   2.385   5.568   9.265 -0.4651  0.2516 -1.9465
   52CHL1  H15B 6274   2.561   5.542   9.295 -0.0670  0.3012  0.2110
   52CHL1   C16 6275   2.499   5.457   9.098 -0.6376 -0.0157 -0.3823
   52CHL1  H16A 6276   2.445   5.521   9.025  2.7716  3.7217 -0.0050
   52CHL1  H16B 6277   2.607   5.469   9.075 -0.3059 -0.7007  0.7333
   52CHL1   C17 6278   2.469   5.310   9.081  0.1224  0.5518  0.0901
   52CHL1   H17 6279   2.562   5.251   9.101  0.0571 -0.9856 -3.4211
   52CHL1   C13 6280   2.375   5.280   9.198 -0.4632 -0.2729 -0.5887
   52CHL1   C18 6281   2.230   5.335   9.172  0.3530 -1.3073  0.0043
   52CHL1  H18A 6282   2.228   5.442   9.143  0.1318 -1.6558 -1.3587
   52CHL1  H18B 6283   2.174   5.291   9.086 -2.4410  3.7521 -1.1851
   52CHL1  H18C 6284   2.162   5.328   9.259  0.4279 -3.5236 -0.0507
   52CHL1   C12 6285   2.388   5.135   9.253 -0.9303  0.9030 -0.3338
   52CHL1  H12A 6286   2.354   5.055   9.183  0.7530 -1.2302  1.1605
   52CHL1  H12B 6287   2.497   5.114   9.254 -1.0994 -0.4301 -2.5153
   52CHL1   C11 6288   2.320   5.113   9.386  1.2429 -0.0987 -0.2897
   52CHL1  H11A 6289   2.210   5.116   9.370  1.2270 -0.6892 -0.3373
   52CHL1  H11B 6290   2.335   5.009   9.423 -1.0271 -0.2388  0.4392
   52CHL1    C9 6291   2.365   5.217   9.495 -0.2886  0.5779  0.3527
   52CHL1    H9 6292   2.473   5.190   9.505 -0.5698 -0.1583  1.6190
   52CHL1   C10 6293   2.299   5.203   9.639 -0.7811 -0.0716  0.0088
   52CHL1   C19 6294   2.147   5.187   9.622  0.0986 -0.0893  0.0499
   52CHL1  H19A 6295   2.097   5.279   9.584  1.6380 -0.0668 -2.0734
   52CHL1  H19B 6296   2.128   5.091   9.569 -0.0640 -1.4406  2.4125
   52CHL1  H19C 6297   2.095   5.159   9.716 -1.7938  0.5798 -0.7294
   52CHL1    C1 6298   2.355   5.077   9.716  0.4264  0.5440  0.1861
   52CHL1   H1A 6299   2.305   4.994   9.661 -0.9447  0.7852  1.0382
   52CHL1   H1B 6300   2.466   5.084   9.714  0.3501  2.4294  0.7485
   52CHL1    C2 6301   2.304   5.067   9.858  0.5993 -0.3820 -0.1193
   52CHL1   H2A 6302   2.354   4.986   9.915  1.8951  1.4671  1.5389
   52CHL1   H2B 6303   2.195   5.048   9.866 -0.0029  1.8445 -1.8738
   52CHL1   C20 6304   2.442   5.254   8.946  0.7860 -0.4486 -0.1991
   52CHL1   H20 6305   2.390   5.156   8.958  0.1772 -0.2919 -1.3818
   52CHL1   C21 6306   2.579   5.231   8.873  0.5213 -0.2317  0.5594
   52CHL1  H21A 6307   2.641   5.323   8.875  0.0826  0.0982 -0.6118
   52CHL1  H21B 6308   2.567   5.190   8.771  1.1786 -0.9871  0.7740
   52CHL1  H21C 6309   2.648   5.165   8.929  1.4457 -0.7212 -1.1048
   52CHL1   C22 6310   2.350   5.341   8.856  0.8706 -1.1010 -0.7041
   52CHL1  H22A 6311   2.283   5.405   8.917  0.2023 -1.8992 -0.5820
   52CHL1  H22B 6312   2.416   5.411   8.801  0.0535 -0.0700 -0.4172
   52CHL1   C23 6313   2.266   5.262   8.756  0.5622  0.2567 -0.1888
   52CHL1  H23A 6314   2.328   5.196   8.693  0.7089  0.7603 -0.5746
   52CHL1  H23B 6315   2.206   5.188   8.813 -0.4174 -1.6672 -3.4567
   52CHL1   C24 6316   2.192   5.363   8.664  0.5260  0.5500  0.2751
   52CHL1  H24A 6317   2.138   5.444   8.718 -2.1446 -0.4236 -0.7427
   52CHL1  H24B 6318   2.269   5.418   8.606  1.3848 -0.1978  0.6756
   52CHL1   C25 6319   2.100   5.294   8.553 -0.6701 -0.0327 -0.1490
   52CHL1   H25 6320   2.170   5.228   8.497  0.8996 -0.2919  2.0078
   52CHL1   C26 6321   1.994   5.208   8.620 -0.9015  0.3400 -1.2721
   52CHL1  H26A 6322   1.911   5.188   8.549 -1.0724  1.2673 -1.3508
   52CHL1  H26B 6323   2.028   5.106   8.646 -1.6323 -0.0094 -1.6559
   52CHL1  H26C 6324   1.951   5.257   8.710  0.6874 -2.1494  0.9677
   52CHL1   C27 6325   2.049   5.403   8.461 -0.5343  0.4516  0.4161
   52CHL1  H27A 6326   2.007   5.349   8.373  1.6100 -3.4401  1.5488
   52CHL1  H27B 6327   1.973   5.472   8.504 -0.1765  0.7793  0.5329
   52CHL1  H27C 6328   2.122   5.473   8.415 -2.0097  1.7983  0.0291
   53CHL1    C3 6329   3.605   5.086   9.818 -0.1924  0.0168  0.4449
   53CHL1    H3 6330   3.568   4.982   9.806  0.3893 -0.0579 -0.9191
   53CHL1    O3 6331   3.601   5.129   9.952  0.2571  0.7436 -0.0083
   53CHL1   H3' 6332   3.644   5.057   9.998 -0.1323 -0.2609 -1.1496
   53CHL1    C4 6333   3.748   5.104   9.760  0.0203 -0.0225 -0.3060
   53CHL1   H4A 6334   3.788   5.206   9.780  0.0546 -0.4483  2.1694
   53CHL1   H4B 6335   3.821   5.050   9.825 -0.7706  0.5250  1.0663
   53CHL1    C5 6336   3.753   5.048   9.619  0.5070 -0.2598  0.2604
   53CHL1    C6 6337   3.833   4.951   9.584 -0.5261  0.1726 -0.7886
   53CHL1    H6 6338   3.886   4.902   9.666 -1.1514  1.1410  0.2198
   53CHL1    C7 6339   3.854   4.904   9.442 -0.3384  0.0061 -0.0822
   53CHL1   H7A 6340   3.963   4.895   9.420 -0.1565 -0.1724  0.8643
   53CHL1   H7B 6341   3.808   4.804   9.428 -1.1563  0.3631  0.0121
   53CHL1    C8 6342   3.784   4.999   9.337 -0.4600  0.0563  0.8635
   53CHL1    H8 6343   3.853   5.086   9.341 -2.0698  1.5609 -1.7385
   53CHL1   C14 6344   3.782   4.935   9.198  0.1229 -0.7023 -0.2669
   53CHL1   H14 6345   3.720   4.843   9.200 -1.0003  0.0117 -0.9958
   53CHL1   C15 6346   3.917   4.873   9.141  0.0721 -0.7118  0.2799
   53CHL1  H15A 6347   3.999   4.946   9.162  0.6170 -1.9186  2.7399
   53CHL1  H15B 6348   3.949   4.786   9.201  1.2672  0.4559  1.4064
   53CHL1   C16 6349   3.883   4.857   8.991  0.4901 -0.4370  0.6593
   53CHL1  H16A 6350   3.959   4.914   8.933 -0.0465  2.3684  2.4954
   53CHL1  H16B 6351   3.884   4.751   8.960 -1.9123 -0.7399  1.4435
   53CHL1   C17 6352   3.740   4.923   8.970 -0.0088  0.6103  0.0213
   53CHL1   H17 6353   3.664   4.844   8.986  2.8879 -2.6171 -0.8312
   53CHL1   C13 6354   3.719   5.022   9.086  0.0775  0.0608  0.0617
   53CHL1   C18 6355   3.800   5.156   9.064  0.2801  0.3203  0.0883
   53CHL1  H18A 6356   3.895   5.136   9.011  0.8711  2.6520  0.1591
   53CHL1  H18B 6357   3.742   5.218   8.992  0.9435  1.9197  0.8634
   53CHL1  H18C 6358   3.807   5.221   9.154 -1.1604  0.3548  0.2098
   53CHL1   C12 6359   3.570   5.051   9.141 -0.4022  0.6118  0.4598
   53CHL1  H12A 6360   3.533   5.118   9.060 -0.7592  0.4452  0.4820
   53CHL1  H12B 6361   3.506   4.960   9.144  0.0144  0.3291  1.0653
   53CHL1   C11 6362   3.563   5.117   9.276  0.0065  0.0592  0.3713
   53CHL1  H11A 6363   3.616   5.213   9.260  0.1596 -0.3051 -1.4723
   53CHL1  H11B 6364   3.458   5.135   9.306 -0.5165 -3.7389  1.4617
   53CHL1    C9 6365   3.645   5.043   9.387  0.0964  0.0337 -0.6587
   53CHL1    H9 6366   3.586   4.951   9.409  0.1040 -0.1173 -1.2558
   53CHL1   C10 6367   3.654   5.116   9.520 -0.7546 -0.4326 -0.4982
   53CHL1   C19 6368   3.710   5.260   9.510  0.4959  0.3183  0.0013
   53CHL1  H19A 6369   3.806   5.273   9.456  0.3966  0.9948 -0.0238
   53CHL1  H19B 6370   3.637   5.325   9.455  1.0280 -1.1041 -2.5418
   53CHL1  H19C 6371   3.721   5.312   9.608 -0.1932 -0.5865  0.5689
   53CHL1    C1 6372   3.506   5.119   9.590  0.2064 -0.2076 -0.0504
   53CHL1   H1A 6373   3.448   5.182   9.519  1.4115 -2.1333 -2.9004
   53CHL1   H1B 6374   3.468   5.015   9.593  1.0509 -0.5601 -0.9444
   53CHL1    C2 6375   3.504   5.167   9.733 -0.1918 -0.0673 -0.1176
   53CHL1   H2A 6376   3.403   5.154   9.776 -0.4196  0.6042 -0.4368
   53CHL1   H2B 6377   3.520   5.276   9.744 -0.9129  0.2357 -1.7576
   53CHL1   C20 6378   3.720   4.969   8.826 -0.3657  0.2468  0.4220
   53CHL1   H20 6379   3.803   5.040   8.805 -0.0893 -0.4122 -0.8372
   53CHL1   C21 6380   3.581   5.033   8.810 -0.1116 -0.3043 -0.8789
   53CHL1  H21A 6381   3.578   5.134   8.858  0.6084 -2.0257  3.2003
   53CHL1  H21B 6382   3.507   4.975   8.868 -0.5159  2.2974  1.4427
   53CHL1  H21C 6383   3.555   5.037   8.702 -0.4519  1.3928 -0.7608
   53CHL1   C22 6384   3.746   4.860   8.720 -0.2471 -0.1576  0.2123
   53CHL1  H22A 6385   3.758   4.909   8.621 -1.0004 -1.1375 -0.3933
   53CHL1  H22B 6386   3.845   4.813   8.739  2.4165  4.8763  0.3317
   53CHL1   C23 6387   3.638   4.757   8.707  0.0112 -0.4562 -0.6142
   53CHL1  H23A 6388   3.613   4.724   8.810  0.0212 -0.6513 -0.6725
   53CHL1  H23B 6389   3.543   4.793   8.662 -0.2735 -1.4781 -0.8630
   53CHL1   C24 6390   3.688   4.635   8.627 -0.4635  0.5787  0.1161
   53CHL1  H24A 6391   3.796   4.620   8.647 -0.4354 -0.7178 -0.8901
   53CHL1  H24B 6392   3.637   4.546   8.669 -1.8596 -0.5858 -3.6466
   53CHL1   C25 6393   3.654   4.627   8.477 -0.5647  0.4603 -0.1798
   53CHL1   H25 6394   3.674   4.730   8.438 -1.4963  0.3648 -0.9538
   53CHL1   C26 6395   3.753   4.529   8.403  0.0721  0.0487  0.2577
   53CHL1  H26A 6396   3.745   4.424   8.438  2.6401 -1.0482 -2.0906
   53CHL1  H26B 6397   3.741   4.528   8.293 -0.0941  1.0630  0.2561
   53CHL1  H26C 6398   3.859   4.560   8.421  0.8865 -1.2524 -1.9378
   53CHL1   C27 6399   3.507   4.590   8.454 -0.5269 -0.5244 -0.2755
   53CHL1  H27A 6400   3.464   4.660   8.378  1.1210  1.2361  0.3381
   53CHL1  H27B 6401   3.503   4.487   8.412 -0.2899 -0.2026 -1.1164
   53CHL1  H27C 6402   3.445   4.597   8.546 -0.2710  0.0483 -0.1431
   54CHL1    C3 6403   4.386   4.821  10.110  0.4549 -0.0460 -0.1287
   54CHL1    H3 6404   4.395   4.931  10.100 -2.6827  0.1789 -1.4941
   54CHL1    O3 6405   4.343   4.790  10.239  0.0879  0.1920  0.2871
   54CHL1   H3' 6406   4.417   4.810  10.296 -0.9769  1.5621  1.2190
   54CHL1    C4 6407   4.277   4.771  10.008 -0.5698  0.1232  0.0759
   54CHL1   H4A 6408   4.259   4.665  10.034 -1.3742  0.2505  0.0735
   54CHL1   H4B 6409   4.189   4.830  10.042 -0.6002  1.0601 -1.4833
   54CHL1    C5 6410   4.318   4.789   9.865  0.1573 -0.3937  0.4582
   54CHL1    C6 6411   4.242   4.862   9.775  0.6008  0.5627 -0.3335
   54CHL1    H6 6412   4.158   4.924   9.808  1.3223  1.7158 -0.6273
   54CHL1    C7 6413   4.278   4.882   9.634  0.4753  0.7001  0.4528
   54CHL1   H7A 6414   4.192   4.890   9.565 -2.4243 -3.9507  3.0428
   54CHL1   H7B 6415   4.326   4.982   9.622  4.5685 -1.1688 -0.8106
   54CHL1    C8 6416   4.386   4.775   9.580 -0.2362  0.6954 -0.3714
   54CHL1    H8 6417   4.331   4.679   9.573  1.0308  0.0280 -1.5141
   54CHL1   C14 6418   4.445   4.801   9.439 -0.2831  0.2454 -0.1520
   54CHL1   H14 6419   4.494   4.900   9.445 -0.5047  0.3758 -0.4609
   54CHL1   C15 6420   4.345   4.821   9.325 -0.0620 -0.3946  0.0056
   54CHL1  H15A 6421   4.290   4.725   9.329  2.1370 -1.7027  0.9983
   54CHL1  H15B 6422   4.276   4.904   9.350  0.3997 -0.4994  1.8273
   54CHL1   C16 6423   4.441   4.824   9.204  0.4494 -0.4020  0.3282
   54CHL1  H16A 6424   4.399   4.769   9.118  1.9151  0.7394 -1.1923
   54CHL1  H16B 6425   4.454   4.930   9.173 -0.5197  0.2308  1.9716
   54CHL1   C17 6426   4.581   4.777   9.246  0.5467  0.9891 -0.0060
   54CHL1   H17 6427   4.651   4.859   9.270  1.1929  0.5173 -0.2409
   54CHL1   C13 6428   4.561   4.708   9.386  0.6167  0.6394 -0.1382
   54CHL1   C18 6429   4.508   4.560   9.368 -0.7473 -0.5481  0.4028
   54CHL1  H18A 6430   4.579   4.483   9.332 -2.2641  0.0471 -4.7079
   54CHL1  H18B 6431   4.451   4.519   9.454 -1.9483 -0.1990 -0.2032
   54CHL1  H18C 6432   4.434   4.560   9.285  1.0577  1.3611 -1.3042
   54CHL1   C12 6433   4.668   4.715   9.491  0.5157 -0.1117 -0.7394
   54CHL1  H12A 6434   4.751   4.644   9.466  0.2037 -1.0227  0.6876
   54CHL1  H12B 6435   4.719   4.812   9.506  3.1136 -1.5080  0.3055
   54CHL1   C11 6436   4.612   4.678   9.634 -1.0224 -0.1996  0.3479
   54CHL1  H11A 6437   4.587   4.570   9.628  1.3280 -0.7599 -0.6880
   54CHL1  H11B 6438   4.698   4.675   9.704 -1.3234  0.4896  0.7567
   54CHL1    C9 6439   4.500   4.770   9.687  0.2187  0.5227 -0.1876
   54CHL1    H9 6440   4.544   4.872   9.693 -0.1563  0.6822 -0.1193
   54CHL1   C10 6441   4.453   4.732   9.828  0.3007  0.0345  0.2468
   54CHL1   C19 6442   4.431   4.580   9.818  0.4911  0.4197 -1.4913
   54CHL1  H19A 6443   4.390   4.544   9.914  2.4431 -0.0285 -0.7855
   54CHL1  H19B 6444   4.370   4.546   9.731 -0.8013 -1.0777 -0.0511
   54CHL1  H19C 6445   4.529   4.528   9.813  0.9481  1.3500 -3.6712
   54CHL1    C1 6446   4.553   4.768   9.932 -0.5120 -0.5301 -0.3622
   54CHL1   H1A 6447   4.649   4.717   9.913 -0.1564 -1.0018  2.3034
   54CHL1   H1B 6448   4.569   4.878   9.932  1.0326 -0.7395 -0.0554
   54CHL1    C2 6449   4.507   4.744  10.078  0.2681  0.3910 -0.3546
   54CHL1   H2A 6450   4.577   4.778  10.157  0.4603 -0.6169 -0.0770
   54CHL1   H2B 6451   4.496   4.634  10.079  0.3021  0.3216 -2.3601
   54CHL1   C20 6452   4.659   4.697   9.139 -1.0379  0.5872  0.3617
   54CHL1   H20 6453   4.607   4.600   9.123 -1.1552  0.8137 -0.6633
   54CHL1   C21 6454   4.805   4.662   9.186  0.0160 -0.5919 -0.2621
   54CHL1  H21A 6455   4.857   4.755   9.219  0.6604 -1.4575  1.2553
   54CHL1  H21B 6456   4.863   4.618   9.103 -1.4782 -3.5718  0.1637
   54CHL1  H21C 6457   4.813   4.596   9.275 -1.5153  1.1299  1.2511
   54CHL1   C22 6458   4.672   4.764   8.997 -0.3803  0.1774  0.3245
   54CHL1  H22A 6459   4.573   4.806   8.966  1.4503  2.6719 -2.7395
   54CHL1  H22B 6460   4.731   4.858   9.002 -1.3849  1.2726 -4.2378
   54CHL1   C23 6461   4.713   4.666   8.887  0.0399 -0.3915 -0.2040
   54CHL1  H23A 6462   4.820   4.638   8.893  0.3225  0.8259  0.8954
   54CHL1  H23B 6463   4.650   4.575   8.900 -1.7568  1.1330  3.0972
   54CHL1   C24 6464   4.689   4.731   8.751 -0.1358 -0.0798 -0.3015
   54CHL1  H24A 6465   4.585   4.771   8.744  0.5256  1.5400 -1.8643
   54CHL1  H24B 6466   4.759   4.818   8.748 -0.2995  0.0293 -1.6338
   54CHL1   C25 6467   4.731   4.641   8.635  0.3743  0.4227 -0.2838
   54CHL1   H25 6468   4.718   4.536   8.668  1.4987 -0.1990 -1.6685
   54CHL1   C26 6469   4.646   4.656   8.512 -0.2345  0.3446  0.2711
   54CHL1  H26A 6470   4.658   4.758   8.469 -0.7665  0.8143  1.2165
   54CHL1  H26B 6471   4.687   4.588   8.434  0.2292  2.2546 -1.2390
   54CHL1  H26C 6472   4.537   4.641   8.528 -0.2942  0.8878  0.3976
   54CHL1   C27 6473   4.883   4.646   8.618 -0.1852 -0.5377  0.3414
   54CHL1  H27A 6474   4.898   4.736   8.555 -0.6177  0.3444  1.4566
   54CHL1  H27B 6475   4.942   4.656   8.711 -0.6372 -2.5205  0.8792
   54CHL1  H27C 6476   4.926   4.556   8.571  0.4644  0.4449 -1.0203
   55CHL1    C3 6477   4.039   2.135  10.224  0.3743  0.7370 -0.2829
   55CHL1    H3 6478   4.116   2.073  10.274 -2.0436 -0.3729  2.4121
   55CHL1    O3 6479   3.976   2.211  10.329  0.2488  0.0031 -0.3420
   55CHL1   H3' 6480   3.996   2.305  10.317  0.8128  0.0173  0.6072
   55CHL1    C4 6481   4.087   2.231  10.118  0.5527 -0.3197 -0.3123
   55CHL1   H4A 6482   3.996   2.294  10.112 -0.9721 -2.4690 -1.3181
   55CHL1   H4B 6483   4.162   2.297  10.164  0.5966 -0.4145 -0.2477
   55CHL1    C5 6484   4.134   2.166   9.988 -0.2287 -0.4738  0.9212
   55CHL1    C6 6485   4.258   2.185   9.943  0.8593 -0.0241  0.7397
   55CHL1    H6 6486   4.330   2.253   9.990  0.3710 -0.2375  1.8307
   55CHL1    C7 6487   4.310   2.124   9.815 -0.7066 -0.7599 -0.0327
   55CHL1   H7A 6488   4.373   2.198   9.762  0.9216 -0.9823  1.4745
   55CHL1   H7B 6489   4.382   2.045   9.846 -0.7225 -1.5138 -1.8130
   55CHL1    C8 6490   4.197   2.072   9.730 -0.7114 -0.4537  0.1555
   55CHL1    H8 6491   4.133   2.156   9.697  1.0693  0.7674 -0.3704
   55CHL1   C14 6492   4.256   1.985   9.615 -0.1082  0.7004 -0.8873
   55CHL1   H14 6493   4.318   1.909   9.668  0.0272  1.1514 -0.3853
   55CHL1   C15 6494   4.337   2.060   9.511 -0.3697 -0.1426  0.2264
   55CHL1  H15A 6495   4.285   2.150   9.470 -3.5435 -2.0456 -0.2747
   55CHL1  H15B 6496   4.436   2.091   9.551 -0.4290 -1.9379  1.9196
   55CHL1   C16 6497   4.352   1.965   9.388 -0.0617 -0.7935  0.0147
   55CHL1  H16A 6498   4.318   2.022   9.298 -2.4801 -0.8460  0.8295
   55CHL1  H16B 6499   4.453   1.921   9.376  0.7606  1.4151 -1.9783
   55CHL1   C17 6500   4.240   1.857   9.416  0.2649 -0.7499 -0.0708
   55CHL1   H17 6501   4.286   1.768   9.464  0.3386 -0.8442 -0.3149
   55CHL1   C13 6502   4.148   1.914   9.533  0.1760  0.1092  0.4423
   55CHL1   C18 6503   4.049   2.015   9.480  0.2940 -0.5906  0.5005
   55CHL1  H18A 6504   3.993   2.082   9.548 -1.8694 -3.3704  1.6207
   55CHL1  H18B 6505   4.104   2.073   9.402 -0.2130  1.4263  1.5803
   55CHL1  H18C 6506   3.964   1.959   9.437  0.7304 -1.5323  0.8280
   55CHL1   C12 6507   4.079   1.812   9.627 -0.8934  0.5053 -0.0539
   55CHL1  H12A 6508   4.010   1.741   9.578 -1.5011  1.3574 -0.4512
   55CHL1  H12B 6509   4.161   1.744   9.660 -1.4252 -0.5270 -0.7903
   55CHL1   C11 6510   4.014   1.877   9.741 -0.0406 -0.2441  0.2705
   55CHL1  H11A 6511   3.917   1.917   9.706  1.7086  6.0416  1.4318
   55CHL1  H11B 6512   3.989   1.795   9.812  0.5254 -1.1961 -0.5837
   55CHL1    C9 6513   4.107   1.982   9.818  0.5852 -0.0771 -0.4108
   55CHL1    H9 6514   4.175   1.913   9.873  0.8823 -0.0703 -0.7656
   55CHL1   C10 6515   4.034   2.068   9.930  0.5058  0.4478 -0.5436
   55CHL1   C19 6516   3.924   2.148   9.867  0.4592 -0.4592 -0.5665
   55CHL1  H19A 6517   3.846   2.102   9.803 -2.3320  3.7027 -0.5526
   55CHL1  H19B 6518   3.858   2.201   9.940  0.7750  0.2169 -0.7642
   55CHL1  H19C 6519   3.963   2.235   9.810  2.4546  1.1859  2.9503
   55CHL1    C1 6520   3.975   1.975  10.033  0.2216 -0.4560  0.0622
   55CHL1   H1A 6521   3.883   1.927   9.994 -1.4075  0.9573  1.9366
   55CHL1   H1B 6522   4.053   1.899  10.057  0.6946 -0.4696 -1.4469
   55CHL1    C2 6523   3.928   2.040  10.167 -0.7832  0.1620 -0.4339
   55CHL1   H2A 6524   3.898   1.961  10.240  2.6676 -0.7556  0.2065
   55CHL1   H2B 6525   3.834   2.097  10.156 -0.4024  0.7755 -0.5808
   55CHL1   C20 6526   4.170   1.825   9.290 -0.1175  0.1166 -0.1535
   55CHL1   H20 6527   4.121   1.919   9.257 -1.8669 -0.7412 -0.0982
   55CHL1   C21 6528   4.059   1.726   9.312  0.2879 -0.0767  0.0187
   55CHL1  H21A 6529   3.972   1.755   9.375  0.1813  0.8719 -0.5450
   55CHL1  H21B 6530   4.105   1.647   9.375  0.2527  1.1542  1.6559
   55CHL1  H21C 6531   4.015   1.689   9.217 -2.3778  0.3294  1.0233
   55CHL1   C22 6532   4.274   1.777   9.188  0.1195 -0.5517 -0.1900
   55CHL1  H22A 6533   4.211   1.776   9.097 -0.0507 -1.4575 -0.0723
   55CHL1  H22B 6534   4.363   1.837   9.158  1.5618 -2.1362  0.6976
   55CHL1   C23 6535   4.316   1.630   9.198  0.1981  0.3401  0.5642
   55CHL1  H23A 6536   4.345   1.622   9.305  1.2488  0.2630  0.2885
   55CHL1  H23B 6537   4.232   1.560   9.179  1.0752 -0.0974 -2.2123
   55CHL1   C24 6538   4.429   1.583   9.101  0.2831 -0.1972  0.2760
   55CHL1  H24A 6539   4.402   1.608   8.996 -0.8744 -0.4695  0.5055
   55CHL1  H24B 6540   4.519   1.638   9.136 -0.9070  0.8221  1.8411
   55CHL1   C25 6541   4.449   1.432   9.111  0.1293 -0.2960  0.4447
   55CHL1   H25 6542   4.351   1.387   9.084  1.2973 -2.9486  0.3080
   55CHL1   C26 6543   4.548   1.388   9.007  0.0595  0.0708  0.1018
   55CHL1  H26A 6544   4.642   1.446   9.019 -0.7430  1.1561  1.4569
   55CHL1  H26B 6545   4.577   1.281   9.016  1.8812  0.5284  0.0945
   55CHL1  H26C 6546   4.521   1.414   8.903 -1.3917 -1.7090 -0.0313
   55CHL1   C27 6547   4.490   1.405   9.255 -1.5288  0.4420  0.7889
   55CHL1  H27A 6548   4.546   1.310   9.268  0.7420  1.7409  1.0657
   55CHL1  H27B 6549   4.567   1.481   9.278 -0.2461 -0.9103  1.1366
   55CHL1  H27C 6550   4.416   1.399   9.337 -0.2735 -2.0252  1.8612
   56CHL1    C3 6551   1.314   1.273  10.104  0.3004  0.3704  0.0598
   56CHL1    H3 6552   1.261   1.176  10.106  3.0038 -1.2683 -1.5778
   56CHL1    O3 6553   1.391   1.291  10.219 -0.3219  0.0739 -0.3992
   56CHL1   H3' 6554   1.436   1.375  10.217 -2.5010  1.2951 -0.6706
   56CHL1    C4 6555   1.408   1.256   9.987  0.6260 -0.0070 -0.1922
   56CHL1   H4A 6556   1.478   1.341   9.992  0.1702  0.4585 -1.3579
   56CHL1   H4B 6557   1.476   1.168   9.996  1.9822  1.1541  1.5504
   56CHL1    C5 6558   1.336   1.251   9.854  0.2316 -0.6981 -0.1591
   56CHL1    C6 6559   1.355   1.147   9.771  0.1214 -0.0490  0.7084
   56CHL1    H6 6560   1.427   1.068   9.799 -1.7673 -1.8269  0.8130
   56CHL1    C7 6561   1.292   1.140   9.633  0.3854 -0.1219 -0.0253
   56CHL1   H7A 6562   1.354   1.103   9.548 -1.1087  1.4643 -1.8820
   56CHL1   H7B 6563   1.204   1.074   9.647  1.1398 -1.0263  0.6364
   56CHL1    C8 6564   1.226   1.275   9.588  0.3814 -0.7907 -0.0220
   56CHL1    H8 6565   1.313   1.338   9.559  0.4229 -0.0207  1.6680
   56CHL1   C14 6566   1.137   1.258   9.471 -0.1697  0.2974  0.4078
   56CHL1   H14 6567   1.057   1.189   9.505  0.1756 -0.1086  0.3909
   56CHL1   C15 6568   1.199   1.195   9.344  0.3872  0.7482  0.2530
   56CHL1  H15A 6569   1.299   1.237   9.319  1.1918 -1.4219 -0.3961
   56CHL1  H15B 6570   1.209   1.085   9.351 -1.2138  0.4942 -1.0452
   56CHL1   C16 6571   1.097   1.226   9.232 -0.1120  0.3067  0.1188
   56CHL1  H16A 6572   1.161   1.270   9.152  1.4495 -1.7239  0.1423
   56CHL1  H16B 6573   1.036   1.141   9.192 -1.4983 -0.3835  3.4347
   56CHL1   C17 6574   1.003   1.332   9.289 -0.5032 -0.6756 -0.5967
   56CHL1   H17 6575   0.915   1.281   9.335  0.6111  0.8122  3.6054
   56CHL1   C13 6576   1.074   1.386   9.415  0.2310  0.0485  0.2729
   56CHL1   C18 6577   1.181   1.495   9.382 -0.0551  0.2680  0.1215
   56CHL1  H18A 6578   1.240   1.469   9.292  0.5860  1.7240  0.0854
   56CHL1  H18B 6579   1.137   1.592   9.348 -1.4361  0.2251  1.6666
   56CHL1  H18C 6580   1.251   1.515   9.466 -0.9061  1.4773  0.5803
   56CHL1   C12 6581   0.976   1.434   9.524 -0.0621 -0.0504  0.0365
   56CHL1  H12A 6582   0.917   1.523   9.493 -1.8183 -0.1654  2.7181
   56CHL1  H12B 6583   0.908   1.348   9.541  2.7377 -2.8992 -2.1094
   56CHL1   C11 6584   1.063   1.457   9.655  0.1518 -0.2231  0.0844
   56CHL1  H11A 6585   1.120   1.551   9.640  1.0546 -0.8656 -0.6272
   56CHL1  H11B 6586   0.993   1.475   9.739  2.2309  1.5309  1.5375
   56CHL1    C9 6587   1.142   1.339   9.703 -0.7435 -0.0164  0.1952
   56CHL1    H9 6588   1.070   1.257   9.725  0.2167 -1.0687 -0.4690
   56CHL1   C10 6589   1.231   1.359   9.828 -0.3715 -0.3691 -0.5368
   56CHL1   C19 6590   1.326   1.488   9.800 -0.0605 -0.4865  0.0038
   56CHL1  H19A 6591   1.382   1.470   9.706 -0.2102 -2.6503  0.2841
   56CHL1  H19B 6592   1.257   1.573   9.778  0.6366 -0.8307 -4.5713
   56CHL1  H19C 6593   1.390   1.496   9.890  1.4340 -3.0735 -0.7362
   56CHL1    C1 6594   1.138   1.389   9.950  0.1740  0.3582  0.0834
   56CHL1   H1A 6595   1.095   1.490   9.933  0.0001 -0.2019 -3.4885
   56CHL1   H1B 6596   1.053   1.322   9.974  1.0368 -0.5951  0.5880
   56CHL1    C2 6597   1.204   1.391  10.085 -0.1286 -0.4369 -0.1734
   56CHL1   H2A 6598   1.128   1.395  10.165 -1.1174  2.5078 -1.1072
   56CHL1   H2B 6599   1.264   1.485  10.085 -3.1517  1.6309 -0.1527
   56CHL1   C20 6600   0.951   1.431   9.179  0.0610  0.1882  0.4255
   56CHL1   H20 6601   1.031   1.488   9.126 -0.9860  0.1252 -1.3089
   56CHL1   C21 6602   0.837   1.524   9.219 -0.2496  0.0935  0.0113
   56CHL1  H21A 6603   0.795   1.576   9.130  0.0132 -2.8180 -1.9165
   56CHL1  H21B 6604   0.872   1.601   9.292  0.1762 -0.6916  0.6466
   56CHL1  H21C 6605   0.747   1.463   9.241  0.9511 -1.3702  1.0640
   56CHL1   C22 6606   0.897   1.342   9.064  0.4335 -0.5287 -0.3721
   56CHL1  H22A 6607   0.976   1.275   9.023  0.7233 -0.1692 -0.4024
   56CHL1  H22B 6608   0.812   1.277   9.094 -1.3105  1.6995 -0.1708
   56CHL1   C23 6609   0.855   1.416   8.931  0.1679  0.1699  1.2423
   56CHL1  H23A 6610   0.764   1.478   8.944  0.1777  0.3196  0.6358
   56CHL1  H23B 6611   0.934   1.486   8.895  0.8448 -0.5820  1.2189
   56CHL1   C24 6612   0.804   1.318   8.824  0.0676 -0.7953  0.3493
   56CHL1  H24A 6613   0.894   1.263   8.788 -0.1252 -0.0126 -1.3944
   56CHL1  H24B 6614   0.731   1.244   8.862 -0.7254 -3.0697 -4.8233
   56CHL1   C25 6615   0.743   1.379   8.691  0.7043 -0.1479  0.3106
   56CHL1   H25 6616   0.649   1.434   8.713  1.5519  1.0647  1.1003
   56CHL1   C26 6617   0.843   1.478   8.624  0.6621  0.4540 -0.2415
   56CHL1  H26A 6618   0.938   1.421   8.608  0.6337  0.5126 -0.6265
   56CHL1  H26B 6619   0.807   1.514   8.526  1.4565 -0.6997 -0.9858
   56CHL1  H26C 6620   0.856   1.560   8.697  0.2182 -1.0839  1.6559
   56CHL1   C27 6621   0.684   1.266   8.604 -0.1754 -0.1941  0.2348
   56CHL1  H27A 6622   0.745   1.261   8.512  1.8843 -0.6416  1.5580
   56CHL1  H27B 6623   0.700   1.168   8.654  1.3369 -0.0051  0.1614
   56CHL1  H27C 6624   0.575   1.271   8.581 -0.3037  0.0365  0.8684
   57CHL1    C3 6625   5.263   3.464  10.151 -0.0507 -0.4199  0.3524
   57CHL1    H3 6626   5.355   3.401  10.163  0.1492  0.1952  2.4244
   57CHL1    O3 6627   5.190   3.471  10.278  0.1726  0.6957  0.3317
   57CHL1   H3' 6628   5.267   3.491  10.332  2.5886  0.3188 -2.6613
   57CHL1    C4 6629   5.315   3.603  10.092 -0.5836  0.3564 -0.2097
   57CHL1   H4A 6630   5.224   3.665  10.077 -1.3161  0.2213  2.9259
   57CHL1   H4B 6631   5.372   3.649  10.175 -0.8781  0.6066 -0.1458
   57CHL1    C5 6632   5.392   3.577   9.962 -0.2400 -0.2891  0.2247
   57CHL1    C6 6633   5.519   3.606   9.937  0.5160  0.1159 -0.1576
   57CHL1    H6 6634   5.576   3.668  10.008  1.1198 -0.1437 -0.4099
   57CHL1    C7 6635   5.581   3.585   9.805 -1.4930  0.3649 -0.0572
   57CHL1   H7A 6636   5.630   3.680   9.777 -0.9346 -0.3326 -1.5554
   57CHL1   H7B 6637   5.661   3.508   9.814 -3.0925 -1.4161 -0.3792
   57CHL1    C8 6638   5.484   3.560   9.694  0.3514 -0.2185  1.1938
   57CHL1    H8 6639   5.432   3.656   9.670 -2.1356 -2.3897 -3.3004
   57CHL1   C14 6640   5.553   3.510   9.566  0.6065  0.4353 -0.7473
   57CHL1   H14 6641   5.591   3.408   9.592 -0.9499 -0.0644 -0.3004
   57CHL1   C15 6642   5.664   3.588   9.504 -0.9642 -0.0231 -0.8051
   57CHL1  H15A 6643   5.653   3.698   9.514 -1.1495 -0.2530  2.8982
   57CHL1  H15B 6644   5.758   3.572   9.560 -1.0764  0.2355 -0.5395
   57CHL1   C16 6645   5.673   3.543   9.357 -0.3373 -0.3933 -0.1986
   57CHL1  H16A 6646   5.668   3.627   9.285  1.3270 -1.9512 -2.2712
   57CHL1  H16B 6647   5.765   3.483   9.340 -0.6200 -0.9734  0.2903
   57CHL1   C17 6648   5.553   3.450   9.340  0.2314  0.0042 -0.5410
   57CHL1   H17 6649   5.582   3.347   9.370 -1.0344  0.4016  2.3476
   57CHL1   C13 6650   5.452   3.487   9.452 -0.1813  0.1807 -0.0643
   57CHL1   C18 6651   5.357   3.611   9.418 -0.1067 -1.1368 -0.0080
   57CHL1  H18A 6652   5.320   3.657   9.512 -0.0107 -1.1460  0.0334
   57CHL1  H18B 6653   5.417   3.686   9.363 -1.6739 -0.1385 -0.4348
   57CHL1  H18C 6654   5.280   3.583   9.343 -0.5938 -2.9165  1.1032
   57CHL1   C12 6655   5.355   3.371   9.494 -0.1282 -0.4315 -0.5199
   57CHL1  H12A 6656   5.284   3.346   9.412  0.9087  2.7368 -2.5418
   57CHL1  H12B 6657   5.418   3.283   9.517 -1.2523 -1.0677  0.2110
   57CHL1   C11 6658   5.288   3.411   9.628 -0.3175  0.1084  0.4441
   57CHL1  H11A 6659   5.207   3.483   9.601 -1.3419 -1.5616 -1.2265
   57CHL1  H11B 6660   5.232   3.322   9.662  1.2642 -0.6561  1.1650
   57CHL1    C9 6661   5.387   3.456   9.740 -0.1324  0.1398 -0.0457
   57CHL1    H9 6662   5.449   3.367   9.767  2.1444  1.6408 -0.0226
   57CHL1   C10 6663   5.304   3.499   9.864 -0.7573 -0.3878 -0.6948
   57CHL1   C19 6664   5.193   3.605   9.826  0.1991 -0.7637  0.2564
   57CHL1  H19A 6665   5.235   3.690   9.767  2.2331 -0.7667  1.5819
   57CHL1  H19B 6666   5.123   3.562   9.752  0.5961  0.6731 -0.9951
   57CHL1  H19C 6667   5.128   3.630   9.913  0.1648 -0.5272  0.1618
   57CHL1    C1 6668   5.240   3.371   9.919  0.1372  0.5850  0.1901
   57CHL1   H1A 6669   5.169   3.326   9.847  2.0041 -2.2046 -0.0872
   57CHL1   H1B 6670   5.311   3.285   9.924  0.4139  0.8577  1.3259
   57CHL1    C2 6671   5.167   3.395  10.049  0.2586 -0.3364 -0.0282
   57CHL1   H2A 6672   5.130   3.302  10.098  2.8983 -1.3511  0.2473
   57CHL1   H2B 6673   5.074   3.454  10.033 -2.1976 -4.6313 -4.4260
   57CHL1   C20 6674   5.491   3.438   9.201  0.0699 -0.4436  0.9398
   57CHL1   H20 6675   5.386   3.403   9.205 -0.0600 -0.0011  1.4062
   57CHL1   C21 6676   5.582   3.336   9.131 -0.3815 -0.2318 -0.2233
   57CHL1  H21A 6677   5.542   3.317   9.030  1.0988 -0.8932 -0.7097
   57CHL1  H21B 6678   5.594   3.241   9.187  1.1586 -0.3846 -0.7653
   57CHL1  H21C 6679   5.681   3.382   9.111 -0.2888 -0.7021 -0.8658
   57CHL1   C22 6680   5.482   3.567   9.113  0.3238 -0.6928  0.0495
   57CHL1  H22A 6681   5.467   3.661   9.171 -0.9866 -0.7120 -0.2372
   57CHL1  H22B 6682   5.575   3.579   9.053 -1.0188  2.4460 -1.6312
   57CHL1   C23 6683   5.367   3.566   9.008  0.0402  0.2177 -0.7769
   57CHL1  H23A 6684   5.358   3.467   8.959  0.3112 -0.5541  0.6520
   57CHL1  H23B 6685   5.272   3.579   9.064 -0.1184 -3.5967  0.1075
   57CHL1   C24 6686   5.385   3.684   8.907  0.0262  0.7471 -0.3672
   57CHL1  H24A 6687   5.413   3.781   8.954  0.7505 -0.3823  1.6696
   57CHL1  H24B 6688   5.474   3.647   8.853  0.4666 -2.5279  2.2744
   57CHL1   C25 6689   5.260   3.711   8.821 -1.1198 -0.1777  0.0456
   57CHL1   H25 6690   5.170   3.731   8.883 -0.4180  1.2046  0.6664
   57CHL1   C26 6691   5.281   3.841   8.736 -0.2631  0.0352  0.3042
   57CHL1  H26A 6692   5.288   3.928   8.804  0.8444  0.6474 -0.5594
   57CHL1  H26B 6693   5.373   3.832   8.674  0.9623  2.4528  1.6376
   57CHL1  H26C 6694   5.184   3.844   8.683 -1.0628 -0.4863  1.6756
   57CHL1   C27 6695   5.226   3.596   8.729 -0.5908  0.5777  0.1257
   57CHL1  H27A 6696   5.210   3.506   8.792 -0.2229 -0.6007 -1.3967
   57CHL1  H27B 6697   5.122   3.618   8.694 -0.7485  0.4412  0.5106
   57CHL1  H27C 6698   5.302   3.567   8.653  0.1073  0.8701  0.7028
   58CHL1    C3 6699   1.899   3.176  10.154  0.7363  0.0037  0.5616
   58CHL1    H3 6700   1.809   3.112  10.148  1.0771 -0.7010  2.2286
   58CHL1    O3 6701   1.928   3.169  10.296  0.5219 -0.3517  0.3109
   58CHL1   H3' 6702   1.853   3.208  10.343  1.2775  0.2110  1.0676
   58CHL1    C4 6703   2.014   3.130  10.068  0.9001 -0.0461 -0.4712
   58CHL1   H4A 6704   2.109   3.176  10.102 -0.2489  1.1789  1.2297
   58CHL1   H4B 6705   2.033   3.024  10.097 -1.8762  0.0923  2.3067
   58CHL1    C5 6706   1.989   3.139   9.925  0.1086  0.1990  0.1750
   58CHL1    C6 6707   2.006   3.027   9.851  0.6019 -0.1910 -0.3838
   58CHL1    H6 6708   2.044   2.934   9.896 -1.2714 -0.3239  1.0501
   58CHL1    C7 6709   1.976   3.027   9.698 -0.2021 -0.4072 -0.7452
   58CHL1   H7A 6710   2.063   2.971   9.658  2.0387  2.4047 -0.1417
   58CHL1   H7B 6711   1.877   2.983   9.674  0.5907 -0.9446 -3.2925
   58CHL1    C8 6712   1.976   3.172   9.636  0.2336 -0.3011 -0.2256
   58CHL1    H8 6713   2.081   3.206   9.630  0.2862 -0.5000 -0.4818
   58CHL1   C14 6714   1.922   3.160   9.492 -0.7093  0.5616  0.3889
   58CHL1   H14 6715   1.817   3.128   9.511 -0.7138  1.7422  2.8132
   58CHL1   C15 6716   1.979   3.056   9.394  0.5635  0.1322  0.1927
   58CHL1  H15A 6717   2.089   3.061   9.388  0.5186 -0.1071 -1.2159
   58CHL1  H15B 6718   1.950   2.950   9.411 -0.8824  0.2497 -1.1922
   58CHL1   C16 6719   1.927   3.110   9.260 -0.4612  0.2970  0.1703
   58CHL1  H16A 6720   2.016   3.146   9.203 -1.3598  0.7384 -0.9904
   58CHL1  H16B 6721   1.881   3.036   9.191 -1.4549 -0.2408  1.3754
   58CHL1   C17 6722   1.845   3.241   9.284 -0.1600 -0.1084 -0.2872
   58CHL1   H17 6723   1.737   3.220   9.296  0.1817 -0.9304  1.9320
   58CHL1   C13 6724   1.907   3.294   9.417  0.5516 -0.5644 -0.2709
   58CHL1   C18 6725   2.040   3.366   9.394 -0.9566  0.3008 -0.4540
   58CHL1  H18A 6726   2.118   3.313   9.335  0.8377  1.6449  0.5735
   58CHL1  H18B 6727   2.029   3.462   9.338  0.8042  2.3007  2.3248
   58CHL1  H18C 6728   2.078   3.401   9.493 -1.3499  0.2070 -0.2661
   58CHL1   C12 6729   1.803   3.376   9.503 -0.1715  0.2330 -0.1782
   58CHL1  H12A 6730   1.766   3.474   9.466  0.1943  0.0000 -1.1957
   58CHL1  H12B 6731   1.711   3.315   9.491 -0.3291  0.7262 -1.6223
   58CHL1   C11 6732   1.841   3.389   9.654  0.4144 -0.0971  0.7985
   58CHL1  H11A 6733   1.924   3.463   9.644  1.8832 -1.3976  2.6095
   58CHL1  H11B 6734   1.754   3.432   9.708 -1.5801 -3.7499  0.7412
   58CHL1    C9 6735   1.885   3.255   9.727  0.0817  0.4113 -0.5980
   58CHL1    H9 6736   1.791   3.196   9.736  0.7706 -0.6023  0.1639
   58CHL1   C10 6737   1.935   3.273   9.874 -0.4253  0.0579  0.0411
   58CHL1   C19 6738   2.066   3.366   9.883 -0.3241  0.1055 -0.9502
   58CHL1  H19A 6739   2.148   3.337   9.814  1.0033  0.8841  0.2355
   58CHL1  H19B 6740   2.045   3.472   9.856  3.0172  0.5900 -2.1896
   58CHL1  H19C 6741   2.094   3.363   9.991 -1.9662  0.9215 -0.4698
   58CHL1    C1 6742   1.827   3.332   9.967  0.5240  0.4695 -0.6845
   58CHL1   H1A 6743   1.823   3.438   9.935  0.0928  0.9751  0.9120
   58CHL1   H1B 6744   1.733   3.281   9.937 -0.8545  2.7874 -0.5518
   58CHL1    C2 6745   1.841   3.310  10.120  0.4950 -1.0284  0.4767
   58CHL1   H2A 6746   1.742   3.328  10.166  0.7741  3.5886 -0.1983
   58CHL1   H2B 6747   1.909   3.390  10.157 -1.2373 -0.5867  2.9289
   58CHL1   C20 6748   1.851   3.341   9.161  0.5835 -0.0261 -0.3752
   58CHL1   H20 6749   1.945   3.399   9.157  1.0693 -0.4927  2.1906
   58CHL1   C21 6750   1.735   3.443   9.189 -0.5639  0.0270 -0.0264
   58CHL1  H21A 6751   1.637   3.393   9.203 -1.5057  1.4383 -1.2604
   58CHL1  H21B 6752   1.730   3.498   9.092 -3.1984 -1.7022 -0.9970
   58CHL1  H21C 6753   1.767   3.503   9.277  3.2204  1.3681 -2.0791
   58CHL1   C22 6754   1.825   3.279   9.017 -0.4088  0.9183  0.0262
   58CHL1  H22A 6755   1.841   3.349   8.933  3.0313  3.0775  2.2148
   58CHL1  H22B 6756   1.900   3.199   9.000  0.7297  2.3108 -1.7965
   58CHL1   C23 6757   1.693   3.220   8.988 -0.0462  0.8010 -0.1571
   58CHL1  H23A 6758   1.667   3.140   9.060 -0.6009  1.6553  0.6031
   58CHL1  H23B 6759   1.614   3.296   9.003 -1.8998 -0.9369 -0.7697
   58CHL1   C24 6760   1.681   3.170   8.848 -0.4681  0.5073  0.1076
   58CHL1  H24A 6761   1.688   3.247   8.768 -0.9248  0.5060  0.0665
   58CHL1  H24B 6762   1.768   3.105   8.826 -1.0673 -0.1343 -0.3839
   58CHL1   C25 6763   1.555   3.082   8.812 -0.5175 -0.5869 -0.2948
   58CHL1   H25 6764   1.531   3.005   8.888  0.3057 -0.4862  0.0739
   58CHL1   C26 6765   1.437   3.177   8.785  0.3153  1.1057 -0.6856
   58CHL1  H26A 6766   1.460   3.259   8.713 -0.9130  1.2114 -0.9772
   58CHL1  H26B 6767   1.342   3.124   8.761  0.8311  0.3902 -1.2101
   58CHL1  H26C 6768   1.406   3.227   8.879 -0.3058  1.0401 -0.8489
   58CHL1   C27 6769   1.578   2.995   8.684 -0.1074 -0.3627  0.0545
   58CHL1  H27A 6770   1.581   3.059   8.593 -0.0751 -0.4794 -0.0272
   58CHL1  H27B 6771   1.661   2.922   8.694 -0.0279 -0.6188 -1.9798
   58CHL1  H27C 6772   1.484   2.937   8.673 -0.9272  1.2321 -2.0722
   59CHL1    C3 6773   6.224   2.667  10.197 -0.0190  0.8268  0.0696
   59CHL1    H3 6774   6.331   2.677  10.170  0.2764  0.6882  1.1443
   59CHL1    O3 6775   6.230   2.663  10.341  0.5411  0.3558 -0.3298
   59CHL1   H3' 6776   6.163   2.603  10.374  0.0317  0.7280 -0.6685
   59CHL1    C4 6777   6.148   2.784  10.136 -0.5387 -0.4681  0.4942
   59CHL1   H4A 6778   6.038   2.794  10.146 -0.5206  0.7766 -0.2966
   59CHL1   H4B 6779   6.194   2.866  10.195 -1.2641 -0.3087  0.8514
   59CHL1    C5 6780   6.175   2.795   9.990  0.1085 -0.0914  0.0334
   59CHL1    C6 6781   6.239   2.892   9.930  0.7158 -0.9119  0.4135
   59CHL1    H6 6782   6.278   2.980   9.982  1.1390 -0.3730 -0.7955
   59CHL1    C7 6783   6.253   2.907   9.783  0.4670  0.0176  0.3901
   59CHL1   H7A 6784   6.222   3.010   9.754  0.5217  0.7579  2.8050
   59CHL1   H7B 6785   6.361   2.908   9.758  0.6777 -2.5993  0.9451
   59CHL1    C8 6786   6.175   2.799   9.696 -0.9124 -0.1604 -0.0115
   59CHL1    H8 6787   6.071   2.837   9.681 -1.5112 -1.8386 -0.2955
   59CHL1   C14 6788   6.258   2.789   9.565  0.2538  0.4319 -0.1509
   59CHL1   H14 6789   6.361   2.752   9.581  1.0883  2.2464 -1.0658
   59CHL1   C15 6790   6.284   2.909   9.486 -0.2710  0.0286  0.5674
   59CHL1  H15A 6791   6.197   2.978   9.477 -0.0425  0.2099 -0.3261
   59CHL1  H15B 6792   6.370   2.970   9.521 -0.2556  1.0187 -1.0518
   59CHL1   C16 6793   6.318   2.859   9.340  0.5629  0.3326  0.3503
   59CHL1  H16A 6794   6.238   2.890   9.269  1.4015 -2.3935 -1.9928
   59CHL1  H16B 6795   6.412   2.903   9.301  0.0217  0.4578 -0.8699
   59CHL1   C17 6796   6.301   2.707   9.349  0.1334  0.1345  0.2627
   59CHL1   H17 6797   6.396   2.664   9.388  0.0227  1.0769  1.6459
   59CHL1   C13 6798   6.203   2.681   9.471  0.6056 -0.4526 -0.0722
   59CHL1   C18 6799   6.059   2.719   9.432 -0.2462  0.7559 -0.8047
   59CHL1  H18A 6800   5.995   2.719   9.523  1.6211  0.8248  0.5672
   59CHL1  H18B 6801   6.066   2.821   9.387  1.6745  0.7548 -0.6201
   59CHL1  H18C 6802   6.017   2.644   9.362  0.7448  0.1056 -0.7173
   59CHL1   C12 6803   6.205   2.547   9.536  0.3036 -0.3136 -0.7815
   59CHL1  H12A 6804   6.167   2.463   9.475 -2.7694  1.0778 -0.9326
   59CHL1  H12B 6805   6.311   2.525   9.562  0.4483  0.6202 -0.5419
   59CHL1   C11 6806   6.131   2.559   9.672 -0.2115 -0.0024  0.0064
   59CHL1  H11A 6807   6.020   2.567   9.664 -0.6818 -0.0721  4.1854
   59CHL1  H11B 6808   6.146   2.463   9.726  0.7583  1.2862  2.1521
   59CHL1    C9 6809   6.187   2.666   9.768  0.4202  0.0361  0.0591
   59CHL1    H9 6810   6.298   2.658   9.766  0.4407 -0.0903  1.1897
   59CHL1   C10 6811   6.133   2.673   9.913 -0.1104  0.9022 -0.1270
   59CHL1   C19 6812   5.980   2.662   9.914  0.0729 -0.6992  0.4700
   59CHL1  H19A 6813   5.940   2.640  10.015 -0.1466  1.0895  0.8097
   59CHL1  H19B 6814   5.939   2.764   9.895  0.6919 -0.3058  1.1995
   59CHL1  H19C 6815   5.943   2.578   9.851 -0.7139 -1.0346  1.3597
   59CHL1    C1 6816   6.185   2.541   9.982  0.1805  0.3236  0.0146
   59CHL1   H1A 6817   6.133   2.459   9.928  0.1289  0.1676  0.3014
   59CHL1   H1B 6818   6.294   2.523   9.972  0.2528  0.2160  0.9100
   59CHL1    C2 6819   6.171   2.539  10.138 -0.2325  0.3719  0.4024
   59CHL1   H2A 6820   6.238   2.462  10.182  0.9153  0.9826 -0.2372
   59CHL1   H2B 6821   6.067   2.520  10.171 -0.2327  0.1465  0.2821
   59CHL1   C20 6822   6.259   2.647   9.210 -0.0177 -0.0462  0.0617
   59CHL1   H20 6823   6.171   2.705   9.175 -1.9708 -0.8146  3.2625
   59CHL1   C21 6824   6.221   2.502   9.217 -0.5942  0.2570  0.4953
   59CHL1  H21A 6825   6.290   2.439   9.277 -2.1716 -1.8728  0.1739
   59CHL1  H21B 6826   6.216   2.460   9.115 -1.4653  1.6513 -0.0538
   59CHL1  H21C 6827   6.120   2.491   9.262 -0.3352 -3.3835  0.4801
   59CHL1   C22 6828   6.375   2.678   9.107  0.4051  0.7658  0.6587
   59CHL1  H22A 6829   6.426   2.774   9.128 -0.3555  0.8973  2.0082
   59CHL1  H22B 6830   6.445   2.591   9.107 -1.5776 -0.9515 -1.1442
   59CHL1   C23 6831   6.321   2.685   8.964 -0.0820  0.1746  0.7122
   59CHL1  H23A 6832   6.283   2.584   8.940  1.3793 -0.3670  0.5983
   59CHL1  H23B 6833   6.240   2.758   8.983 -0.7163 -0.4350  0.3725
   59CHL1   C24 6834   6.420   2.721   8.858  0.1844  0.2222  0.8830
   59CHL1  H24A 6835   6.382   2.684   8.760  0.6711  2.2563 -0.1339
   59CHL1  H24B 6836   6.441   2.829   8.846  2.8541 -0.4839 -2.5720
   59CHL1   C25 6837   6.564   2.665   8.864  0.6059 -0.3114 -0.1805
   59CHL1   H25 6838   6.599   2.697   8.965 -0.7417  1.4241 -0.2259
   59CHL1   C26 6839   6.563   2.516   8.855  0.1301  0.1007 -0.6539
   59CHL1  H26A 6840   6.669   2.485   8.842  0.3476 -1.0407  2.7276
   59CHL1  H26B 6841   6.522   2.476   8.951 -0.2667  0.7663 -0.5421
   59CHL1  H26C 6842   6.500   2.492   8.766  0.6618  0.8658 -1.2512
   59CHL1   C27 6843   6.655   2.728   8.759  0.2060 -0.4944  0.6660
   59CHL1  H27A 6844   6.626   2.835   8.749  0.1670 -0.5156  0.5481
   59CHL1  H27B 6845   6.762   2.717   8.785  0.7645 -1.8673 -1.8609
   59CHL1  H27C 6846   6.636   2.676   8.663  0.3786  1.9073 -0.7717
   60CHL1    C3 6847   5.362   0.399  10.549 -0.1654 -0.0386 -0.1060
   60CHL1    H3 6848   5.410   0.497  10.530  0.9448 -0.5396  0.0507
   60CHL1    O3 6849   5.332   0.399  10.686  0.3696 -1.0346 -0.6842
   60CHL1   H3' 6850   5.281   0.479  10.699  1.0542 -0.6975 -0.0199
   60CHL1    C4 6851   5.225   0.393  10.476 -0.4349  0.0992  0.0585
   60CHL1   H4A 6852   5.161   0.319  10.529 -1.5101  0.6919 -0.3843
   60CHL1   H4B 6853   5.187   0.495  10.495 -0.5994 -0.4338  2.9090
   60CHL1    C5 6854   5.232   0.360  10.327 -0.2570 -0.3395  0.1474
   60CHL1    C6 6855   5.171   0.441  10.235 -0.1085 -0.3725 -0.4457
   60CHL1    H6 6856   5.110   0.525  10.271 -0.0555 -0.7041  0.4626
   60CHL1    C7 6857   5.181   0.410  10.088  0.4334  0.3689  0.7300
   60CHL1   H7A 6858   5.079   0.420  10.045  0.6423 -1.3300 -0.2152
   60CHL1   H7B 6859   5.229   0.500  10.044 -1.8913  0.6353 -1.5280
   60CHL1    C8 6860   5.235   0.275  10.044  0.3509 -0.8110  0.1959
   60CHL1    H8 6861   5.158   0.198  10.061  1.4520 -2.3085 -1.2814
   60CHL1   C14 6862   5.276   0.288   9.901 -0.5060  0.7471 -0.2188
   60CHL1   H14 6863   5.369   0.349   9.909  0.8256 -1.1288 -0.6803
   60CHL1   C15 6864   5.185   0.361   9.806  0.2568  0.7001  0.3045
   60CHL1  H15A 6865   5.087   0.311   9.795  0.4164  0.6192 -0.8625
   60CHL1  H15B 6866   5.176   0.471   9.816 -0.3708  1.0243 -2.8804
   60CHL1   C16 6867   5.250   0.307   9.671  0.0229 -0.0590  0.4510
   60CHL1  H16A 6868   5.172   0.250   9.617  1.7898 -2.7582  0.5571
   60CHL1  H16B 6869   5.302   0.387   9.614  1.6505 -0.8210  0.7974
   60CHL1   C17 6870   5.360   0.199   9.706  0.3942  0.1400 -0.8775
   60CHL1   H17 6871   5.450   0.263   9.721 -0.0537  0.7618 -0.8197
   60CHL1   C13 6872   5.330   0.157   9.844  0.3380 -0.3779 -0.1016
   60CHL1   C18 6873   5.217   0.052   9.851 -0.0954  0.4864 -0.2076
   60CHL1  H18A 6874   5.203   0.021   9.957 -1.8158 -0.5527 -0.7013
   60CHL1  H18B 6875   5.128   0.089   9.796 -0.7728 -0.2316  0.3628
   60CHL1  H18C 6876   5.264  -0.030   9.792 -0.5726  1.4754 -2.0036
   60CHL1   C12 6877   5.454   0.106   9.926  0.5468  0.1297  0.2122
   60CHL1  H12A 6878   5.490   0.008   9.888  4.3694  1.5858 -0.3887
   60CHL1  H12B 6879   5.539   0.176   9.907 -0.1609  0.3838 -2.3539
   60CHL1   C11 6880   5.432   0.108  10.079  0.4940 -0.2336  0.5277
   60CHL1  H11A 6881   5.373   0.019  10.110 -1.4083  1.5206  2.2028
   60CHL1  H11B 6882   5.527   0.116  10.135  0.5951 -1.8315  0.6440
   60CHL1    C9 6883   5.362   0.240  10.131  0.3563  1.0907  0.6977
   60CHL1    H9 6884   5.439   0.315  10.106  1.6489 -1.3746 -3.9280
   60CHL1   C10 6885   5.334   0.246  10.279 -0.1309 -0.0032 -0.3337
   60CHL1   C19 6886   5.265   0.114  10.337  0.0944 -0.1821  0.0867
   60CHL1  H19A 6887   5.181   0.083  10.272 -0.4762  1.3155  0.0654
   60CHL1  H19B 6888   5.344   0.036  10.347  1.0148  0.6096 -0.8660
   60CHL1  H19C 6889   5.235   0.131  10.443 -1.4746 -3.6987  0.3559
   60CHL1    C1 6890   5.467   0.273  10.362  0.0892 -0.0337 -0.0438
   60CHL1   H1A 6891   5.545   0.195  10.347  0.1802  0.2132 -0.9310
   60CHL1   H1B 6892   5.504   0.371  10.323  1.4663  0.6458  2.7243
   60CHL1    C2 6893   5.454   0.286  10.515 -0.0905 -0.7982  0.3305
   60CHL1   H2A 6894   5.558   0.300  10.549  0.9475 -2.4762 -1.9053
   60CHL1   H2B 6895   5.400   0.199  10.560 -0.7880 -0.8318 -0.5322
   60CHL1   C20 6896   5.391   0.104   9.595 -0.6632 -0.3035 -0.7222
   60CHL1   H20 6897   5.324   0.016   9.606  0.4711 -1.1210 -0.1435
   60CHL1   C21 6898   5.538   0.068   9.615 -0.5943  0.0752 -0.0610
   60CHL1  H21A 6899   5.598   0.151   9.572  0.6258 -0.2749  0.8841
   60CHL1  H21B 6900   5.573  -0.021   9.558 -1.2837  0.7908 -1.6412
   60CHL1  H21C 6901   5.577   0.054   9.719  0.3397  2.0409 -0.0961
   60CHL1   C22 6902   5.360   0.147   9.454 -0.2683 -0.0115  0.7891
   60CHL1  H22A 6903   5.251   0.160   9.437  0.2490  2.2018 -1.2992
   60CHL1  H22B 6904   5.411   0.242   9.427  0.8774 -0.5928  0.8403
   60CHL1   C23 6905   5.416   0.048   9.349  0.4011 -0.0855  0.0050
   60CHL1  H23A 6906   5.527   0.041   9.349  0.4407 -0.2403 -2.5708
   60CHL1  H23B 6907   5.383  -0.055   9.378  0.7834 -0.0651  0.5396
   60CHL1   C24 6908   5.385   0.077   9.205  0.2662 -0.0884  0.3532
   60CHL1  H24A 6909   5.277   0.065   9.181  0.2365  0.2198  0.3295
   60CHL1  H24B 6910   5.420   0.181   9.192  1.5492 -0.3722  1.3331
   60CHL1   C25 6911   5.461  -0.025   9.111  0.1452  0.4217 -0.3418
   60CHL1   H25 6912   5.452  -0.125   9.159  2.9819  0.8620  1.3612
   60CHL1   C26 6913   5.386  -0.039   8.978 -0.7205  0.0608 -0.1674
   60CHL1  H26A 6914   5.401   0.060   8.930 -0.0248 -0.1656 -0.4308
   60CHL1  H26B 6915   5.435  -0.114   8.913 -1.5738  1.0520 -2.0427
   60CHL1  H26C 6916   5.279  -0.070   8.985 -1.0042  1.0327  0.0813
   60CHL1   C27 6917   5.609   0.013   9.081  0.4288 -0.3770 -0.5728
   60CHL1  H27A 6918   5.615   0.091   9.003 -3.1035  0.9035  0.2692
   60CHL1  H27B 6919   5.653   0.041   9.179 -2.8639  1.6809  0.4743
   60CHL1  H27C 6920   5.660  -0.075   9.035 -0.6652 -0.0242 -2.5382
   61CHL1    C3 6921   2.299   0.849  10.473  0.4787  0.1288 -0.5374
   61CHL1    H3 6922   2.280   0.741  10.463 -0.7976  0.3540 -0.6909
   61CHL1    O3 6923   2.295   0.883  10.617  0.4165  0.2741  0.7584
   61CHL1   H3' 6924   2.292   0.979  10.611 -2.1865  0.1694 -2.0350
   61CHL1    C4 6925   2.428   0.904  10.414 -0.0729  0.3538 -0.4162
   61CHL1   H4A 6926   2.449   1.008  10.448 -1.3412  1.7875 -3.6528
   61CHL1   H4B 6927   2.510   0.849  10.466  2.5162  1.4097 -3.0677
   61CHL1    C5 6928   2.429   0.888  10.267  0.8157 -0.8500  0.1672
   61CHL1    C6 6929   2.524   0.816  10.200  0.7082  0.0061 -0.8046
   61CHL1    H6 6930   2.604   0.776  10.264 -2.1167 -0.4130  2.8402
   61CHL1    C7 6931   2.526   0.806  10.049 -0.1321  0.8147  0.5774
   61CHL1   H7A 6932   2.627   0.806  10.003 -0.6444  1.0223 -0.6087
   61CHL1   H7B 6933   2.479   0.709  10.023  0.9728  0.3216  0.3583
   61CHL1    C8 6934   2.440   0.919   9.985 -0.3291  0.1309 -0.0239
   61CHL1    H8 6935   2.497   1.014   9.991  0.1073 -0.1647  0.8140
   61CHL1   C14 6936   2.428   0.899   9.835 -0.2095  0.8712 -0.6585
   61CHL1   H14 6937   2.359   0.812   9.824  0.6913  0.1472 -0.6972
   61CHL1   C15 6938   2.557   0.875   9.755 -0.3953  0.2628 -0.2027
   61CHL1  H15A 6939   2.631   0.948   9.795 -0.0848 -1.3214  2.3122
   61CHL1  H15B 6940   2.597   0.772   9.754 -1.6101 -0.2588 -2.5056
   61CHL1   C16 6941   2.515   0.905   9.612  0.3290  0.3683  0.1381
   61CHL1  H16A 6942   2.591   0.982   9.587  2.4401 -1.1119  1.5552
   61CHL1  H16B 6943   2.523   0.812   9.552 -1.4528  0.7246 -0.7202
   61CHL1   C17 6944   2.373   0.964   9.614  0.7013  0.0012 -0.1054
   61CHL1   H17 6945   2.302   0.880   9.600 -0.5021  1.1981 -1.5130
   61CHL1   C13 6946   2.359   1.010   9.764 -0.0644  0.0258 -0.2348
   61CHL1   C18 6947   2.429   1.147   9.765 -0.2568 -0.0608 -0.4761
   61CHL1  H18A 6948   2.442   1.180   9.870 -0.9944 -0.8107 -0.1438
   61CHL1  H18B 6949   2.521   1.157   9.703 -0.7353 -0.4792 -1.2713
   61CHL1  H18C 6950   2.372   1.229   9.716  1.3745 -0.6911 -3.6896
   61CHL1   C12 6951   2.214   1.017   9.815 -0.3173 -0.1036  0.5632
   61CHL1  H12A 6952   2.163   1.112   9.788 -1.2536 -0.7029  0.1782
   61CHL1  H12B 6953   2.151   0.932   9.780 -0.3525  0.4733 -0.8140
   61CHL1   C11 6954   2.215   1.036   9.968 -0.8061  1.0326  0.4365
   61CHL1  H11A 6955   2.240   1.142   9.987 -1.6330  0.9741  2.0678
   61CHL1  H11B 6956   2.110   1.017  10.000 -1.2249  1.1883 -0.8101
   61CHL1    C9 6957   2.301   0.931  10.046  0.3529 -0.6883 -0.7022
   61CHL1    H9 6958   2.264   0.827  10.033 -2.1827 -0.3664  2.5668
   61CHL1   C10 6959   2.315   0.966  10.200 -0.0901 -0.0098 -0.7456
   61CHL1   C19 6960   2.326   1.119  10.223  0.0285 -0.6791 -0.8379
   61CHL1  H19A 6961   2.414   1.158  10.167  0.1952 -0.5280 -0.4710
   61CHL1  H19B 6962   2.240   1.178  10.184 -0.0999 -0.1937  0.1526
   61CHL1  H19C 6963   2.340   1.143  10.331 -1.2694 -0.4755 -0.7013
   61CHL1    C1 6964   2.174   0.923  10.262 -0.4383 -0.3009 -0.1370
   61CHL1   H1A 6965   2.087   0.984  10.229 -0.1022  0.4957  0.4287
   61CHL1   H1B 6966   2.158   0.817  10.232  1.5998 -0.7004  0.0587
   61CHL1    C2 6967   2.179   0.925  10.417 -0.1053 -0.1168  0.8551
   61CHL1   H2A 6968   2.091   0.878  10.465 -0.7525  2.8846  2.8775
   61CHL1   H2B 6969   2.183   1.031  10.450  3.2299  0.1003  0.0549
   61CHL1   C20 6970   2.349   1.069   9.505  0.1095 -0.2512  0.6338
   61CHL1   H20 6971   2.401   1.163   9.531  1.0485 -0.2999 -0.9577
   61CHL1   C21 6972   2.201   1.096   9.481  0.6475 -0.1613  0.0724
   61CHL1  H21A 6973   2.143   1.013   9.435  0.0715 -0.0141  0.5160
   61CHL1  H21B 6974   2.186   1.185   9.416 -0.4651 -1.1835 -1.1072
   61CHL1  H21C 6975   2.148   1.115   9.577  0.5605  2.4502 -0.4180
   61CHL1   C22 6976   2.412   1.022   9.367  0.6269 -0.1943  0.2755
   61CHL1  H22A 6977   2.391   1.108   9.299  1.4182  0.1022  0.3846
   61CHL1  H22B 6978   2.523   1.024   9.377  0.5719 -1.7458  1.5289
   61CHL1   C23 6979   2.360   0.890   9.315  0.2934 -0.2527 -0.3623
   61CHL1  H23A 6980   2.405   0.813   9.382  1.0834  1.8963  1.7336
   61CHL1  H23B 6981   2.250   0.878   9.314 -0.1082  2.3252  1.2028
   61CHL1   C24 6982   2.422   0.859   9.178  0.8369  0.4648  0.0482
   61CHL1  H24A 6983   2.417   0.950   9.116 -1.9077  0.1325 -0.3413
   61CHL1  H24B 6984   2.530   0.849   9.201  0.8052 -0.9271 -0.3403
   61CHL1   C25 6985   2.386   0.731   9.107 -0.2890 -0.1027 -0.3042
   61CHL1   H25 6986   2.276   0.730   9.091 -0.5634 -0.8923  1.4450
   61CHL1   C26 6987   2.468   0.707   8.979  0.1566 -0.5830  0.9107
   61CHL1  H26A 6988   2.431   0.622   8.918 -1.0508 -0.4854  1.4748
   61CHL1  H26B 6989   2.452   0.788   8.905 -1.6752 -2.2826 -0.6505
   61CHL1  H26C 6990   2.576   0.690   9.003  0.8935 -2.6450 -3.1060
   61CHL1   C27 6991   2.430   0.607   9.188 -0.8701  0.3252 -0.3029
   61CHL1  H27A 6992   2.368   0.593   9.279  0.2083 -0.0356  0.3906
   61CHL1  H27B 6993   2.448   0.527   9.113  4.0499  0.2227  0.6384
   61CHL1  H27C 6994   2.534   0.620   9.225 -0.8488 -1.4931  0.3762
   62CHL1    C3 6995   3.906   4.488   9.881  0.4642  0.2851  0.4775
   62CHL1    H3 6996   3.992   4.419   9.881  0.4865  0.2342 -1.7173
   62CHL1    O3 6997   3.892   4.549  10.005  0.2317 -0.1112 -0.3223
   62CHL1   H3' 6998   3.827   4.618   9.995  1.2108  0.6534 -1.7372
   62CHL1    C4 6999   3.928   4.606   9.784  0.0475  0.0077  0.3813
   62CHL1   H4A 7000   3.846   4.681   9.777  0.1514  0.0081 -1.0872
   62CHL1   H4B 7001   4.014   4.667   9.820 -1.0065  1.2924  0.7894
   62CHL1    C5 7002   3.941   4.551   9.634 -0.2838 -0.4912 -1.0604
   62CHL1    C6 7003   4.055   4.555   9.575  0.3861 -0.2782  0.3456
   62CHL1    H6 7004   4.139   4.613   9.617 -0.8096  0.1674  2.2741
   62CHL1    C7 7005   4.088   4.499   9.437 -0.3480 -0.9814 -0.0650
   62CHL1   H7A 7006   4.163   4.564   9.387 -0.0847 -1.5652 -0.4355
   62CHL1   H7B 7007   4.139   4.401   9.446  1.1350 -0.3523 -1.3100
   62CHL1    C8 7008   3.953   4.481   9.364  0.2966 -0.0780  0.3337
   62CHL1    H8 7009   3.903   4.578   9.342  0.0883 -0.5403 -1.3660
   62CHL1   C14 7010   3.986   4.408   9.230 -0.0774  0.6980  0.3059
   62CHL1   H14 7011   4.034   4.313   9.263 -1.1284 -0.1334 -0.4917
   62CHL1   C15 7012   4.076   4.477   9.132  0.0350 -0.2690  0.0413
   62CHL1  H15A 7013   4.045   4.583   9.136  2.7397  0.6598 -1.1602
   62CHL1  H15B 7014   4.184   4.465   9.156  0.3224  0.1876 -1.0041
   62CHL1   C16 7015   4.038   4.405   9.003 -0.0564  0.0102 -0.2636
   62CHL1  H16A 7016   4.002   4.478   8.927  0.3377  2.4369  1.7446
   62CHL1  H16B 7017   4.122   4.341   8.969 -0.8616 -1.2280  0.0019
   62CHL1   C17 7018   3.928   4.298   9.028 -0.4875 -0.2547 -0.5159
   62CHL1   H17 7019   3.980   4.208   9.066  3.0700  2.6079  2.1670
   62CHL1   C13 7020   3.859   4.360   9.147  0.4363  0.3387  0.2060
   62CHL1   C18 7021   3.777   4.484   9.098 -0.0311  0.4860 -1.0218
   62CHL1  H18A 7022   3.676   4.447   9.071 -0.6610 -1.8110  3.4484
   62CHL1  H18B 7023   3.760   4.558   9.179  0.6969  0.2618 -0.6583
   62CHL1  H18C 7024   3.830   4.538   9.018  1.6207 -0.0744 -0.3490
   62CHL1   C12 7025   3.780   4.266   9.238  1.0985 -0.8299 -0.1086
   62CHL1  H12A 7026   3.683   4.236   9.193  0.2139  1.7262 -0.0765
   62CHL1  H12B 7027   3.841   4.177   9.267  1.3258  0.2507  3.1594
   62CHL1   C11 7028   3.731   4.340   9.369  1.0031  0.4667 -0.5946
   62CHL1  H11A 7029   3.660   4.422   9.346  1.6375  0.9392 -0.8947
   62CHL1  H11B 7030   3.673   4.271   9.435  3.0689  1.2487  2.2171
   62CHL1    C9 7031   3.856   4.396   9.450 -0.0249 -0.2056  0.2901
   62CHL1    H9 7032   3.914   4.304   9.471  0.7906  0.1181 -0.4686
   62CHL1   C10 7033   3.823   4.467   9.582 -0.7089 -0.4964 -0.2675
   62CHL1   C19 7034   3.714   4.571   9.563  0.4882  1.0874  0.0590
   62CHL1  H19A 7035   3.610   4.533   9.574  0.0035  2.2734 -0.1688
   62CHL1  H19B 7036   3.705   4.638   9.652 -1.8007  0.1651  0.5896
   62CHL1  H19C 7037   3.719   4.636   9.473  2.0506  1.3974  0.3415
   62CHL1    C1 7038   3.777   4.363   9.691 -1.1073  0.3399  0.2555
   62CHL1   H1A 7039   3.677   4.318   9.674 -1.3342  0.1938  1.8094
   62CHL1   H1B 7040   3.855   4.284   9.684 -0.3679  0.8369  2.2666
   62CHL1    C2 7041   3.780   4.407   9.843 -0.0462 -0.8671 -0.3662
   62CHL1   H2A 7042   3.778   4.319   9.911  0.8523  0.3668  1.3325
   62CHL1   H2B 7043   3.685   4.461   9.858 -0.2242 -1.1558 -0.4394
   62CHL1   C20 7044   3.847   4.259   8.901  0.0068  0.2732  1.0338
   62CHL1   H20 7045   3.791   4.341   8.852  1.2389  0.0877 -0.7724
   62CHL1   C21 7046   3.727   4.164   8.941  0.4121  0.7777  0.0980
   62CHL1  H21A 7047   3.652   4.232   8.987  1.1859  1.5973  0.1693
   62CHL1  H21B 7048   3.751   4.083   9.014 -0.7124  1.2435  1.0300
   62CHL1  H21C 7049   3.682   4.119   8.850  0.5518 -2.0265  1.3013
   62CHL1   C22 7050   3.939   4.198   8.791 -0.1911  0.4218 -0.4430
   62CHL1  H22A 7051   3.875   4.164   8.706  1.0008  0.2417 -1.2920
   62CHL1  H22B 7052   4.010   4.274   8.752  0.7142 -0.3726 -0.3776
   62CHL1   C23 7053   4.013   4.065   8.829 -0.0761  0.3000  0.1038
   62CHL1  H23A 7054   4.091   4.085   8.906  0.0043  0.2448  0.0365
   62CHL1  H23B 7055   3.941   3.992   8.871 -0.0634  0.6880  0.8152
   62CHL1   C24 7056   4.081   4.007   8.704  0.1662 -0.6788 -0.6995
   62CHL1  H24A 7057   4.131   4.097   8.661  0.1965  0.0519  0.7835
   62CHL1  H24B 7058   4.153   3.926   8.726 -0.3991 -1.0321 -0.1042
   62CHL1   C25 7059   3.984   3.935   8.608  0.1437 -0.3004  0.0499
   62CHL1   H25 7060   3.910   4.005   8.565  0.7322 -0.3188 -1.0492
   62CHL1   C26 7061   4.060   3.874   8.484 -0.0752  0.1510  0.2811
   62CHL1  H26A 7062   3.995   3.807   8.424  3.5380 -2.8526 -0.6308
   62CHL1  H26B 7063   4.106   3.949   8.416  0.1414  0.7550  1.0842
   62CHL1  H26C 7064   4.143   3.806   8.512  1.3045 -0.2671 -4.0733
   62CHL1   C27 7065   3.897   3.826   8.684 -0.5012  0.1220  0.2509
   62CHL1  H27A 7066   3.948   3.758   8.755  0.3031 -0.3175 -0.7235
   62CHL1  H27B 7067   3.832   3.886   8.751 -1.3270  0.0688 -0.4841
   62CHL1  H27C 7068   3.838   3.761   8.616  0.0359  0.6116 -0.7073
   63CHL1    C3 7069   4.988   5.169  10.381 -0.3624 -0.4880  0.4726
   63CHL1    H3 7070   4.882   5.192  10.355  0.3116  1.5335 -0.7273
   63CHL1    O3 7071   5.004   5.158  10.517 -0.0978 -0.5390  0.7580
   63CHL1   H3' 7072   5.087   5.116  10.541  0.0212 -1.3595 -0.9160
   63CHL1    C4 7073   5.022   5.032  10.313 -0.2020  0.1038 -0.2795
   63CHL1   H4A 7074   5.123   5.016  10.357 -0.3939  0.1139  0.1777
   63CHL1   H4B 7075   4.946   4.961  10.353 -0.3292  0.2644 -0.2353
   63CHL1    C5 7076   5.028   5.020  10.165  0.4092 -0.4377  1.0221
   63CHL1    C6 7077   4.967   4.925  10.093 -0.3280 -0.6604 -0.0810
   63CHL1    H6 7078   4.908   4.852  10.150 -1.1685  0.5178  0.6171
   63CHL1    C7 7079   4.984   4.917   9.948 -0.0585  0.7394 -0.2579
   63CHL1   H7A 7080   5.000   4.808   9.931  0.0436  0.6998  0.0880
   63CHL1   H7B 7081   4.883   4.946   9.912 -1.6755 -1.6792  1.9469
   63CHL1    C8 7082   5.094   5.005   9.883  0.0777 -0.5427  0.4935
   63CHL1    H8 7083   5.189   4.950   9.903 -0.7324 -1.7859  1.0447
   63CHL1   C14 7084   5.058   5.012   9.736 -0.1683  0.2163 -0.1767
   63CHL1   H14 7085   4.974   5.084   9.736  0.8658  1.4900 -1.4781
   63CHL1   C15 7086   5.009   4.884   9.665  0.5348  0.1175  0.1990
   63CHL1  H15A 7087   5.084   4.808   9.695  0.6355  0.6939  1.4874
   63CHL1  H15B 7088   4.908   4.845   9.688  1.0202 -0.6396  1.1333
   63CHL1   C16 7089   5.020   4.930   9.519  0.3422  0.3331 -0.4888
   63CHL1  H16A 7090   5.077   4.856   9.459  0.4872 -0.3718  0.5047
   63CHL1  H16B 7091   4.922   4.945   9.470  0.0150 -2.4308 -0.8061
   63CHL1   C17 7092   5.105   5.071   9.519 -1.2428  0.1727  0.5392
   63CHL1   H17 7093   5.027   5.150   9.521 -1.9270 -0.4537 -0.2961
   63CHL1   C13 7094   5.165   5.084   9.660 -0.1512 -0.6695  0.2693
   63CHL1   C18 7095   5.294   5.002   9.665  0.8069  0.3682 -0.2114
   63CHL1  H18A 7096   5.367   5.037   9.589  0.6860 -1.7817 -1.3879
   63CHL1  H18B 7097   5.341   5.007   9.766 -0.5322  3.2774  0.3773
   63CHL1  H18C 7098   5.281   4.897   9.630 -1.5369  0.7264 -0.5697
   63CHL1   C12 7099   5.176   5.232   9.712  0.4512 -0.3861 -0.7799
   63CHL1  H12A 7100   5.264   5.287   9.675  1.0315  0.0174  1.0844
   63CHL1  H12B 7101   5.090   5.287   9.667  1.6565  0.5691 -1.9881
   63CHL1   C11 7102   5.195   5.231   9.867 -0.3615  0.3564 -1.0557
   63CHL1  H11A 7103   5.297   5.190   9.882  0.1508 -0.7172 -5.9214
   63CHL1  H11B 7104   5.197   5.335   9.907  2.9876 -0.8165  2.3831
   63CHL1    C9 7105   5.094   5.142   9.946  0.3900  0.5585 -0.8517
   63CHL1    H9 7106   4.989   5.174   9.930 -1.3053 -4.4644 -1.7871
   63CHL1   C10 7107   5.115   5.137  10.102 -0.3515  0.5885  0.0340
   63CHL1   C19 7108   5.265   5.107  10.137  0.3798  1.4381 -0.1678
   63CHL1  H19A 7109   5.318   5.202  10.115  0.8097  1.0412 -0.8966
   63CHL1  H19B 7110   5.286   5.088  10.245  2.8878 -0.8226 -0.9255
   63CHL1  H19C 7111   5.314   5.029  10.075 -2.1777 -1.3742  1.0854
   63CHL1    C1 7112   5.071   5.272  10.168 -0.3120  0.2729 -0.2730
   63CHL1   H1A 7113   5.131   5.353  10.121  0.3816 -0.2749 -0.3547
   63CHL1   H1B 7114   4.964   5.285  10.143 -1.2440 -3.0399  1.3543
   63CHL1    C2 7115   5.074   5.279  10.324 -0.1738  0.1442  0.9253
   63CHL1   H2A 7116   5.032   5.377  10.355 -2.3029 -0.0532 -1.0803
   63CHL1   H2B 7117   5.177   5.262  10.363 -0.2797 -0.8352  0.8030
   63CHL1   C20 7118   5.191   5.088   9.388  0.1045 -0.7892  0.3319
   63CHL1   H20 7119   5.273   5.013   9.385 -0.6890 -1.6264 -1.3050
   63CHL1   C21 7120   5.252   5.233   9.394  0.6110  0.5109 -0.4047
   63CHL1  H21A 7121   5.265   5.270   9.289  0.8512 -1.7893 -1.2404
   63CHL1  H21B 7122   5.351   5.231   9.444  1.0299  1.3927 -1.1671
   63CHL1  H21C 7123   5.181   5.305   9.440  2.4085  1.1198  1.5291
   63CHL1   C22 7124   5.099   5.082   9.263  0.2677 -0.3256 -0.0639
   63CHL1  H22A 7125   5.026   4.999   9.273 -0.7636  0.7289  1.8459
   63CHL1  H22B 7126   5.030   5.168   9.258 -0.8863 -1.1323  1.1826
   63CHL1   C23 7127   5.176   5.038   9.139 -1.0704 -0.5558 -0.0235
   63CHL1  H23A 7128   5.244   5.120   9.107 -0.6960 -0.6157  0.6123
   63CHL1  H23B 7129   5.249   4.955   9.148  0.2940  0.4837 -1.0065
   63CHL1   C24 7130   5.089   5.013   9.016  0.2883 -0.3331  0.0055
   63CHL1  H24A 7131   5.021   4.932   9.049  2.1389 -0.2107  4.8712
   63CHL1  H24B 7132   5.040   5.108   8.986 -1.8798 -1.2950  0.3477
   63CHL1   C25 7133   5.151   4.966   8.883 -0.0129 -0.8037 -0.0124
   63CHL1   H25 7134   5.231   5.040   8.859  0.6339 -0.4209  2.9876
   63CHL1   C26 7135   5.208   4.822   8.902 -0.4881 -0.3114 -0.1062
   63CHL1  H26A 7136   5.262   4.789   8.812  0.3718 -2.6688  1.1787
   63CHL1  H26B 7137   5.272   4.812   8.992 -2.3931 -1.2873  1.2250
   63CHL1  H26C 7138   5.117   4.758   8.903 -0.0591 -0.9416 -0.9164
   63CHL1   C27 7139   5.051   4.958   8.769  0.7669 -0.0774  0.8119
   63CHL1  H27A 7140   5.030   5.060   8.731 -2.3101 -0.7635  0.3716
   63CHL1  H27B 7141   5.091   4.884   8.697 -0.7086 -1.4019  1.2748
   63CHL1  H27C 7142   4.954   4.913   8.801  0.4270 -1.1777 -1.5950
   64CHL1    C3 7143   4.392   5.681   9.969 -0.2569  0.2078  0.0158
   64CHL1    H3 7144   4.352   5.784   9.979 -4.2639 -1.0881 -0.7060
   64CHL1    O3 7145   4.402   5.613  10.092  0.1065 -0.2500 -0.2694
   64CHL1   H3' 7146   4.318   5.630  10.137  0.1487  0.8086 -0.5519
   64CHL1    C4 7147   4.304   5.603   9.870  0.1341  0.6623 -0.0140
   64CHL1   H4A 7148   4.321   5.494   9.882  0.4708  0.8495  1.3792
   64CHL1   H4B 7149   4.203   5.620   9.915  0.9469 -0.2565  2.3282
   64CHL1    C5 7150   4.313   5.653   9.723 -0.6042  0.6090  0.1420
   64CHL1    C6 7151   4.203   5.681   9.644 -0.4368 -0.8223  0.0956
   64CHL1    H6 7152   4.102   5.664   9.684 -0.6376  0.9305  0.4007
   64CHL1    C7 7153   4.216   5.713   9.495 -0.5050  0.7535  0.5012
   64CHL1   H7A 7154   4.147   5.660   9.426  2.0145 -0.3541 -1.3474
   64CHL1   H7B 7155   4.186   5.818   9.476  0.4486  1.2205  1.4814
   64CHL1    C8 7156   4.354   5.691   9.435  0.1974  0.3709 -0.2953
   64CHL1    H8 7157   4.374   5.585   9.410  0.0554  0.2402  0.1462
   64CHL1   C14 7158   4.368   5.770   9.311 -0.6258 -0.2602  0.3651
   64CHL1   H14 7159   4.365   5.878   9.340  1.3384  0.2648 -1.1027
   64CHL1   C15 7160   4.258   5.753   9.199  0.2390 -0.3593 -0.3184
   64CHL1  H15A 7161   4.226   5.646   9.195  4.5746 -1.8718  0.0563
   64CHL1  H15B 7162   4.168   5.815   9.218  0.2103 -0.9604  1.7091
   64CHL1   C16 7163   4.322   5.788   9.067  0.0273 -0.2442  0.1085
   64CHL1  H16A 7164   4.321   5.700   8.999 -3.2914  1.8663 -2.8941
   64CHL1  H16B 7165   4.280   5.881   9.023  0.9794  0.4131  0.5332
   64CHL1   C17 7166   4.473   5.829   9.104  0.5746  0.6074 -0.0839
   64CHL1   H17 7167   4.469   5.933   9.141  1.8862  0.2053  1.2692
   64CHL1   C13 7168   4.496   5.750   9.234 -0.3482  0.1985 -0.3636
   64CHL1   C18 7169   4.515   5.601   9.190  0.0683  0.0378 -0.1005
   64CHL1  H18A 7170   4.600   5.578   9.122 -1.1340  0.6225 -1.8590
   64CHL1  H18B 7171   4.528   5.535   9.279  1.9836 -0.7466 -0.8934
   64CHL1  H18C 7172   4.431   5.548   9.139 -0.3588 -0.2741  0.8969
   64CHL1   C12 7173   4.610   5.810   9.314  0.8457  0.5116 -0.0149
   64CHL1  H12A 7174   4.709   5.784   9.271  0.7120  0.6183 -0.3993
   64CHL1  H12B 7175   4.582   5.917   9.323 -1.7002  0.0475 -1.3925
   64CHL1   C11 7176   4.607   5.753   9.460  0.7175 -1.1191  0.7973
   64CHL1  H11A 7177   4.641   5.648   9.452  0.4756 -1.1638  0.2874
   64CHL1  H11B 7178   4.673   5.807   9.530 -1.8076  1.1687  1.5793
   64CHL1    C9 7179   4.459   5.743   9.532  0.3192 -1.0467  0.3100
   64CHL1    H9 7180   4.434   5.849   9.553  1.7463 -0.3121 -1.4069
   64CHL1   C10 7181   4.456   5.668   9.663 -0.2210 -0.2215  0.2273
   64CHL1   C19 7182   4.503   5.522   9.644  0.3388 -0.9699  0.0919
   64CHL1  H19A 7183   4.610   5.516   9.616  0.3292 -1.3445  0.1246
   64CHL1  H19B 7184   4.477   5.467   9.737 -1.6640  0.3673  0.3888
   64CHL1  H19C 7185   4.443   5.479   9.561 -1.6177 -0.5072  1.2033
   64CHL1    C1 7186   4.539   5.746   9.763  0.0866 -0.1715  0.0294
   64CHL1   H1A 7187   4.645   5.747   9.729 -0.2202 -0.9309 -1.0211
   64CHL1   H1B 7188   4.493   5.844   9.787 -0.3702 -0.2882 -0.3394
   64CHL1    C2 7189   4.533   5.691   9.910 -0.0334  0.2211  0.2483
   64CHL1   H2A 7190   4.590   5.760   9.975 -0.5998 -0.7034  1.7806
   64CHL1   H2B 7191   4.582   5.591   9.921 -0.8599 -0.2069  0.1301
   64CHL1   C20 7192   4.575   5.823   8.994 -0.4332 -0.4895 -0.5413
   64CHL1   H20 7193   4.618   5.721   8.992 -1.2754 -0.8477 -0.8981
   64CHL1   C21 7194   4.685   5.931   9.018 -0.1608 -0.2354 -0.0023
   64CHL1  H21A 7195   4.692   5.962   9.124  0.5650  0.2941 -0.1973
   64CHL1  H21B 7196   4.646   6.025   8.972 -2.5103 -0.8686  0.5634
   64CHL1  H21C 7197   4.784   5.898   8.980 -0.9086 -0.8448 -1.5070
   64CHL1   C22 7198   4.512   5.837   8.850  0.1252 -0.1491 -0.4050
   64CHL1  H22A 7199   4.446   5.749   8.832  0.5282 -1.0305  2.0379
   64CHL1  H22B 7200   4.441   5.923   8.844  0.6820  0.5963  2.4502
   64CHL1   C23 7201   4.626   5.848   8.743 -0.3044  0.2081  0.2113
   64CHL1  H23A 7202   4.697   5.931   8.765 -0.5201 -0.2181  2.7334
   64CHL1  H23B 7203   4.685   5.754   8.739  1.2819  1.1873 -0.5050
   64CHL1   C24 7204   4.549   5.874   8.605  0.4147 -0.4869 -0.9828
   64CHL1  H24A 7205   4.482   5.788   8.580 -0.9495  0.2133  0.1033
   64CHL1  H24B 7206   4.479   5.955   8.635  0.7494 -0.2096 -0.9473
   64CHL1   C25 7207   4.630   5.904   8.481 -0.3299 -1.4856  0.2945
   64CHL1   H25 7208   4.707   5.826   8.461  0.0268 -1.2004  0.5227
   64CHL1   C26 7209   4.535   5.881   8.356 -0.3155 -0.4484  0.0690
   64CHL1  H26A 7210   4.600   5.916   8.273  1.6611  0.1050  1.7702
   64CHL1  H26B 7211   4.506   5.775   8.343 -1.4586 -0.0963 -0.3900
   64CHL1  H26C 7212   4.445   5.947   8.356 -0.0884 -0.1236  0.7189
   64CHL1   C27 7213   4.706   6.039   8.475 -0.4688  0.0007  0.5575
   64CHL1  H27A 7214   4.785   6.049   8.552  0.8708  1.4455 -0.9426
   64CHL1  H27B 7215   4.757   6.050   8.377 -0.1547  0.0062  0.7215
   64CHL1  H27C 7216   4.640   6.129   8.473 -1.1478 -0.4668  1.4286
   65CHL1    C3 7217   0.152   2.652  10.292 -0.0204 -0.2681 -0.8025
   65CHL1    H3 7218   0.110   2.552  10.266 -2.1354  0.0556  1.0558
   65CHL1    O3 7219   0.105   2.690  10.424 -0.3317  0.2223 -0.5079
   65CHL1   H3' 7220   0.119   2.785  10.432 -2.8044  0.5499  0.7096
   65CHL1    C4 7221   0.304   2.671  10.287 -0.2140 -0.3498  0.4124
   65CHL1   H4A 7222   0.324   2.771  10.333 -2.6505  1.0518 -1.3706
   65CHL1   H4B 7223   0.352   2.592  10.348  2.4033  1.3574  0.7378
   65CHL1    C5 7224   0.365   2.672  10.149  0.4268 -0.2790 -0.0242
   65CHL1    C6 7225   0.455   2.581  10.105  0.1415 -0.1519  0.4144
   65CHL1    H6 7226   0.479   2.499  10.174  3.2655 -0.5468 -1.0029
   65CHL1    C7 7227   0.523   2.590   9.970 -0.3890 -0.2578 -0.2764
   65CHL1   H7A 7228   0.633   2.579   9.970  0.0012  2.9152  0.2286
   65CHL1   H7B 7229   0.484   2.498   9.921 -0.5252  0.4890 -1.6193
   65CHL1    C8 7230   0.489   2.722   9.887  0.5118 -1.5813  0.2573
   65CHL1    H8 7231   0.559   2.797   9.928 -0.8012  1.1212 -2.0419
   65CHL1   C14 7232   0.518   2.702   9.733 -0.1489 -0.5195 -0.3346
   65CHL1   H14 7233   0.452   2.617   9.708 -0.8484 -1.1272  3.1111
   65CHL1   C15 7234   0.657   2.659   9.700 -0.5651 -0.0204 -0.2473
   65CHL1  H15A 7235   0.726   2.727   9.754 -2.2523  1.6688 -0.1465
   65CHL1  H15B 7236   0.682   2.553   9.722  1.1870  0.1480 -1.2229
   65CHL1   C16 7237   0.658   2.688   9.549  0.7254  0.3349 -0.2531
   65CHL1  H16A 7238   0.756   2.739   9.536  1.3116 -0.6459  0.2079
   65CHL1  H16B 7239   0.662   2.592   9.495 -1.1809  0.5812 -0.9026
   65CHL1   C17 7240   0.535   2.779   9.516  0.1417 -0.1382 -0.0738
   65CHL1   H17 7241   0.446   2.717   9.490 -0.6463  0.0063  2.0816
   65CHL1   C13 7242   0.494   2.833   9.646  0.0413  0.2804  0.2684
   65CHL1   C18 7243   0.587   2.948   9.694 -1.1516 -0.0081  0.3216
   65CHL1  H18A 7244   0.567   2.973   9.801 -4.3935  2.0834 -0.6056
   65CHL1  H18B 7245   0.696   2.928   9.692 -1.2622 -0.9555  1.8603
   65CHL1  H18C 7246   0.570   3.036   9.629 -1.7162  2.0532  3.0570
   65CHL1   C12 7247   0.342   2.862   9.651 -0.6420 -0.0140  0.2388
   65CHL1  H12A 7248   0.315   2.958   9.603  0.6765 -0.0029 -0.5035
   65CHL1  H12B 7249   0.280   2.784   9.601  0.6229  0.1216 -1.6064
   65CHL1   C11 7250   0.304   2.879   9.800  0.2481 -0.4863 -0.3061
   65CHL1  H11A 7251   0.334   2.978   9.839 -3.2242  0.0502  1.3756
   65CHL1  H11B 7252   0.193   2.878   9.790  0.3781 -0.7773 -1.9168
   65CHL1    C9 7253   0.345   2.763   9.902  0.2150  0.4085  0.0909
   65CHL1    H9 7254   0.295   2.670   9.866  0.6189 -0.8605  2.5944
   65CHL1   C10 7255   0.297   2.775  10.053  0.1831 -0.2466 -0.1069
   65CHL1   C19 7256   0.330   2.923  10.094  0.7938  0.7564 -0.2543
   65CHL1  H19A 7257   0.272   2.992  10.030  0.1375  1.1538  0.7425
   65CHL1  H19B 7258   0.308   2.945  10.201 -0.1977 -2.1590  0.2284
   65CHL1  H19C 7259   0.436   2.949  10.076  0.5950  0.8536 -1.3236
   65CHL1    C1 7260   0.146   2.757  10.061 -0.6240  1.4778 -0.4991
   65CHL1   H1A 7261   0.094   2.838  10.005 -0.4895  0.4559 -2.1569
   65CHL1   H1B 7262   0.120   2.668  10.000  1.0303  0.2909  0.4591
   65CHL1    C2 7263   0.081   2.750  10.201 -0.3584 -0.0085  0.8269
   65CHL1   H2A 7264  -0.024   2.715  10.189 -0.3312  0.1016  0.2328
   65CHL1   H2B 7265   0.066   2.854  10.238 -0.9581  0.1471  0.1860
   65CHL1   C20 7266   0.566   2.866   9.399  0.3961  0.0764 -0.0560
   65CHL1   H20 7267   0.647   2.941   9.410  0.9431 -0.4932 -0.1126
   65CHL1   C21 7268   0.440   2.947   9.362 -0.1692 -0.3543  0.5164
   65CHL1  H21A 7269   0.355   2.879   9.337 -0.0330 -0.1476 -0.5728
   65CHL1  H21B 7270   0.457   3.010   9.272  0.0297  0.1653  0.9184
   65CHL1  H21C 7271   0.402   3.013   9.442  0.6836 -0.7563  1.2617
   65CHL1   C22 7272   0.614   2.778   9.282 -0.2107  0.1771 -0.6738
   65CHL1  H22A 7273   0.682   2.696   9.314  1.0403  1.6319  0.5425
   65CHL1  H22B 7274   0.528   2.718   9.246  1.0050 -1.7371 -0.5090
   65CHL1   C23 7275   0.681   2.856   9.168 -0.3438  0.0488 -0.1389
   65CHL1  H23A 7276   0.604   2.933   9.143 -0.2183  0.9851  2.0768
   65CHL1  H23B 7277   0.771   2.901   9.214 -0.0986 -1.3780  0.8513
   65CHL1   C24 7278   0.733   2.761   9.059  0.3387 -0.3633 -0.1063
   65CHL1  H24A 7279   0.817   2.703   9.102 -1.6642 -1.9823  1.8663
   65CHL1  H24B 7280   0.655   2.683   9.043 -0.6413 -0.5831  4.4671
   65CHL1   C25 7281   0.758   2.836   8.925  0.6403  0.1480  0.3506
   65CHL1   H25 7282   0.834   2.780   8.866  0.1351  0.9423 -1.1011
   65CHL1   C26 7283   0.623   2.827   8.845  0.4999 -0.3446 -0.4282
   65CHL1  H26A 7284   0.626   2.873   8.744 -2.6651  0.5852 -0.2234
   65CHL1  H26B 7285   0.600   2.720   8.822 -2.9166  0.1761 -0.0226
   65CHL1  H26C 7286   0.538   2.865   8.905 -0.0465 -0.7424 -0.9338
   65CHL1   C27 7287   0.812   2.980   8.936  0.1646 -0.3304  0.1606
   65CHL1  H27A 7288   0.905   2.983   8.997  1.1113  2.9823 -1.2619
   65CHL1  H27B 7289   0.826   3.029   8.838 -0.5577 -0.2988  0.0661
   65CHL1  H27C 7290   0.739   3.044   8.990 -1.9800 -1.0654 -1.6968
   66CHL1    C3 7291   5.774   6.177  10.302 -0.4320  0.4172  0.1499
   66CHL1    H3 7292   5.700   6.259  10.290  0.6807  1.5839  1.0629
   66CHL1    O3 7293   5.786   6.146  10.440 -0.0623  0.2930  0.1898
   66CHL1   H3' 7294   5.846   6.071  10.440 -0.5236 -0.1377 -1.8829
   66CHL1    C4 7295   5.718   6.057  10.223  0.3899  0.2981 -0.2021
   66CHL1   H4A 7296   5.782   5.967  10.238  1.4998  1.0760 -0.0884
   66CHL1   H4B 7297   5.618   6.031  10.262 -0.1558  0.8465 -1.2084
   66CHL1    C5 7298   5.710   6.088  10.072  0.2694 -0.0900 -0.2701
   66CHL1    C6 7299   5.598   6.102  10.005 -0.2972 -0.3032 -0.3782
   66CHL1    H6 7300   5.502   6.091  10.057  0.0191 -0.9431  0.0796
   66CHL1    C7 7301   5.592   6.107   9.858 -0.5122  0.6812 -0.2588
   66CHL1   H7A 7302   5.513   6.041   9.817  0.4173  0.2924 -1.4797
   66CHL1   H7B 7303   5.575   6.212   9.825  2.6479  1.8794  1.4823
   66CHL1    C8 7304   5.732   6.068   9.792 -0.2795 -0.2670  0.4460
   66CHL1    H8 7305   5.753   5.960   9.810  0.2464 -0.1077  0.8033
   66CHL1   C14 7306   5.729   6.109   9.645 -0.0916  0.5764  0.0069
   66CHL1   H14 7307   5.706   6.217   9.650 -1.0242  0.6431 -3.3954
   66CHL1   C15 7308   5.621   6.049   9.553  0.3316 -0.0149  0.6661
   66CHL1  H15A 7309   5.614   5.938   9.562 -0.8780 -0.0441 -0.2750
   66CHL1  H15B 7310   5.521   6.091   9.576 -0.2141 -0.3604 -0.9506
   66CHL1   C16 7311   5.670   6.077   9.407  0.4465  0.4572  0.0864
   66CHL1  H16A 7312   5.659   5.976   9.362  3.0115  0.0180  0.2804
   66CHL1  H16B 7313   5.598   6.155   9.374 -1.1871 -0.5076  1.2135
   66CHL1   C17 7314   5.812   6.138   9.422  0.0181  0.4240 -0.3003
   66CHL1   H17 7315   5.794   6.247   9.426  0.5106  0.5756 -1.6865
   66CHL1   C13 7316   5.861   6.092   9.565  0.0431 -0.6343 -0.1290
   66CHL1   C18 7317   5.909   5.942   9.568 -0.4483 -0.4217  0.3005
   66CHL1  H18A 7318   5.911   5.892   9.668 -0.6887 -2.4946 -0.6667
   66CHL1  H18B 7319   5.843   5.890   9.495  0.6600 -1.4358 -0.0184
   66CHL1  H18C 7320   6.017   5.940   9.543 -1.0224 -0.7239 -2.4433
   66CHL1   C12 7321   5.972   6.172   9.632 -0.0161 -0.4937 -0.3447
   66CHL1  H12A 7322   6.070   6.166   9.579 -0.2496 -1.3913 -0.6810
   66CHL1  H12B 7323   5.946   6.280   9.627 -1.8262 -0.8419  0.8254
   66CHL1   C11 7324   5.978   6.138   9.782  0.0696  0.1991  0.3395
   66CHL1  H11A 7325   6.014   6.033   9.783  0.7312  0.2662 -3.6245
   66CHL1  H11B 7326   6.055   6.210   9.819 -0.0742 -0.2983  1.6577
   66CHL1    C9 7327   5.847   6.154   9.863 -0.7243 -0.2873  0.0508
   66CHL1    H9 7328   5.818   6.261   9.862  0.0144 -0.0829 -0.3387
   66CHL1   C10 7329   5.852   6.111  10.016  0.6235 -0.1510  0.1942
   66CHL1   C19 7330   5.945   5.981  10.023  0.0893 -0.5174  0.4129
   66CHL1  H19A 7331   5.950   5.937  10.125  2.3927  0.6083  0.8330
   66CHL1  H19B 7332   5.908   5.902   9.954 -0.8507 -1.5916  2.0828
   66CHL1  H19C 7333   6.051   6.009  10.005  0.2676 -0.6568  1.2300
   66CHL1    C1 7334   5.925   6.222  10.093 -0.3911  0.2536 -0.1998
   66CHL1   H1A 7335   6.030   6.238  10.059 -0.8369  1.6241 -1.0016
   66CHL1   H1B 7336   5.871   6.316  10.065 -1.9740 -0.0711  1.5879
   66CHL1    C2 7337   5.918   6.220  10.248  0.1070 -0.6959  0.2650
   66CHL1   H2A 7338   5.949   6.317  10.292  0.3057 -0.1418 -1.0299
   66CHL1   H2B 7339   5.983   6.137  10.282 -1.5127 -2.1090  0.0700
   66CHL1   C20 7340   5.900   6.108   9.300  0.0918  0.2427 -0.1731
   66CHL1   H20 7341   6.004   6.089   9.334  0.6127 -0.0641 -1.8724
   66CHL1   C21 7342   5.914   6.244   9.222  0.8733 -0.3097  0.0384
   66CHL1  H21A 7343   5.814   6.279   9.188  0.4951 -0.7415  0.6688
   66CHL1  H21B 7344   5.987   6.233   9.139  3.2876 -0.6239  2.0895
   66CHL1  H21C 7345   5.947   6.326   9.289 -0.0399 -1.6821  2.2924
   66CHL1   C22 7346   5.856   5.985   9.212  0.1774  0.0939 -0.6717
   66CHL1  H22A 7347   5.841   5.900   9.282 -3.0768 -0.2709 -1.6733
   66CHL1  H22B 7348   5.767   6.008   9.151  0.2573 -0.8016 -1.1412
   66CHL1   C23 7349   5.961   5.948   9.102 -0.3662  0.0548  0.2058
   66CHL1  H23A 7350   5.970   6.023   9.020 -0.2373 -0.6228 -0.4029
   66CHL1  H23B 7351   6.063   5.929   9.141  0.2982 -0.1304 -1.5432
   66CHL1   C24 7352   5.909   5.818   9.039  0.1218  0.5150 -0.2797
   66CHL1  H24A 7353   5.880   5.743   9.115  0.2246 -0.9730 -1.6551
   66CHL1  H24B 7354   5.811   5.833   8.988  1.9701  0.0575 -4.3256
   66CHL1   C25 7355   5.990   5.750   8.929  0.2477  0.0433 -0.1787
   66CHL1   H25 7356   6.078   5.700   8.974 -0.7243 -0.3932  1.2955
   66CHL1   C26 7357   5.895   5.647   8.857  0.4284  0.2750 -0.3994
   66CHL1  H26A 7358   5.838   5.697   8.776 -0.0768  2.2697  1.1119
   66CHL1  H26B 7359   5.950   5.564   8.808 -0.0650 -0.0438 -0.4206
   66CHL1  H26C 7360   5.828   5.602   8.933  1.4117 -0.1280  0.2481
   66CHL1   C27 7361   6.044   5.840   8.825  0.1222  0.2879 -0.0022
   66CHL1  H27A 7362   6.104   5.783   8.752 -2.0150 -0.7342 -1.0541
   66CHL1  H27B 7363   5.963   5.886   8.763  1.4356  1.3007 -1.0174
   66CHL1  H27C 7364   6.093   5.930   8.869 -0.8307  0.5361  0.5916
   67CHL1    C3 7365   1.120   0.050   9.966 -0.2228  0.0732 -0.3101
   67CHL1    H3 7366   1.056  -0.032   9.926 -0.7487 -0.2220  1.0705
   67CHL1    O3 7367   1.164   0.017  10.107  0.0327  0.2260  0.7270
   67CHL1   H3' 7368   1.254   0.048  10.118  0.6196 -1.0664 -0.1720
   67CHL1    C4 7369   1.242   0.074   9.884 -0.4874  0.4284  0.4310
   67CHL1   H4A 7370   1.317   0.144   9.927  0.9934 -0.2559 -0.9356
   67CHL1   H4B 7371   1.306  -0.017   9.885 -0.8764  0.1400  2.4804
   67CHL1    C5 7372   1.210   0.121   9.740  0.0426 -0.7493  0.2938
   67CHL1    C6 7373   1.279   0.067   9.642  0.4726 -0.4821  0.3242
   67CHL1    H6 7374   1.356  -0.010   9.653  1.2445 -0.0870 -1.9269
   67CHL1    C7 7375   1.270   0.114   9.507 -0.1348  0.1154 -0.1903
   67CHL1   H7A 7376   1.370   0.150   9.475  0.1465  0.4448  0.9924
   67CHL1   H7B 7377   1.231   0.040   9.434 -2.4179 -0.3656  1.4108
   67CHL1    C8 7378   1.185   0.246   9.492  0.2511 -0.3877 -0.7436
   67CHL1    H8 7379   1.259   0.321   9.527  0.6986 -1.3551  0.4578
   67CHL1   C14 7380   1.152   0.269   9.346 -0.3276  0.1864 -0.4961
   67CHL1   H14 7381   1.075   0.191   9.333 -0.6859  0.7106 -1.7130
   67CHL1   C15 7382   1.256   0.246   9.226  0.9233  0.2345 -0.3004
   67CHL1  H15A 7383   1.360   0.272   9.256  1.2128 -2.5605  1.5138
   67CHL1  H15B 7384   1.262   0.138   9.201  0.4644 -0.4165  2.1323
   67CHL1   C16 7385   1.206   0.340   9.110 -0.3169  0.1885 -0.1859
   67CHL1  H16A 7386   1.277   0.421   9.086 -0.3751  0.1538 -0.4694
   67CHL1  H16B 7387   1.191   0.279   9.018  3.3922  0.8023 -1.3477
   67CHL1   C17 7388   1.077   0.402   9.154  0.5191 -0.8500  0.6591
   67CHL1   H17 7389   0.992   0.331   9.141 -0.0820 -0.4856  2.2701
   67CHL1   C13 7390   1.085   0.407   9.314  0.5385 -0.2676  0.3462
   67CHL1   C18 7391   1.175   0.521   9.356 -0.0997  0.1068  0.0166
   67CHL1  H18A 7392   1.133   0.620   9.331  1.5826  0.4331 -1.7682
   67CHL1  H18B 7393   1.177   0.529   9.467  0.2546  2.4405 -0.1275
   67CHL1  H18C 7394   1.282   0.508   9.330  0.7971  1.5705  2.6150
   67CHL1   C12 7395   0.947   0.401   9.390 -1.0622 -0.3730 -0.0006
   67CHL1  H12A 7396   0.885   0.493   9.390  0.7834  1.0959 -3.7452
   67CHL1  H12B 7397   0.892   0.310   9.358  3.9059 -3.4791 -0.9672
   67CHL1   C11 7398   0.972   0.378   9.545 -0.1770  0.1395 -0.6758
   67CHL1  H11A 7399   1.003   0.472   9.596  1.4057 -1.7669  2.1167
   67CHL1  H11B 7400   0.872   0.368   9.593  0.0472 -0.3165 -0.2938
   67CHL1    C9 7401   1.061   0.259   9.575 -0.1158  0.1867 -0.5035
   67CHL1    H9 7402   1.004   0.172   9.536  2.0206 -0.4112 -2.5150
   67CHL1   C10 7403   1.098   0.235   9.729  0.1257  0.5991  0.3908
   67CHL1   C19 7404   1.159   0.369   9.776  0.7544  0.0819 -0.0417
   67CHL1  H19A 7405   1.203   0.351   9.877  0.6891 -2.4344 -0.3817
   67CHL1  H19B 7406   1.241   0.404   9.709 -0.7300  2.8838 -0.5135
   67CHL1  H19C 7407   1.083   0.450   9.774 -0.2229 -0.8171 -2.0940
   67CHL1    C1 7408   0.988   0.205   9.822  0.4082 -0.1401  0.0129
   67CHL1   H1A 7409   0.903   0.276   9.815 -1.6371 -2.5005 -0.7498
   67CHL1   H1B 7410   0.939   0.112   9.786  3.3356 -1.5376 -0.6816
   67CHL1    C2 7411   1.033   0.173   9.965  0.1359 -0.4483  1.2608
   67CHL1   H2A 7412   0.942   0.152  10.026 -1.8789  3.1790 -0.1745
   67CHL1   H2B 7413   1.075   0.260  10.019 -0.0165  0.3994  0.0668
   67CHL1   C20 7414   1.034   0.530   9.067 -1.1343  0.6840  0.1855
   67CHL1   H20 7415   1.105   0.611   9.094 -1.5878  0.9809  0.5051
   67CHL1   C21 7416   0.895   0.580   9.108 -0.6724 -0.4903  0.1478
   67CHL1  H21A 7417   0.893   0.608   9.216 -2.1682  1.6967 -0.3767
   67CHL1  H21B 7418   0.809   0.513   9.083  0.7052 -2.1867 -0.2500
   67CHL1  H21C 7419   0.876   0.672   9.049 -0.6812 -2.2135 -2.6968
   67CHL1   C22 7420   1.047   0.501   8.919  0.3040  1.0069  0.7495
   67CHL1  H22A 7421   1.147   0.458   8.896 -0.8375 -1.5854  0.2672
   67CHL1  H22B 7422   0.975   0.424   8.885 -0.4126  0.7273  2.7825
   67CHL1   C23 7423   1.029   0.634   8.825 -0.0396  1.1120  0.3482
   67CHL1  H23A 7424   0.948   0.705   8.851 -0.9352  0.5791 -0.8901
   67CHL1  H23B 7425   1.125   0.689   8.825  0.2248  0.7361  2.3372
   67CHL1   C24 7426   0.984   0.588   8.680 -0.0559  0.7615 -0.3017
   67CHL1  H24A 7427   1.072   0.541   8.631  0.7106  1.8953 -0.0629
   67CHL1  H24B 7428   0.906   0.511   8.693 -0.2673  1.1268  0.7676
   67CHL1   C25 7429   0.921   0.695   8.603 -0.3454 -0.4787  0.5909
   67CHL1   H25 7430   0.894   0.665   8.500 -0.9569 -0.8544  0.8567
   67CHL1   C26 7431   0.785   0.742   8.669 -0.8922 -0.3156  0.2995
   67CHL1  H26A 7432   0.807   0.787   8.768 -1.2465  0.5444 -0.0001
   67CHL1  H26B 7433   0.730   0.815   8.606 -1.0077 -1.3565 -0.8521
   67CHL1  H26C 7434   0.719   0.655   8.687 -2.4587  0.6177 -0.6795
   67CHL1   C27 7435   1.020   0.815   8.588  0.5627 -0.5132 -0.3262
   67CHL1  H27A 7436   0.992   0.896   8.517  1.0914  0.2581  0.3191
   67CHL1  H27B 7437   1.039   0.858   8.689 -0.1318 -1.8842  0.4063
   67CHL1  H27C 7438   1.112   0.767   8.547  0.6602  2.0575 -3.4885
   68CHL1    C3 7439   1.824   6.091  10.120  0.4911 -0.3098  0.4872
   68CHL1    H3 7440   1.714   6.089  10.110  0.4686 -2.7532  0.5578
   68CHL1    O3 7441   1.851   6.079  10.255  0.1127  0.2490  0.3128
   68CHL1   H3' 7442   1.934   6.126  10.264 -0.5661  1.5002  0.2385
   68CHL1    C4 7443   1.884   5.979  10.044 -0.2852  0.0882 -0.3887
   68CHL1   H4A 7444   1.995   5.979  10.050 -0.3547 -0.3751  1.6937
   68CHL1   H4B 7445   1.841   5.887  10.089 -1.0967  1.1107  1.0168
   68CHL1    C5 7446   1.848   5.973   9.893 -0.0092  0.0249  0.0883
   68CHL1    C6 7447   1.765   5.878   9.841  0.2362  0.4968  0.2161
   68CHL1    H6 7448   1.739   5.791   9.903 -1.4510  0.0754 -0.9978
   68CHL1    C7 7449   1.717   5.874   9.698  0.1531 -0.3718  0.4210
   68CHL1   H7A 7450   1.735   5.777   9.648  1.6742 -1.2743  2.5955
   68CHL1   H7B 7451   1.606   5.883   9.687  0.1271 -1.6838 -0.5173
   68CHL1    C8 7452   1.772   5.986   9.605  1.3346 -0.3314  0.2081
   68CHL1    H8 7453   1.873   5.956   9.572  0.8462  0.2613 -1.9993
   68CHL1   C14 7454   1.677   6.016   9.484  0.8261  0.4188  0.0792
   68CHL1   H14 7455   1.587   6.068   9.524  2.1399 -0.4415  4.8185
   68CHL1   C15 7456   1.628   5.893   9.416 -0.0088 -0.7607  0.0578
   68CHL1  H15A 7457   1.709   5.817   9.411 -1.1844 -1.9942 -1.4910
   68CHL1  H15B 7458   1.538   5.850   9.465 -1.5476  2.0127 -0.1194
   68CHL1   C16 7459   1.588   5.948   9.271  0.0416  0.1078  0.5467
   68CHL1  H16A 7460   1.632   5.900   9.181 -1.6022  0.1820 -0.3505
   68CHL1  H16B 7461   1.481   5.934   9.244  0.4575  0.2376 -1.2771
   68CHL1   C17 7462   1.625   6.095   9.274  0.1224  0.4366  0.1984
   68CHL1   H17 7463   1.534   6.142   9.318 -0.6432 -2.1722  1.6136
   68CHL1   C13 7464   1.731   6.104   9.381  0.2504  1.0204  0.1028
   68CHL1   C18 7465   1.869   6.054   9.314  0.6288  0.0237 -0.4535
   68CHL1  H18A 7466   1.902   6.134   9.245  2.0509  0.5323  0.7578
   68CHL1  H18B 7467   1.940   6.047   9.399  0.6268 -1.4591 -0.5469
   68CHL1  H18C 7468   1.850   5.951   9.276  0.7049 -0.4674  0.8060
   68CHL1   C12 7469   1.746   6.238   9.454  0.1030 -0.1466  0.1740
   68CHL1  H12A 7470   1.796   6.311   9.387 -1.6090  1.2021  0.2968
   68CHL1  H12B 7471   1.642   6.274   9.468  0.0032  0.1731 -1.2583
   68CHL1   C11 7472   1.822   6.229   9.588 -0.1144  0.5085 -0.3154
   68CHL1  H11A 7473   1.927   6.205   9.561 -0.4914 -2.4697  0.4336
   68CHL1  H11B 7474   1.822   6.325   9.644 -1.6224  0.3732 -0.0305
   68CHL1    C9 7475   1.786   6.113   9.685 -0.1840  0.2801  0.1096
   68CHL1    H9 7476   1.682   6.127   9.720  0.0188 -1.0387  1.2921
   68CHL1   C10 7477   1.873   6.103   9.817  0.2040  0.2334  0.1779
   68CHL1   C19 7478   2.025   6.116   9.790  0.0647 -0.3200 -0.0983
   68CHL1  H19A 7479   2.053   6.207   9.733 -1.8328  2.3849  2.9457
   68CHL1  H19B 7480   2.074   6.113   9.890 -1.2710 -1.7891  0.5574
   68CHL1  H19C 7481   2.052   6.024   9.733  0.3808 -1.1204  1.2844
   68CHL1    C1 7482   1.843   6.228   9.909 -0.5024  0.2763  0.2536
   68CHL1   H1A 7483   1.892   6.321   9.872 -3.0310  1.7762  0.4133
   68CHL1   H1B 7484   1.735   6.253   9.897 -0.6436 -0.4362  0.0241
   68CHL1    C2 7485   1.879   6.223  10.057 -0.8973 -0.1512 -0.2075
   68CHL1   H2A 7486   1.850   6.316  10.110  0.4451 -0.7660  1.7219
   68CHL1   H2B 7487   1.989   6.231  10.075 -0.5942 -0.4172 -1.8100
   68CHL1   C20 7488   1.646   6.138   9.128  1.1954  0.2046 -0.1938
   68CHL1   H20 7489   1.719   6.078   9.070 -1.0653 -1.2886 -1.6606
   68CHL1   C21 7490   1.683   6.288   9.124  0.1623 -0.3291  0.0127
   68CHL1  H21A 7491   1.783   6.292   9.172 -0.6490  1.9778  1.7133
   68CHL1  H21B 7492   1.617   6.342   9.196 -2.4384 -3.5252  0.2670
   68CHL1  H21C 7493   1.692   6.331   9.022  2.2649 -2.6438 -0.8777
   68CHL1   C22 7494   1.517   6.119   9.046  0.2280 -0.1615 -0.2746
   68CHL1  H22A 7495   1.492   6.011   9.057  0.4869 -0.0934  1.2560
   68CHL1  H22B 7496   1.437   6.188   9.081  1.0717 -0.2981  2.1263
   68CHL1   C23 7497   1.538   6.144   8.896 -0.2596 -0.7916  0.9590
   68CHL1  H23A 7498   1.534   6.255   8.888  0.4503 -0.8785 -2.4943
   68CHL1  H23B 7499   1.635   6.099   8.865 -0.8955 -0.0975 -2.5596
   68CHL1   C24 7500   1.434   6.092   8.797  0.8141  0.4270 -0.3827
   68CHL1  H24A 7501   1.337   6.113   8.847  0.7725  1.6870 -0.9499
   68CHL1  H24B 7502   1.437   6.154   8.705 -0.2310 -0.9899 -1.4188
   68CHL1   C25 7503   1.449   5.947   8.745 -0.1045  0.0643  0.6000
   68CHL1   H25 7504   1.443   5.870   8.825  4.2670  0.7139  1.8152
   68CHL1   C26 7505   1.331   5.930   8.649  0.1310  0.0224 -0.4242
   68CHL1  H26A 7506   1.232   5.942   8.697 -0.9224 -0.9527 -2.2146
   68CHL1  H26B 7507   1.336   6.005   8.568 -0.2716 -0.0195 -0.4907
   68CHL1  H26C 7508   1.338   5.829   8.603 -0.0419  0.3259 -1.1321
   68CHL1   C27 7509   1.583   5.922   8.678  0.1206  0.0870 -0.4012
   68CHL1  H27A 7510   1.663   5.917   8.754 -0.5436  1.4722  0.4474
   68CHL1  H27B 7511   1.577   5.826   8.622 -0.0525  0.0255 -0.2782
   68CHL1  H27C 7512   1.598   6.001   8.600 -0.5666 -0.8688 -1.5379
   69CHL1    C3 7513   1.529   0.843   6.905  0.0102 -0.7389 -0.0118
   69CHL1    H3 7514   1.625   0.839   6.959 -0.6434  1.6196  1.4882
   69CHL1    O3 7515   1.548   0.898   6.776  0.0093  0.5476  0.0193
   69CHL1   H3' 7516   1.640   0.924   6.768  0.2609 -0.5557 -0.8850
   69CHL1    C4 7517   1.447   0.715   6.892 -0.5845  0.1240  0.7244
   69CHL1   H4A 7518   1.363   0.737   6.822 -0.1019 -1.0976 -0.2737
   69CHL1   H4B 7519   1.511   0.650   6.829  0.3193  1.2109  0.4885
   69CHL1    C5 7520   1.409   0.649   7.022  0.2431 -0.7057  1.1397
   69CHL1    C6 7521   1.462   0.533   7.061 -0.1545  0.3438 -0.9754
   69CHL1    H6 7522   1.530   0.482   6.992  0.1680  0.4726 -0.7522
   69CHL1    C7 7523   1.436   0.466   7.191 -0.1246  0.9781 -0.1305
   69CHL1   H7A 7524   1.413   0.358   7.179 -0.9574  1.0574  0.6297
   69CHL1   H7B 7525   1.527   0.468   7.256 -0.0682  2.8175 -0.2135
   69CHL1    C8 7526   1.327   0.535   7.287 -0.1970  0.2239  0.7427
   69CHL1    H8 7527   1.231   0.497   7.246  1.0160 -0.7163 -1.4041
   69CHL1   C14 7528   1.355   0.505   7.431  0.3068  0.0064 -0.2830
   69CHL1   H14 7529   1.448   0.561   7.452 -0.2059  0.4864  0.7562
   69CHL1   C15 7530   1.379   0.355   7.474 -0.3228 -0.5302 -0.4559
   69CHL1  H15A 7531   1.295   0.296   7.431 -1.2579  0.5047 -0.0905
   69CHL1  H15B 7532   1.481   0.324   7.441 -0.5035  0.8604 -2.5238
   69CHL1   C16 7533   1.362   0.369   7.630 -0.1878  0.5690  0.3179
   69CHL1  H16A 7534   1.294   0.285   7.658  0.7413  0.0555  1.1054
   69CHL1  H16B 7535   1.450   0.362   7.698 -0.3321  0.1992  0.4708
   69CHL1   C17 7536   1.298   0.501   7.659 -0.0789  0.2557 -0.0370
   69CHL1   H17 7537   1.390   0.561   7.680 -0.3406  0.2082  1.3401
   69CHL1   C13 7538   1.249   0.559   7.527 -0.2944  0.7425  0.5681
   69CHL1   C18 7539   1.104   0.510   7.491  0.6466 -0.0736 -0.2165
   69CHL1  H18A 7540   1.064   0.557   7.398 -2.3989 -1.1700  0.4300
   69CHL1  H18B 7541   1.093   0.399   7.485 -3.0971  0.1685 -0.0964
   69CHL1  H18C 7542   1.048   0.523   7.586  0.9543 -0.7715  0.0672
   69CHL1   C12 7543   1.243   0.711   7.520 -0.3017 -0.2020 -0.0245
   69CHL1  H12A 7544   1.162   0.764   7.574  0.6384 -0.9051  2.1704
   69CHL1  H12B 7545   1.344   0.739   7.556  0.0097 -1.5098  0.1931
   69CHL1   C11 7546   1.247   0.763   7.375  0.3122  0.3293  0.0956
   69CHL1  H11A 7547   1.143   0.749   7.340  0.1677  1.5197  0.0209
   69CHL1  H11B 7548   1.275   0.869   7.391  2.4733 -0.3115  0.8749
   69CHL1    C9 7549   1.335   0.687   7.269 -0.0725  0.0637  0.4896
   69CHL1    H9 7550   1.441   0.701   7.295  0.1525 -1.0590  0.2382
   69CHL1   C10 7551   1.331   0.743   7.120 -0.5445 -0.0130 -0.6592
   69CHL1   C19 7552   1.182   0.746   7.073  0.6612 -0.5738  0.5658
   69CHL1  H19A 7553   1.166   0.797   6.975 -0.7791 -0.6731  0.7218
   69CHL1  H19B 7554   1.144   0.642   7.074 -1.7337  0.2180  0.5518
   69CHL1  H19C 7555   1.121   0.807   7.144 -0.3206  2.9223 -2.8938
   69CHL1    C1 7556   1.403   0.881   7.112 -0.7837 -0.7528  0.3732
   69CHL1   H1A 7557   1.346   0.961   7.165 -0.5440  0.6065 -1.3438
   69CHL1   H1B 7558   1.495   0.868   7.172  0.4871 -0.6519 -1.4825
   69CHL1    C2 7559   1.436   0.937   6.976  1.0566 -0.2117  0.1026
   69CHL1   H2A 7560   1.489   1.033   6.997 -0.9028  0.8331  0.5191
   69CHL1   H2B 7561   1.352   0.972   6.913  0.8592 -1.8550 -0.5914
   69CHL1   C20 7562   1.213   0.497   7.792  0.3294  0.1437 -0.7091
   69CHL1   H20 7563   1.130   0.423   7.786  0.1937  0.2931 -0.6738
   69CHL1   C21 7564   1.163   0.640   7.823  0.1054 -0.1338 -0.3210
   69CHL1  H21A 7565   1.241   0.719   7.820 -1.1708  1.2855  1.5216
   69CHL1  H21B 7566   1.116   0.633   7.923  1.7123 -1.9026  0.3762
   69CHL1  H21C 7567   1.080   0.665   7.754 -0.5864 -0.4989  0.3619
   69CHL1   C22 7568   1.303   0.441   7.898 -0.0553 -0.4054  0.0008
   69CHL1  H22A 7569   1.333   0.337   7.874 -0.2167 -1.2030  2.8485
   69CHL1  H22B 7570   1.394   0.504   7.894 -2.1219  2.7221 -2.6808
   69CHL1   C23 7571   1.240   0.417   8.034  0.4450 -0.2554  0.0060
   69CHL1  H23A 7572   1.219   0.516   8.078 -0.8687  0.2843 -1.7047
   69CHL1  H23B 7573   1.142   0.365   8.036  0.6555 -0.6921 -0.5697
   69CHL1   C24 7574   1.346   0.356   8.126  0.3879  0.3537  0.2775
   69CHL1  H24A 7575   1.295   0.315   8.216  0.3310 -3.9198 -1.4490
   69CHL1  H24B 7576   1.389   0.264   8.081  0.6713  1.2709 -1.4083
   69CHL1   C25 7577   1.462   0.444   8.179 -0.2961 -0.1781  0.6372
   69CHL1   H25 7578   1.530   0.476   8.097  0.3200 -0.5956  0.9787
   69CHL1   C26 7579   1.408   0.559   8.259 -0.3011  0.1645 -0.6472
   69CHL1  H26A 7580   1.495   0.607   8.309 -0.3472 -3.2272  3.2046
   69CHL1  H26B 7581   1.351   0.631   8.196 -1.8904  0.4828  1.0623
   69CHL1  H26C 7582   1.340   0.511   8.332  2.6407 -2.1133  0.8180
   69CHL1   C27 7583   1.549   0.357   8.263  0.3560  0.2418  0.4785
   69CHL1  H27A 7584   1.637   0.416   8.296  0.8295 -1.2513  2.0247
   69CHL1  H27B 7585   1.485   0.324   8.347 -2.7528 -1.6387 -2.3357
   69CHL1  H27C 7586   1.585   0.271   8.202 -0.3572  0.2487  0.0321
   70CHL1    C3 7587   3.936   2.393   7.018  0.2596  0.6469  0.3065
   70CHL1    H3 7588   4.030   2.336   7.029  0.2586  0.8273  1.3763
   70CHL1    O3 7589   3.927   2.440   6.884  0.5873  0.2192 -0.7214
   70CHL1   H3' 7590   3.831   2.436   6.872  0.4779 -0.8373  0.3126
   70CHL1    C4 7591   3.816   2.310   7.043 -0.3322  0.3670 -0.4300
   70CHL1   H4A 7592   3.716   2.357   7.035 -0.4724 -0.1282 -1.7459
   70CHL1   H4B 7593   3.820   2.217   6.984 -1.1268 -0.1328  0.2795
   70CHL1    C5 7594   3.835   2.252   7.184  0.3885 -0.4700  0.8510
   70CHL1    C6 7595   3.836   2.117   7.203  0.3783  0.1459 -0.0394
   70CHL1    H6 7596   3.830   2.047   7.119 -0.2754  0.1898 -0.0373
   70CHL1    C7 7597   3.846   2.065   7.350 -0.1976  0.6163  0.5331
   70CHL1   H7A 7598   3.789   1.970   7.362  0.4974  0.2087  0.6666
   70CHL1   H7B 7599   3.953   2.036   7.357  0.5726  2.9092 -0.7264
   70CHL1    C8 7600   3.815   2.171   7.459 -0.1357  0.4844 -0.9472
   70CHL1    H8 7601   3.706   2.186   7.470 -0.2933 -1.7493  1.9437
   70CHL1   C14 7602   3.864   2.116   7.591 -1.3419 -0.6675 -0.7448
   70CHL1   H14 7603   3.974   2.100   7.580 -1.3182 -0.7435 -0.4123
   70CHL1   C15 7604   3.809   1.980   7.637 -0.2286 -0.9765 -0.4724
   70CHL1  H15A 7605   3.702   1.981   7.608 -0.6581  0.6621  0.9880
   70CHL1  H15B 7606   3.865   1.891   7.601 -0.0345 -0.8599 -0.4594
   70CHL1   C16 7607   3.823   1.990   7.796 -0.6927 -0.1225 -0.0165
   70CHL1  H16A 7608   3.729   1.965   7.850 -0.1429 -1.0665  0.5172
   70CHL1  H16B 7609   3.898   1.916   7.832  2.5276  2.2110 -1.4656
   70CHL1   C17 7610   3.882   2.133   7.832  0.3040  0.2440  0.7271
   70CHL1   H17 7611   3.993   2.131   7.827  0.2672 -1.4374  0.0693
   70CHL1   C13 7612   3.836   2.212   7.708  0.2085 -0.3640 -0.2538
   70CHL1   C18 7613   3.685   2.246   7.720 -0.4114 -0.3755  0.0966
   70CHL1  H18A 7614   3.618   2.160   7.698 -0.3824 -0.3771  0.0153
   70CHL1  H18B 7615   3.680   2.288   7.823  0.1531 -0.1583  0.0341
   70CHL1  H18C 7616   3.661   2.323   7.645  0.2977 -0.7404 -0.5150
   70CHL1   C12 7617   3.933   2.338   7.687  0.4799  0.4333  0.4576
   70CHL1  H12A 7618   3.925   2.415   7.766 -1.3217 -0.7898  1.5442
   70CHL1  H12B 7619   4.039   2.307   7.694  1.4086  3.7256  3.4554
   70CHL1   C11 7620   3.899   2.402   7.552  0.5281  0.0829 -0.7209
   70CHL1  H11A 7621   3.805   2.459   7.561  0.1016 -0.2806 -2.4536
   70CHL1  H11B 7622   3.984   2.470   7.531  0.0644  0.3865 -1.6472
   70CHL1    C9 7623   3.892   2.300   7.436  0.5597 -1.0423 -0.3667
   70CHL1    H9 7624   3.996   2.268   7.413  0.5877 -0.8250 -0.5516
   70CHL1   C10 7625   3.852   2.357   7.296 -0.2665  0.1825 -0.0311
   70CHL1   C19 7626   3.706   2.414   7.305 -0.5323  0.4628  0.5178
   70CHL1  H19A 7627   3.692   2.474   7.397  0.4281  0.7421  0.4957
   70CHL1  H19B 7628   3.676   2.463   7.210  2.8771 -0.4957 -1.2193
   70CHL1  H19C 7629   3.642   2.325   7.321  3.1667 -3.2460 -2.7584
   70CHL1    C1 7630   3.948   2.464   7.258 -0.3111  0.3233  0.2836
   70CHL1   H1A 7631   3.931   2.550   7.326  2.4266 -1.1675  3.1633
   70CHL1   H1B 7632   4.053   2.429   7.269 -1.0428 -2.4805 -0.6325
   70CHL1    C2 7633   3.944   2.511   7.111 -0.3186  0.0339 -0.0555
   70CHL1   H2A 7634   4.029   2.580   7.090  0.1702 -0.4681  0.2228
   70CHL1   H2B 7635   3.846   2.560   7.093 -0.4549 -0.3464 -0.3565
   70CHL1   C20 7636   3.838   2.170   7.976  0.3523  0.4819  0.2104
   70CHL1   H20 7637   3.727   2.162   7.975  0.3521  0.5017  0.1180
   70CHL1   C21 7638   3.897   2.309   8.010 -0.4517  0.0992  0.2828
   70CHL1  H21A 7639   4.007   2.320   7.998 -0.3332 -1.1247  0.1216
   70CHL1  H21B 7640   3.876   2.338   8.115 -0.6427  0.1723  0.2253
   70CHL1  H21C 7641   3.861   2.387   7.940 -1.7730 -1.7346 -1.1823
   70CHL1   C22 7642   3.874   2.058   8.081 -1.1726  0.0279 -0.2320
   70CHL1  H22A 7643   3.799   1.978   8.066 -1.7631  0.8041 -1.5485
   70CHL1  H22B 7644   3.971   2.006   8.067 -1.1596 -0.5671  1.7351
   70CHL1   C23 7645   3.885   2.094   8.226  0.5942 -0.7980  0.5363
   70CHL1  H23A 7646   3.962   2.174   8.232 -0.1113 -0.1330  0.9540
   70CHL1  H23B 7647   3.788   2.128   8.268 -0.5094 -1.9363 -0.9671
   70CHL1   C24 7648   3.929   1.978   8.312 -0.9043 -1.4998  0.1430
   70CHL1  H24A 7649   3.872   1.886   8.288  0.2551 -1.9248 -1.0407
   70CHL1  H24B 7650   4.036   1.955   8.294 -0.7065 -2.2074  1.9976
   70CHL1   C25 7651   3.935   2.003   8.460 -0.5698 -0.3855  0.0947
   70CHL1   H25 7652   3.840   2.048   8.496 -1.1437 -0.4666 -1.2753
   70CHL1   C26 7653   3.933   1.871   8.549 -0.0521 -0.4224 -0.6376
   70CHL1  H26A 7654   4.018   1.802   8.529 -2.0761 -3.3897  0.3668
   70CHL1  H26B 7655   3.937   1.894   8.657 -0.9994 -0.9684 -0.4821
   70CHL1  H26C 7656   3.847   1.803   8.534  0.4330 -1.0462 -0.6479
   70CHL1   C27 7657   4.052   2.085   8.505  0.1384 -0.6839 -0.3435
   70CHL1  H27A 7658   4.053   2.099   8.615  1.3887  2.0727 -0.6190
   70CHL1  H27B 7659   4.144   2.029   8.480  0.4278 -0.0027 -0.8250
   70CHL1  H27C 7660   4.061   2.183   8.453  2.3370 -0.5874  0.1477
   71CHL1    C3 7661   5.642   6.647   6.786 -0.0479  0.5835  0.3612
   71CHL1    H3 7662   5.666   6.753   6.809 -1.3083  0.9435  0.0547
   71CHL1    O3 7663   5.622   6.628   6.646 -0.5068  0.1961  0.0481
   71CHL1   H3' 7664   5.607   6.534   6.631 -1.3057  0.4438 -0.7593
   71CHL1    C4 7665   5.763   6.559   6.835 -0.1094 -0.0012 -0.7831
   71CHL1   H4A 7666   5.726   6.455   6.825 -1.2343  0.0597  1.9064
   71CHL1   H4B 7667   5.855   6.575   6.775  0.3781 -1.4183 -0.4355
   71CHL1    C5 7668   5.780   6.575   6.984 -0.4539 -0.2100 -0.3382
   71CHL1    C6 7669   5.901   6.611   7.040  0.4264  0.3324 -0.3111
   71CHL1    H6 7670   5.989   6.622   6.974  0.7829  1.1515  0.2942
   71CHL1    C7 7671   5.932   6.628   7.189 -0.2676  0.4262 -0.0673
   71CHL1   H7A 7672   6.037   6.605   7.217 -0.1917  1.7681  0.8421
   71CHL1   H7B 7673   5.915   6.733   7.223  1.8245  0.6454  0.4030
   71CHL1    C8 7674   5.823   6.552   7.272 -0.8157  0.1587  0.2362
   71CHL1    H8 7675   5.840   6.443   7.256  0.7604  0.7552 -2.8046
   71CHL1   C14 7676   5.845   6.590   7.421 -0.2022  0.2458  0.9049
   71CHL1   H14 7677   5.835   6.700   7.411 -2.2341 -0.0523 -1.1910
   71CHL1   C15 7678   5.978   6.569   7.495 -0.0489 -0.5439 -0.9272
   71CHL1  H15A 7679   6.037   6.490   7.443 -1.7001 -2.9895  0.6650
   71CHL1  H15B 7680   6.043   6.658   7.484  0.3842 -0.6480  0.6729
   71CHL1   C16 7681   5.951   6.549   7.647 -0.5847 -0.6273 -0.2584
   71CHL1  H16A 7682   5.972   6.449   7.692  0.9408 -0.6001 -0.8468
   71CHL1  H16B 7683   6.019   6.612   7.709 -0.1785 -1.4131  0.1142
   71CHL1   C17 7684   5.795   6.580   7.654 -0.1253  0.3289  0.1751
   71CHL1   H17 7685   5.797   6.690   7.664 -0.7797  0.2160  1.7118
   71CHL1   C13 7686   5.742   6.530   7.519 -0.0790 -0.0453  0.4215
   71CHL1   C18 7687   5.755   6.370   7.509  0.1982  0.0878 -0.1366
   71CHL1  H18A 7688   5.687   6.315   7.576 -0.1035  2.0026  1.2169
   71CHL1  H18B 7689   5.737   6.342   7.403 -0.3756 -0.6234  0.1432
   71CHL1  H18C 7690   5.859   6.333   7.521 -0.4635 -2.4007 -1.3935
   71CHL1   C12 7691   5.606   6.566   7.473 -0.3188 -0.4916 -0.3781
   71CHL1  H12A 7692   5.524   6.524   7.536  0.2221 -0.9517  0.0280
   71CHL1  H12B 7693   5.611   6.676   7.488  2.1248 -0.8074  1.7154
   71CHL1   C11 7694   5.577   6.532   7.327  0.0957 -0.3239 -0.0020
   71CHL1  H11A 7695   5.587   6.422   7.319  1.1466 -0.3968  1.6594
   71CHL1  H11B 7696   5.478   6.570   7.294 -0.5399 -1.6797  0.2757
   71CHL1    C9 7697   5.681   6.591   7.220 -0.4864  0.3681  0.0727
   71CHL1    H9 7698   5.672   6.702   7.226 -0.3194  0.3504  0.7479
   71CHL1   C10 7699   5.664   6.550   7.070  0.3332 -0.0754 -0.4492
   71CHL1   C19 7700   5.623   6.400   7.067  0.0813  0.2965 -0.0822
   71CHL1  H19A 7701   5.535   6.391   7.134  1.5085  0.8805  1.9750
   71CHL1  H19B 7702   5.596   6.361   6.967 -1.1519  0.4589  0.1698
   71CHL1  H19C 7703   5.707   6.351   7.120  0.2786  2.3415  1.6676
   71CHL1    C1 7704   5.546   6.634   7.017  0.3716  0.4243  0.6876
   71CHL1   H1A 7705   5.451   6.605   7.068  1.5883 -2.5563  1.5037
   71CHL1   H1B 7706   5.552   6.742   7.039 -4.7606  1.5901 -2.0624
   71CHL1    C2 7707   5.518   6.618   6.863  0.7217  0.0447  0.1791
   71CHL1   H2A 7708   5.434   6.681   6.827  1.6527  1.0886 -0.2150
   71CHL1   H2B 7709   5.481   6.515   6.844  1.1888  0.0180 -0.6552
   71CHL1   C20 7710   5.731   6.524   7.787  0.6397 -0.1955  0.2482
   71CHL1   H20 7711   5.712   6.417   7.766  0.7775  0.0731 -1.4190
   71CHL1   C21 7712   5.603   6.598   7.821 -0.1646 -0.3754  1.3760
   71CHL1  H21A 7713   5.553   6.541   7.902 -1.3757 -1.3246  0.0201
   71CHL1  H21B 7714   5.533   6.598   7.735 -0.7737 -0.3309  1.8577
   71CHL1  H21C 7715   5.618   6.705   7.849 -0.4765 -0.4104  1.6933
   71CHL1   C22 7716   5.813   6.534   7.916  0.4883 -0.5227 -0.6998
   71CHL1  H22A 7717   5.742   6.512   7.998 -0.8336 -0.9484 -1.9329
   71CHL1  H22B 7718   5.895   6.459   7.910 -1.2371 -2.6387  0.6503
   71CHL1   C23 7719   5.875   6.668   7.951 -0.1607 -0.4281 -0.2703
   71CHL1  H23A 7720   5.961   6.705   7.891 -0.7358  2.0361  0.3129
   71CHL1  H23B 7721   5.807   6.756   7.953  2.6764  1.9406  2.5504
   71CHL1   C24 7722   5.936   6.667   8.092 -0.3211 -0.2957  0.2208
   71CHL1  H24A 7723   5.867   6.623   8.167 -2.0322  1.8512  0.0070
   71CHL1  H24B 7724   6.028   6.605   8.089 -0.5175 -0.5939  0.2784
   71CHL1   C25 7725   5.977   6.807   8.144 -0.2220 -0.3162  0.0507
   71CHL1   H25 7726   5.880   6.862   8.136  0.7550  1.2169 -2.1463
   71CHL1   C26 7727   6.019   6.804   8.288 -0.3420 -0.5729  0.0502
   71CHL1  H26A 7728   6.036   6.903   8.335 -0.2274 -0.5985  0.0605
   71CHL1  H26B 7729   5.933   6.775   8.352 -0.8734  1.6494  0.4203
   71CHL1  H26C 7730   6.113   6.745   8.299  0.2457  0.0208 -1.5269
   71CHL1   C27 7731   6.087   6.878   8.061 -0.2032  0.0720  0.2296
   71CHL1  H27A 7732   6.178   6.815   8.063  1.1747  1.9832 -0.1474
   71CHL1  H27B 7733   6.065   6.882   7.952 -0.9496  0.1638  0.3783
   71CHL1  H27C 7734   6.105   6.982   8.096 -1.2170  0.0531  0.8505
   72CHL1    C3 7735   4.415   3.107   6.829 -0.2546 -0.0614  0.7274
   72CHL1    H3 7736   4.503   3.047   6.861  2.0030  3.3005  1.3305
   72CHL1    O3 7737   4.396   3.084   6.690  0.0975 -0.0567 -0.3880
   72CHL1   H3' 7738   4.484   3.061   6.661  0.7522  0.3903  1.1918
   72CHL1    C4 7739   4.286   3.075   6.908  0.5402  0.3977 -0.0641
   72CHL1   H4A 7740   4.213   3.142   6.859  0.8437  0.0773 -0.9674
   72CHL1   H4B 7741   4.266   2.969   6.880  1.1601 -0.1050  1.2804
   72CHL1    C5 7742   4.303   3.090   7.050 -0.8354  0.3324 -0.2517
   72CHL1    C6 7743   4.286   2.989   7.132  0.1550  0.0272  0.5757
   72CHL1    H6 7744   4.262   2.889   7.092  0.2563  0.5352 -0.8001
   72CHL1    C7 7745   4.290   2.993   7.284 -0.1444  0.1906 -0.5527
   72CHL1   H7A 7746   4.207   2.937   7.333  0.4108  0.7831  1.1238
   72CHL1   H7B 7747   4.385   2.959   7.330 -0.9947  1.0442  2.0438
   72CHL1    C8 7748   4.292   3.143   7.327 -0.6631  0.3883  0.7375
   72CHL1    H8 7749   4.190   3.183   7.314 -0.1066  1.3910 -0.8510
   72CHL1   C14 7750   4.332   3.158   7.474  0.0783  0.2628  0.4474
   72CHL1   H14 7751   4.437   3.124   7.484 -0.3995 -1.5446 -0.2718
   72CHL1   C15 7752   4.250   3.079   7.572 -0.5578 -0.3328 -0.2326
   72CHL1  H15A 7753   4.140   3.091   7.564 -0.6360  0.2231  1.2560
   72CHL1  H15B 7754   4.288   2.975   7.570 -1.9381 -0.8713  0.5438
   72CHL1   C16 7755   4.287   3.141   7.709 -0.7077 -0.0270  0.4491
   72CHL1  H16A 7756   4.200   3.174   7.769  0.2122 -0.2865  1.9871
   72CHL1  H16B 7757   4.351   3.073   7.769  1.6552  1.5267 -0.1636
   72CHL1   C17 7758   4.367   3.275   7.671  0.0243  0.2680 -1.0456
   72CHL1   H17 7759   4.473   3.243   7.680  0.1783  1.2879  1.6342
   72CHL1   C13 7760   4.339   3.304   7.528 -0.5982 -0.6550  0.9086
   72CHL1   C18 7761   4.202   3.367   7.509 -0.3198  0.0442  0.5004
   72CHL1  H18A 7762   4.164   3.355   7.405  1.6367  0.0610 -0.2797
   72CHL1  H18B 7763   4.127   3.325   7.579 -1.0509 -0.9988 -0.8521
   72CHL1  H18C 7764   4.208   3.476   7.528  0.6185  0.2676 -0.8764
   72CHL1   C12 7765   4.456   3.380   7.448 -0.0666  0.2543 -0.7127
   72CHL1  H12A 7766   4.461   3.488   7.474  1.6067 -0.2141  1.1781
   72CHL1  H12B 7767   4.550   3.329   7.480 -0.6941 -1.3209 -1.2689
   72CHL1   C11 7768   4.434   3.363   7.295  0.2970 -0.0012  0.3911
   72CHL1  H11A 7769   4.354   3.434   7.264  1.1667 -0.2933 -2.8827
   72CHL1  H11B 7770   4.533   3.382   7.248  0.3981 -0.5605  0.3683
   72CHL1    C9 7771   4.393   3.226   7.241  0.1558  0.5958  0.4344
   72CHL1    H9 7772   4.487   3.168   7.239 -0.2064 -0.0084 -1.8222
   72CHL1   C10 7773   4.346   3.228   7.090 -0.3939 -0.4649 -0.1025
   72CHL1   C19 7774   4.222   3.318   7.074  0.5934 -0.7583  0.8140
   72CHL1  H19A 7775   4.175   3.321   6.973  1.6642  0.4707  0.3146
   72CHL1  H19B 7776   4.142   3.302   7.149 -2.9696  0.6416 -2.3423
   72CHL1  H19C 7777   4.250   3.426   7.081  0.2282 -0.5056 -1.0439
   72CHL1    C1 7778   4.460   3.292   7.004  0.3724 -0.3135  0.1111
   72CHL1   H1A 7779   4.461   3.402   7.021 -2.7467 -0.4528  1.8863
   72CHL1   H1B 7780   4.553   3.244   7.042  0.4496 -0.0089  0.3091
   72CHL1    C2 7781   4.456   3.249   6.854 -0.1894  0.2357  0.4157
   72CHL1   H2A 7782   4.555   3.257   6.804 -0.7587 -2.1037 -1.2432
   72CHL1   H2B 7783   4.379   3.316   6.810 -0.9982  0.5237  2.2069
   72CHL1   C20 7784   4.348   3.391   7.774  0.2889  0.6372 -0.1641
   72CHL1   H20 7785   4.249   3.439   7.764  0.8152  1.3497 -2.5560
   72CHL1   C21 7786   4.454   3.499   7.765 -0.3168 -0.6833 -0.3798
   72CHL1  H21A 7787   4.556   3.454   7.772  0.0429  0.3706  2.0602
   72CHL1  H21B 7788   4.441   3.572   7.847 -0.0444 -1.2789  0.1988
   72CHL1  H21C 7789   4.455   3.556   7.669 -1.4533 -1.1335 -0.6628
   72CHL1   C22 7790   4.342   3.337   7.925  0.3819 -0.6555  0.3004
   72CHL1  H22A 7791   4.337   3.427   7.989 -0.5567 -1.0220  0.7672
   72CHL1  H22B 7792   4.247   3.280   7.937  0.2751 -0.2923  1.2602
   72CHL1   C23 7793   4.464   3.267   7.971 -0.5482 -0.0630 -0.0542
   72CHL1  H23A 7794   4.481   3.175   7.910  1.8891  0.1304  0.2339
   72CHL1  H23B 7795   4.554   3.328   7.950  0.8645 -2.0864 -0.2163
   72CHL1   C24 7796   4.465   3.239   8.122 -0.2014 -0.0240 -0.1386
   72CHL1  H24A 7797   4.569   3.217   8.155 -0.4655  1.4011  1.8363
   72CHL1  H24B 7798   4.441   3.332   8.178 -2.6837  1.2491 -3.0058
   72CHL1   C25 7799   4.373   3.125   8.169  0.2138  0.2970 -1.2162
   72CHL1   H25 7800   4.267   3.147   8.141 -0.0749 -1.0383 -1.2268
   72CHL1   C26 7801   4.409   2.988   8.110  0.0619 -0.1353  0.2209
   72CHL1  H26A 7802   4.519   2.976   8.124  0.2292 -0.8466 -1.4249
   72CHL1  H26B 7803   4.355   2.900   8.148  0.3138  0.2373  1.4741
   72CHL1  H26C 7804   4.407   3.000   7.999  1.8543  0.5230  0.2181
   72CHL1   C27 7805   4.369   3.105   8.315  0.6209  0.6769 -0.4090
   72CHL1  H27A 7806   4.294   3.027   8.339  0.5256  0.8332 -0.1843
   72CHL1  H27B 7807   4.463   3.069   8.363 -0.5477 -1.3451  0.4680
   72CHL1  H27C 7808   4.324   3.189   8.373 -1.2956 -1.1939  0.9586
   73CHL1    C3 7809   5.282   0.801   7.197  0.3893 -0.4700  0.3145
   73CHL1    H3 7810   5.366   0.729   7.199  0.3311 -1.0274 -4.6355
   73CHL1    O3 7811   5.269   0.853   7.059 -0.3329  0.3679 -0.4404
   73CHL1   H3' 7812   5.184   0.898   7.052 -1.2204 -1.4465 -3.1523
   73CHL1    C4 7813   5.157   0.722   7.233 -0.0306 -1.0594  0.1813
   73CHL1   H4A 7814   5.071   0.789   7.211 -0.7979 -2.1382 -0.2182
   73CHL1   H4B 7815   5.150   0.639   7.159  1.2218 -2.3967  1.5152
   73CHL1    C5 7816   5.163   0.675   7.378  0.1897  0.6937  0.3665
   73CHL1    C6 7817   5.149   0.545   7.394 -0.2582  0.4810 -0.4916
   73CHL1    H6 7818   5.123   0.480   7.309 -1.1148 -1.6772  1.3155
   73CHL1    C7 7819   5.168   0.484   7.533  0.1948 -0.1623 -0.4671
   73CHL1   H7A 7820   5.093   0.402   7.540  1.2470 -1.2034 -1.0634
   73CHL1   H7B 7821   5.271   0.445   7.540  0.8235  1.5825  0.4134
   73CHL1    C8 7822   5.146   0.590   7.644  0.0489  0.8798 -1.1191
   73CHL1    H8 7823   5.041   0.625   7.635 -1.5107 -2.5417  1.4679
   73CHL1   C14 7824   5.176   0.526   7.778 -0.3116 -0.2748 -0.2464
   73CHL1   H14 7825   5.284   0.506   7.758 -0.4984  0.7712 -2.6067
   73CHL1   C15 7826   5.114   0.395   7.802 -0.4293  0.0841 -0.3480
   73CHL1  H15A 7827   5.004   0.410   7.796 -0.6299 -1.0138  0.3444
   73CHL1  H15B 7828   5.150   0.316   7.734 -2.8342 -0.9340 -0.5321
   73CHL1   C16 7829   5.151   0.375   7.950  0.4092  1.4515 -0.3461
   73CHL1  H16A 7830   5.058   0.347   8.004  0.8801 -0.1057 -0.3117
   73CHL1  H16B 7831   5.224   0.293   7.959 -1.0485  0.0868 -0.4413
   73CHL1   C17 7832   5.200   0.509   8.015  1.1752  0.0168 -0.0299
   73CHL1   H17 7833   5.310   0.500   8.021  1.2012  0.7473  0.8453
   73CHL1   C13 7834   5.170   0.612   7.903  0.0082  0.6830 -0.0054
   73CHL1   C18 7835   5.025   0.666   7.915 -0.3318  0.0980 -0.3117
   73CHL1  H18A 7836   5.018   0.745   7.993  0.6608  0.6329 -0.7533
   73CHL1  H18B 7837   5.002   0.709   7.815  2.7925 -2.7670 -2.4991
   73CHL1  H18C 7838   4.958   0.579   7.926  1.6812 -1.4317  0.5336
   73CHL1   C12 7839   5.273   0.729   7.879  0.6626 -0.4397 -0.9213
   73CHL1  H12A 7840   5.263   0.802   7.962 -3.0311 -3.0399  1.2025
   73CHL1  H12B 7841   5.370   0.680   7.901 -0.2582 -2.4666 -1.1680
   73CHL1   C11 7842   5.258   0.802   7.745  0.8084 -0.1692  0.1856
   73CHL1  H11A 7843   5.160   0.854   7.753 -0.6055 -2.5487 -0.4918
   73CHL1  H11B 7844   5.339   0.877   7.737  1.8036 -1.1810  0.5671
   73CHL1    C9 7845   5.238   0.712   7.623 -0.3788  0.3339 -0.5089
   73CHL1    H9 7846   5.339   0.670   7.603  0.1167  1.1696  0.1935
   73CHL1   C10 7847   5.192   0.779   7.491 -0.1492 -0.6924  0.7359
   73CHL1   C19 7848   5.061   0.867   7.520 -0.2216 -0.4825  0.7924
   73CHL1  H19A 7849   5.008   0.905   7.430  0.3311  0.2085  0.7465
   73CHL1  H19B 7850   4.990   0.814   7.588  1.2399  0.1549  2.9143
   73CHL1  H19C 7851   5.082   0.959   7.578 -0.8242  0.8353 -0.9927
   73CHL1    C1 7852   5.317   0.868   7.444 -0.4188  0.1597 -0.1260
   73CHL1   H1A 7853   5.332   0.955   7.511  1.4347 -1.6650  1.9927
   73CHL1   H1B 7854   5.411   0.808   7.443  0.0619  0.9083 -0.9274
   73CHL1    C2 7855   5.302   0.915   7.297 -0.2439 -0.2611 -0.4057
   73CHL1   H2A 7856   5.398   0.965   7.270  0.4267 -1.2854  0.0065
   73CHL1   H2B 7857   5.227   0.997   7.299  0.8071  0.7378 -0.4582
   73CHL1   C20 7858   5.143   0.534   8.158  0.1389  0.0425 -0.0013
   73CHL1   H20 7859   5.036   0.563   8.155  0.2557  0.3787 -1.9417
   73CHL1   C21 7860   5.221   0.649   8.225  0.5234 -0.4175 -0.0888
   73CHL1  H21A 7861   5.188   0.642   8.331  0.4784 -1.4096 -0.1579
   73CHL1  H21B 7862   5.204   0.747   8.174  0.6093 -0.2839  0.1411
   73CHL1  H21C 7863   5.330   0.627   8.221  0.4507 -0.6909 -0.9631
   73CHL1   C22 7864   5.152   0.411   8.259 -0.4556  0.4509  0.1486
   73CHL1  H22A 7865   5.111   0.450   8.355  2.6178  1.6287  1.1220
   73CHL1  H22B 7866   5.082   0.334   8.219 -0.0815  0.0174  0.3192
   73CHL1   C23 7867   5.289   0.345   8.265 -0.6111  1.7841  0.5254
   73CHL1  H23A 7868   5.339   0.351   8.166 -1.2947  2.2362  0.2012
   73CHL1  H23B 7869   5.348   0.386   8.350 -1.7742  0.6516  1.9351
   73CHL1   C24 7870   5.261   0.194   8.291  0.2201 -0.2658  0.1182
   73CHL1  H24A 7871   5.192   0.181   8.378  1.1179 -2.2036  0.5931
   73CHL1  H24B 7872   5.210   0.166   8.197 -0.0088  1.8014 -0.4276
   73CHL1   C25 7873   5.388   0.110   8.310 -0.5241  0.8824  0.5472
   73CHL1   H25 7874   5.445   0.138   8.219  1.2169 -0.7344  1.0661
   73CHL1   C26 7875   5.474   0.132   8.431 -0.4746 -0.0259  0.0098
   73CHL1  H26A 7876   5.412   0.132   8.523  0.1041 -0.2440  0.4110
   73CHL1  H26B 7877   5.538   0.045   8.455 -0.3372 -0.0631 -0.4850
   73CHL1  H26C 7878   5.529   0.229   8.423 -0.9513  0.2879  0.4578
   73CHL1   C27 7879   5.355  -0.045   8.298 -0.1867  0.1708  0.0623
   73CHL1  H27A 7880   5.292  -0.060   8.207 -2.6072  1.4975  1.4307
   73CHL1  H27B 7881   5.447  -0.106   8.282 -1.1241 -1.1233 -0.5579
   73CHL1  H27C 7882   5.298  -0.084   8.384  0.1465  0.7135  0.5363
   74CHL1    C3 7883   6.178   6.436   6.746  0.3621  0.6485 -0.2112
   74CHL1    H3 7884   6.073   6.456   6.776  0.9698 -0.7260  3.1919
   74CHL1    O3 7885   6.178   6.426   6.611  0.0520  0.0515  0.4824
   74CHL1   H3' 7886   6.262   6.464   6.583  0.1666 -1.0022 -0.6844
   74CHL1    C4 7887   6.249   6.556   6.799 -0.0459 -0.1606  0.0182
   74CHL1   H4A 7888   6.333   6.576   6.729 -0.5646 -3.2547 -1.7040
   74CHL1   H4B 7889   6.173   6.635   6.778 -0.0358 -0.7843 -2.6955
   74CHL1    C5 7890   6.290   6.559   6.944 -0.2211 -0.0242 -0.1133
   74CHL1    C6 7891   6.269   6.677   7.006  0.2165  0.6153  0.6620
   74CHL1    H6 7892   6.225   6.758   6.946 -1.5046 -1.0960 -0.5458
   74CHL1    C7 7893   6.305   6.699   7.144  0.3203 -0.0611  0.6466
   74CHL1   H7A 7894   6.376   6.782   7.164 -0.2577  1.5200 -2.9625
   74CHL1   H7B 7895   6.212   6.729   7.199  1.0181  2.0650  0.7549
   74CHL1    C8 7896   6.375   6.578   7.216 -0.2285 -0.6352  0.3105
   74CHL1    H8 7897   6.483   6.574   7.188 -0.4793  0.9979 -1.0897
   74CHL1   C14 7898   6.364   6.587   7.371 -0.3389 -0.4337  0.0408
   74CHL1   H14 7899   6.255   6.589   7.393 -0.4731 -2.1679 -0.3139
   74CHL1   C15 7900   6.409   6.718   7.447  0.2340  0.0951  0.5345
   74CHL1  H15A 7901   6.514   6.739   7.417  0.4249 -0.7986  0.5426
   74CHL1  H15B 7902   6.349   6.808   7.423 -0.3232 -0.3829  0.0694
   74CHL1   C16 7903   6.404   6.673   7.598 -0.5700 -0.3287 -0.5695
   74CHL1  H16A 7904   6.507   6.694   7.633 -1.7360 -0.0815  3.0675
   74CHL1  H16B 7905   6.338   6.737   7.660  2.2872  2.6355 -0.2950
   74CHL1   C17 7906   6.378   6.519   7.596  0.1986  0.0564 -0.4933
   74CHL1   H17 7907   6.267   6.515   7.607  0.2028 -1.3265 -0.7196
   74CHL1   C13 7908   6.406   6.471   7.456  0.2493  0.5409  0.1764
   74CHL1   C18 7909   6.557   6.460   7.442 -0.1674  0.0009 -0.1884
   74CHL1  H18A 7910   6.594   6.380   7.509  1.1835  1.3699  0.7914
   74CHL1  H18B 7911   6.584   6.444   7.335  0.4847  0.9022 -0.1704
   74CHL1  H18C 7912   6.604   6.555   7.476  0.7395 -0.4105 -0.2639
   74CHL1   C12 7913   6.329   6.346   7.404  0.2698  0.6238  0.2064
   74CHL1  H12A 7914   6.360   6.254   7.459 -1.9080 -0.3195 -0.0514
   74CHL1  H12B 7915   6.219   6.348   7.418  0.0953  0.6700 -1.0330
   74CHL1   C11 7916   6.351   6.325   7.252  0.7244 -0.1959  0.8342
   74CHL1  H11A 7917   6.458   6.294   7.244  0.6240 -0.3211 -0.1440
   74CHL1  H11B 7918   6.284   6.240   7.229  1.6334 -0.4777 -0.9569
   74CHL1    C9 7919   6.316   6.452   7.165  0.3973  0.6796 -0.3299
   74CHL1    H9 7920   6.207   6.474   7.170  0.1046 -0.7965  0.1100
   74CHL1   C10 7921   6.337   6.427   7.012  0.0377 -1.1635  0.4205
   74CHL1   C19 7922   6.485   6.400   6.975  0.1041  0.5177  0.1775
   74CHL1  H19A 7923   6.487   6.379   6.866 -2.2629 -0.7791  0.3102
   74CHL1  H19B 7924   6.561   6.479   6.991  0.5259  0.2293 -0.3815
   74CHL1  H19C 7925   6.527   6.313   7.029  0.5269 -0.8151 -2.1680
   74CHL1    C1 7926   6.251   6.311   6.962 -0.4334 -0.2060  0.4181
   74CHL1   H1A 7927   6.301   6.220   7.000 -1.5109 -0.5388  1.0988
   74CHL1   H1B 7928   6.152   6.319   7.013  1.1926 -1.1685  4.0628
   74CHL1    C2 7929   6.230   6.307   6.810 -0.3083 -0.1435  0.4034
   74CHL1   H2A 7930   6.159   6.225   6.784 -1.6357  1.0631  0.0662
   74CHL1   H2B 7931   6.325   6.284   6.758  0.6000 -1.2022  2.4321
   74CHL1   C20 7932   6.426   6.444   7.723 -1.3862 -0.0987 -0.2460
   74CHL1   H20 7933   6.536   6.461   7.710 -1.0116 -0.9624  1.5168
   74CHL1   C21 7934   6.410   6.293   7.713  0.1143  0.1473  0.7692
   74CHL1  H21A 7935   6.450   6.253   7.809 -0.0028 -0.4368  0.5829
   74CHL1  H21B 7936   6.479   6.241   7.643  0.3507  2.6678 -1.0110
   74CHL1  H21C 7937   6.304   6.262   7.697  0.2459 -0.6797  1.4329
   74CHL1   C22 7938   6.388   6.510   7.855 -0.5021  0.3002  0.6683
   74CHL1  H22A 7939   6.383   6.621   7.854 -1.1334  0.2706  0.0407
   74CHL1  H22B 7940   6.281   6.493   7.877 -0.0103 -2.7240  1.2143
   74CHL1   C23 7941   6.462   6.463   7.987 -0.2937 -0.1469 -0.1283
   74CHL1  H23A 7942   6.449   6.356   8.016 -1.5329 -0.0887 -0.3999
   74CHL1  H23B 7943   6.572   6.473   7.977 -0.4326  1.8436  0.0566
   74CHL1   C24 7944   6.407   6.546   8.105 -0.1882  0.5906 -0.5694
   74CHL1  H24A 7945   6.400   6.656   8.087  0.2765  0.9161  1.0202
   74CHL1  H24B 7946   6.302   6.512   8.115  0.0293 -0.6815 -2.2344
   74CHL1   C25 7947   6.480   6.526   8.241  0.1415  0.6545 -0.3979
   74CHL1   H25 7948   6.528   6.623   8.265 -1.1516  1.4288 -0.8340
   74CHL1   C26 7949   6.371   6.498   8.350  0.3346 -0.0392 -0.0761
   74CHL1  H26A 7950   6.336   6.393   8.345 -0.6512  0.1796  1.6500
   74CHL1  H26B 7951   6.412   6.508   8.453 -0.3309 -3.7088  0.6927
   74CHL1  H26C 7952   6.288   6.570   8.336  0.9492  0.7189  0.0644
   74CHL1   C27 7953   6.577   6.411   8.245 -0.6447 -0.4267  0.8948
   74CHL1  H27A 7954   6.603   6.398   8.352 -1.2236  1.1056  1.2462
   74CHL1  H27B 7955   6.536   6.315   8.207 -2.7365  1.3981 -1.8563
   74CHL1  H27C 7956   6.669   6.423   8.183 -0.4380 -1.7557  0.9160
   75CHL1    C3 7957   2.914   0.738   6.806 -1.1615  0.5973  0.4641
   75CHL1    H3 7958   2.815   0.690   6.815 -2.3034  2.7414  0.1423
   75CHL1    O3 7959   2.945   0.744   6.668  0.3483  0.0413 -0.3737
   75CHL1   H3' 7960   3.029   0.790   6.660  0.5174 -0.5596 -2.8636
   75CHL1    C4 7961   2.920   0.878   6.872 -0.6304  0.1149 -0.0997
   75CHL1   H4A 7962   3.020   0.926   6.864 -0.6105 -0.2358 -3.5793
   75CHL1   H4B 7963   2.855   0.948   6.815 -1.6844  0.1921  1.1610
   75CHL1    C5 7964   2.885   0.873   7.018  0.3794 -0.0109 -1.2883
   75CHL1    C6 7965   2.777   0.935   7.070 -0.4806 -0.3003  0.2396
   75CHL1    H6 7966   2.727   1.000   6.997 -2.1262 -0.6196  1.0370
   75CHL1    C7 7967   2.743   0.935   7.214 -0.0525 -0.7793 -0.0944
   75CHL1   H7A 7968   2.715   1.040   7.235  0.2917 -0.3758 -1.5241
   75CHL1   H7B 7969   2.658   0.867   7.235 -0.1303 -0.9806 -1.0345
   75CHL1    C8 7970   2.864   0.882   7.308  0.4716  0.2025  0.6971
   75CHL1    H8 7971   2.947   0.956   7.312  0.4708  0.3012 -0.7314
   75CHL1   C14 7972   2.809   0.853   7.452 -0.2495  0.6838  0.0226
   75CHL1   H14 7973   2.722   0.784   7.449 -0.6162  0.9456  2.6344
   75CHL1   C15 7974   2.735   0.972   7.513  0.1437 -0.6139  0.9148
   75CHL1  H15A 7975   2.799   1.062   7.515 -3.8149  2.5048  1.9521
   75CHL1  H15B 7976   2.638   0.990   7.462  1.1918 -0.5271 -1.1402
   75CHL1   C16 7977   2.726   0.926   7.657 -0.6267  0.4656 -0.2280
   75CHL1  H16A 7978   2.767   1.006   7.721  1.0254 -1.4878  1.2824
   75CHL1  H16B 7979   2.621   0.908   7.690  0.6468 -1.5335  3.2088
   75CHL1   C17 7980   2.819   0.793   7.671 -0.1982 -0.1327  1.1605
   75CHL1   H17 7981   2.744   0.711   7.670 -0.6013  0.0989 -2.7561
   75CHL1   C13 7982   2.908   0.802   7.549 -0.0863  0.2245  0.0920
   75CHL1   C18 7983   3.023   0.907   7.578 -0.3898  0.2456 -0.3338
   75CHL1  H18A 7984   3.057   0.961   7.487  2.5203  1.4637  1.3480
   75CHL1  H18B 7985   2.995   0.980   7.656 -0.2050 -1.4987  1.4228
   75CHL1  H18C 7986   3.114   0.854   7.615 -1.2570 -1.7771 -0.9626
   75CHL1   C12 7987   2.970   0.670   7.497  0.2564  0.2322  0.0817
   75CHL1  H12A 7988   3.052   0.647   7.568 -0.3018 -2.2675  0.0091
   75CHL1  H12B 7989   2.892   0.592   7.502 -0.3448  0.8263  0.2236
   75CHL1   C11 7990   3.020   0.677   7.348 -0.2757 -0.2990 -0.1675
   75CHL1  H11A 7991   3.122   0.720   7.349 -0.8690  1.2791 -1.3207
   75CHL1  H11B 7992   3.040   0.577   7.304  0.6500  0.4263 -1.4732
   75CHL1    C9 7993   2.920   0.756   7.249  0.1648 -0.2831 -0.2115
   75CHL1    H9 7994   2.828   0.697   7.233  0.3148 -0.0753 -2.1008
   75CHL1   C10 7995   2.972   0.780   7.101  0.2448  0.2048  0.3714
   75CHL1   C19 7996   3.116   0.834   7.111  0.0467  0.4743  0.9649
   75CHL1  H19A 7997   3.160   0.877   7.019  1.3120 -0.9050  0.8893
   75CHL1  H19B 7998   3.115   0.915   7.188  1.5084  1.6038 -0.1513
   75CHL1  H19C 7999   3.185   0.751   7.137  0.8208  0.4777 -0.9335
   75CHL1    C1 8000   2.967   0.639   7.026 -0.5625  0.7574  0.1994
   75CHL1   H1A 8001   3.042   0.569   7.067 -0.5390  1.0544  0.6779
   75CHL1   H1B 8002   2.867   0.592   7.035 -1.9971  3.8445  2.4691
   75CHL1    C2 8003   3.007   0.642   6.879  0.2939  0.1913 -0.6470
   75CHL1   H2A 8004   3.007   0.541   6.832  0.4380 -0.1079 -0.0186
   75CHL1   H2B 8005   3.110   0.681   6.863 -0.5388  2.3388 -1.2415
   75CHL1   C20 8006   2.895   0.782   7.810 -0.1168  0.9648 -0.0603
   75CHL1   H20 8007   2.943   0.880   7.825 -0.6261  1.2840 -0.4604
   75CHL1   C21 8008   3.001   0.666   7.819 -0.2034  0.2956  0.1516
   75CHL1  H21A 8009   2.976   0.577   7.758  2.8354 -0.5548 -0.0197
   75CHL1  H21B 8010   3.021   0.642   7.926  1.5845  3.8803  0.7905
   75CHL1  H21C 8011   3.102   0.693   7.782 -0.5802  1.5365 -0.0209
   75CHL1   C22 8012   2.798   0.757   7.921 -0.3460  0.1675 -0.6014
   75CHL1  H22A 8013   2.693   0.786   7.899  0.0893  1.8325 -0.6287
   75CHL1  H22B 8014   2.801   0.648   7.942  1.2617  0.4711  0.9506
   75CHL1   C23 8015   2.829   0.832   8.050 -0.2981  0.5182 -0.4457
   75CHL1  H23A 8016   2.930   0.795   8.078 -0.5575 -0.0399 -0.2264
   75CHL1  H23B 8017   2.829   0.941   8.030  1.0230  0.7349  0.5631
   75CHL1   C24 8018   2.723   0.796   8.160 -0.2297 -0.0676  0.4770
   75CHL1  H24A 8019   2.633   0.855   8.131  0.5769  0.5178 -0.9321
   75CHL1  H24B 8020   2.705   0.686   8.154  0.7926 -0.1997 -0.4212
   75CHL1   C25 8021   2.773   0.845   8.301 -0.4395  0.7513  0.0409
   75CHL1   H25 8022   2.874   0.805   8.326 -0.0539  1.0945 -0.9156
   75CHL1   C26 8023   2.813   0.997   8.297 -0.1583 -0.3853  0.4618
   75CHL1  H26A 8024   2.730   1.063   8.262  0.9257 -0.3722 -2.3785
   75CHL1  H26B 8025   2.855   1.025   8.395  2.0113 -0.9265 -0.2541
   75CHL1  H26C 8026   2.894   1.017   8.224 -0.7044 -0.4161 -0.1701
   75CHL1   C27 8027   2.690   0.815   8.429  0.1315  0.1042 -0.2260
   75CHL1  H27A 8028   2.591   0.864   8.427  2.2093  4.9964  0.8654
   75CHL1  H27B 8029   2.688   0.705   8.442  0.4802  0.2441  1.2175
   75CHL1  H27C 8030   2.746   0.852   8.518  1.1305 -0.3772 -0.6346
   76CHL1    C3 8031   4.292   1.675   7.295  0.7763  0.8204 -0.7241
   76CHL1    H3 8032   4.345   1.772   7.310  1.1674  0.4366  0.5173
   76CHL1    O3 8033   4.280   1.656   7.155 -0.1436 -0.2092 -0.4239
   76CHL1   H3' 8034   4.252   1.565   7.142  1.2650 -0.5373 -1.4641
   76CHL1    C4 8035   4.355   1.548   7.355 -0.1155  0.6165 -0.1479
   76CHL1   H4A 8036   4.297   1.462   7.315 -0.8971  1.6944 -1.4376
   76CHL1   H4B 8037   4.456   1.539   7.311 -0.5223 -1.4245 -0.7707
   76CHL1    C5 8038   4.358   1.539   7.505 -0.8006  0.4663 -0.3784
   76CHL1    C6 8039   4.474   1.522   7.578 -0.1681 -0.2580  0.7365
   76CHL1    H6 8040   4.568   1.515   7.522 -0.3263 -1.9743  0.6415
   76CHL1    C7 8041   4.482   1.498   7.721 -0.3004 -0.3467 -0.0488
   76CHL1   H7A 8042   4.533   1.404   7.750 -1.2883 -0.6484  0.7885
   76CHL1   H7B 8043   4.539   1.580   7.770  0.4963  0.6837 -2.5397
   76CHL1    C8 8044   4.339   1.492   7.788 -0.0081  0.5347  0.7383
   76CHL1    H8 8045   4.304   1.387   7.780 -1.5468  1.0126  0.7535
   76CHL1   C14 8046   4.342   1.518   7.935 -0.2108  0.5983 -0.3329
   76CHL1   H14 8047   4.383   1.620   7.953  1.0204  0.1694 -0.6191
   76CHL1   C15 8048   4.437   1.438   8.019 -0.0289  0.5551 -0.6678
   76CHL1  H15A 8049   4.413   1.330   8.010  0.8495  0.3260 -0.4372
   76CHL1  H15B 8050   4.543   1.448   7.986  0.0529  2.3340  0.0086
   76CHL1   C16 8051   4.408   1.488   8.163 -0.0180 -0.2418  0.3022
   76CHL1  H16A 8052   4.400   1.394   8.222  2.7369  1.0128  2.8876
   76CHL1  H16B 8053   4.482   1.553   8.212  0.9240 -0.1182 -1.2249
   76CHL1   C17 8054   4.261   1.553   8.153  0.5382 -0.2919 -0.2378
   76CHL1   H17 8055   4.263   1.664   8.152 -0.5229 -0.2560  0.3152
   76CHL1   C13 8056   4.205   1.525   8.008  0.0899 -0.3328  0.0584
   76CHL1   C18 8057   4.143   1.390   8.018 -0.5479  0.1086  0.7700
   76CHL1  H18A 8058   4.212   1.306   8.039  0.3554  1.3099  2.9814
   76CHL1  H18B 8059   4.055   1.385   8.086  0.4110 -0.1247  2.0474
   76CHL1  H18C 8060   4.104   1.357   7.920 -1.9541  2.4521  0.4592
   76CHL1   C12 8061   4.112   1.630   7.946 -0.3607  0.0202  0.0213
   76CHL1  H12A 8062   4.013   1.622   7.996 -0.5309 -1.6767 -0.5162
   76CHL1  H12B 8063   4.138   1.735   7.972 -1.4858  0.2160  0.4343
   76CHL1   C11 8064   4.101   1.598   7.802  0.1142 -0.4689 -0.2304
   76CHL1  H11A 8065   4.039   1.507   7.792 -0.4425 -0.5590  3.0579
   76CHL1  H11B 8066   4.037   1.678   7.759 -0.0072  0.9330  2.3507
   76CHL1    C9 8067   4.232   1.584   7.723  0.2464 -0.1491 -0.2861
   76CHL1    H9 8068   4.275   1.684   7.745 -1.4252  0.2045  1.6496
   76CHL1   C10 8069   4.214   1.558   7.570 -0.4208 -0.2464 -0.4278
   76CHL1   C19 8070   4.124   1.428   7.543  0.9245  0.4310 -0.1191
   76CHL1  H19A 8071   4.167   1.331   7.577 -1.0374 -1.2086 -1.9406
   76CHL1  H19B 8072   4.031   1.437   7.603 -0.8124 -1.8155 -2.2466
   76CHL1  H19C 8073   4.101   1.418   7.434 -0.8571 -0.7180  0.3153
   76CHL1    C1 8074   4.139   1.683   7.523 -0.3218 -0.0019  0.3756
   76CHL1   H1A 8075   4.034   1.685   7.557 -0.7921  3.6008 -0.8762
   76CHL1   H1B 8076   4.184   1.777   7.562  0.2298  0.0122 -0.2845
   76CHL1    C2 8077   4.141   1.694   7.360 -0.1084 -0.2120  0.0118
   76CHL1   H2A 8078   4.093   1.785   7.318  0.0443 -0.0762  0.1311
   76CHL1   H2B 8079   4.075   1.608   7.338  0.8625 -0.9618 -0.0056
   76CHL1   C20 8080   4.171   1.544   8.277  0.8716  0.0104 -0.4741
   76CHL1   H20 8081   4.149   1.436   8.291 -0.8536  0.3564 -0.3455
   76CHL1   C21 8082   4.033   1.614   8.258  0.1660 -0.3530  0.4004
   76CHL1  H21A 8083   3.967   1.572   8.179 -1.4403 -2.7391  2.8166
   76CHL1  H21B 8084   4.059   1.718   8.228  1.5404 -0.1752  2.0547
   76CHL1  H21C 8085   3.975   1.614   8.352  1.2586 -2.6126  1.1407
   76CHL1   C22 8086   4.238   1.602   8.408 -1.4940  0.3569 -0.1522
   76CHL1  H22A 8087   4.343   1.566   8.404 -1.3275  0.7763  0.3065
   76CHL1  H22B 8088   4.228   1.712   8.406 -1.9990  0.3443  0.9776
   76CHL1   C23 8089   4.188   1.552   8.540  0.7707 -0.2999  0.7358
   76CHL1  H23A 8090   4.082   1.582   8.556  1.1755  2.9254 -1.7164
   76CHL1  H23B 8091   4.191   1.441   8.531  0.0778 -0.4643  2.1631
   76CHL1   C24 8092   4.271   1.590   8.663 -0.0567 -0.3359 -0.0246
   76CHL1  H24A 8093   4.249   1.527   8.751 -0.5502  1.5858  1.2886
   76CHL1  H24B 8094   4.373   1.556   8.634 -0.3404 -1.4385  0.2317
   76CHL1   C25 8095   4.260   1.734   8.698  0.4284  0.2386 -0.5146
   76CHL1   H25 8096   4.229   1.792   8.609  2.6560 -0.3916 -1.7887
   76CHL1   C26 8097   4.146   1.749   8.803  0.4396  0.5139 -0.2538
   76CHL1  H26A 8098   4.144   1.853   8.842  0.9482  0.8315 -1.0581
   76CHL1  H26B 8099   4.047   1.712   8.768  1.1896 -0.5035 -1.3981
   76CHL1  H26C 8100   4.183   1.695   8.894 -2.6020  0.3780  1.0318
   76CHL1   C27 8101   4.399   1.786   8.744  0.3443  0.4855 -0.0116
   76CHL1  H27A 8102   4.399   1.895   8.763 -0.2665  0.7775 -1.5615
   76CHL1  H27B 8103   4.429   1.744   8.842  0.7998  3.7832  1.3707
   76CHL1  H27C 8104   4.465   1.755   8.659 -1.2489 -0.3097 -1.0124
   77CHL1    C3 8105   5.431   0.178   6.908 -0.0385 -0.4420 -0.6543
   77CHL1    H3 8106   5.451   0.070   6.927 -3.0662 -0.9411  0.1588
   77CHL1    O3 8107   5.377   0.200   6.777  0.2073  0.3253  0.7743
   77CHL1   H3' 8108   5.366   0.110   6.745 -2.2168 -0.4500  3.3338
   77CHL1    C4 8109   5.326   0.215   7.014  0.0609 -0.7971  0.6097
   77CHL1   H4A 8110   5.284   0.317   7.001  3.2499  0.4460 -0.8998
   77CHL1   H4B 8111   5.236   0.152   6.999  0.6451 -1.4294 -0.3425
   77CHL1    C5 8112   5.375   0.199   7.156  0.4187  0.3948  0.2976
   77CHL1    C6 8113   5.313   0.111   7.236  0.0414 -0.2748 -0.5679
   77CHL1    H6 8114   5.217   0.066   7.207 -0.7641  1.7569 -1.2695
   77CHL1    C7 8115   5.366   0.086   7.370 -0.8473 -0.7303 -0.0641
   77CHL1   H7A 8116   5.285   0.063   7.443 -0.0422 -1.1121  0.7251
   77CHL1   H7B 8117   5.434  -0.001   7.374  0.3999  0.2311  0.2652
   77CHL1    C8 8118   5.462   0.208   7.426  0.5773  0.5247  0.5470
   77CHL1    H8 8119   5.387   0.290   7.428 -0.4487 -0.3847 -0.1185
   77CHL1   C14 8120   5.523   0.167   7.557  0.9607 -0.1235  0.4168
   77CHL1   H14 8121   5.584   0.075   7.541  0.8467  0.1652 -2.1878
   77CHL1   C15 8122   5.420   0.150   7.673 -0.0570  0.1881  0.1789
   77CHL1  H15A 8123   5.336   0.222   7.664  0.7659  1.4926  2.3373
   77CHL1  H15B 8124   5.383   0.045   7.668 -0.1519  0.2490 -0.5272
   77CHL1   C16 8125   5.499   0.180   7.801 -0.3116 -0.5217  0.1138
   77CHL1  H16A 8126   5.451   0.261   7.861  0.7693 -1.7903  2.8910
   77CHL1  H16B 8127   5.515   0.096   7.872 -2.5528 -0.1241  1.1884
   77CHL1   C17 8128   5.642   0.233   7.746 -0.1085 -0.6284  0.1595
   77CHL1   H17 8129   5.707   0.144   7.729  0.7034 -0.4052  1.9158
   77CHL1   C13 8130   5.617   0.282   7.603  1.0927  0.6459  0.1443
   77CHL1   C18 8131   5.541   0.415   7.609  0.5098  0.4949  0.3834
   77CHL1  H18A 8132   5.499   0.437   7.508  1.5581 -0.6286 -0.3193
   77CHL1  H18B 8133   5.456   0.408   7.680 -0.8226 -0.9741 -1.2439
   77CHL1  H18C 8134   5.614   0.495   7.631  0.5460  0.3910  0.6440
   77CHL1   C12 8135   5.733   0.292   7.510  0.1680  1.0987 -0.7615
   77CHL1  H12A 8136   5.801   0.365   7.559 -0.1557 -0.1063  1.6146
   77CHL1  H12B 8137   5.782   0.192   7.506  1.5481  1.7138  0.0740
   77CHL1   C11 8138   5.687   0.322   7.371  0.1496  0.2947  0.6244
   77CHL1  H11A 8139   5.656   0.428   7.377 -0.6048  0.0629  0.9930
   77CHL1  H11B 8140   5.773   0.312   7.301 -0.0956  3.8146 -0.3716
   77CHL1    C9 8141   5.570   0.227   7.322 -0.0120  0.6461 -0.0033
   77CHL1    H9 8142   5.615   0.127   7.306  0.3025  0.3672  2.3622
   77CHL1   C10 8143   5.508   0.274   7.190 -0.3805  0.1694 -0.2231
   77CHL1   C19 8144   5.490   0.427   7.206 -0.9631 -0.3289  0.0859
   77CHL1  H19A 8145   5.584   0.484   7.193 -0.3796 -0.8253  1.8573
   77CHL1  H19B 8146   5.421   0.456   7.123  0.6904 -1.2335 -1.6722
   77CHL1  H19C 8147   5.440   0.466   7.297  0.9521  0.9900  0.6225
   77CHL1    C1 8148   5.609   0.261   7.072  0.2672 -0.2459 -0.6292
   77CHL1   H1A 8149   5.690   0.336   7.086 -1.3270  1.3000  0.7650
   77CHL1   H1B 8150   5.649   0.158   7.077 -3.2888 -1.7192  1.3524
   77CHL1    C2 8151   5.549   0.271   6.928 -0.0066  0.7580  0.1017
   77CHL1   H2A 8152   5.629   0.247   6.855 -0.1743  0.4585  0.0148
   77CHL1   H2B 8153   5.531   0.376   6.898  2.0361  1.1728  0.2064
   77CHL1   C20 8154   5.715   0.324   7.851  0.5565  0.5067  0.6647
   77CHL1   H20 8155   5.800   0.378   7.805 -0.8900  1.6549 -0.8017
   77CHL1   C21 8156   5.758   0.227   7.960  0.1556 -0.3615  0.7628
   77CHL1  H21A 8157   5.839   0.267   8.025  1.2566 -2.1998  0.6054
   77CHL1  H21B 8158   5.816   0.147   7.910  1.9157  2.5262 -2.1716
   77CHL1  H21C 8159   5.672   0.187   8.019  0.3922 -3.0425 -0.5409
   77CHL1   C22 8160   5.636   0.437   7.922  0.1038  0.7925 -0.5626
   77CHL1  H22A 8161   5.590   0.509   7.851 -1.3514 -1.7892 -2.4128
   77CHL1  H22B 8162   5.561   0.376   7.977  1.1156  0.8408  0.9283
   77CHL1   C23 8163   5.722   0.519   8.021  0.6046  0.4386 -0.3779
   77CHL1  H23A 8164   5.768   0.448   8.093  0.0176 -1.8253 -2.1057
   77CHL1  H23B 8165   5.799   0.585   7.978 -0.9059  0.3817 -3.4286
   77CHL1   C24 8166   5.627   0.603   8.118 -0.3602 -0.0960 -0.1348
   77CHL1  H24A 8167   5.600   0.697   8.065  1.4728  0.2591 -0.5363
   77CHL1  H24B 8168   5.541   0.541   8.150  0.3748 -0.3841  1.3789
   77CHL1   C25 8169   5.698   0.636   8.249  0.1783 -0.2693 -0.3587
   77CHL1   H25 8170   5.748   0.543   8.284  1.2819  1.0644  1.8607
   77CHL1   C26 8171   5.800   0.743   8.244 -0.4143  0.1074  0.5189
   77CHL1  H26A 8172   5.885   0.722   8.176 -0.4206 -0.6740  0.7429
   77CHL1  H26B 8173   5.752   0.841   8.221  0.7427  0.5665 -0.0334
   77CHL1  H26C 8174   5.841   0.759   8.346 -0.2891  1.2580  0.3036
   77CHL1   C27 8175   5.592   0.677   8.351  0.2389 -0.1179 -0.6701
   77CHL1  H27A 8176   5.631   0.689   8.454  0.1548 -0.9012 -0.5414
   77CHL1  H27B 8177   5.545   0.775   8.326 -1.4229  0.0087  2.4904
   77CHL1  H27C 8178   5.509   0.603   8.355 -1.8580  2.1350  1.2024
   78CHL1    C3 8179   0.007   1.957   6.799 -0.4813  0.4152  0.4401
   78CHL1    H3 8180   0.115   1.933   6.793 -0.9770 -2.0942  0.5079
   78CHL1    O3 8181  -0.066   1.928   6.674  0.1626  0.0065  0.1854
   78CHL1   H3' 8182  -0.151   1.974   6.672  0.5398  0.6914 -0.6157
   78CHL1    C4 8183  -0.051   1.857   6.899  0.1375  0.5420  0.0485
   78CHL1   H4A 8184  -0.161   1.872   6.888  0.3014  1.5478 -0.3541
   78CHL1   H4B 8185  -0.020   1.756   6.865  1.4509 -0.1318  2.9195
   78CHL1    C5 8186  -0.005   1.885   7.041  0.2382 -0.0714  0.5514
   78CHL1    C6 8187   0.050   1.791   7.117 -0.0451  0.3327  0.1880
   78CHL1    H6 8188   0.070   1.694   7.068  0.6120 -1.1431  3.1452
   78CHL1    C7 8189   0.095   1.815   7.261 -0.3020 -0.0988 -0.1358
   78CHL1   H7A 8190   0.061   1.731   7.326  1.3325 -2.4875 -2.1762
   78CHL1   H7B 8191   0.204   1.825   7.283 -0.3432  0.2383 -0.0829
   78CHL1    C8 8192   0.028   1.937   7.323 -0.2497 -0.4542 -0.1894
   78CHL1    H8 8193  -0.078   1.918   7.348 -0.3117 -0.2639 -0.3018
   78CHL1   C14 8194   0.096   1.985   7.456  0.2452  0.0227 -1.2206
   78CHL1   H14 8195   0.197   2.016   7.423  0.7113 -0.1392  0.0023
   78CHL1   C15 8196   0.122   1.883   7.569  0.3467 -0.4076  0.1214
   78CHL1  H15A 8197   0.029   1.822   7.578  0.8637 -1.4062 -1.0853
   78CHL1  H15B 8198   0.209   1.819   7.547  0.1866 -0.4418 -0.4324
   78CHL1   C16 8199   0.149   1.973   7.689  0.1447  0.1087 -1.2363
   78CHL1  H16A 8200   0.091   1.943   7.779 -1.6332 -1.7652 -2.8973
   78CHL1  H16B 8201   0.258   1.970   7.711  0.4478 -3.0373 -2.5583
   78CHL1   C17 8202   0.125   2.122   7.648 -0.1199 -0.4713 -0.4275
   78CHL1   H17 8203   0.223   2.168   7.621 -0.6829  2.5100  2.0922
   78CHL1   C13 8204   0.038   2.115   7.516  0.1582  0.7437 -0.4186
   78CHL1   C18 8205  -0.101   2.079   7.561  0.1120 -0.0033 -0.3191
   78CHL1  H18A 8206  -0.103   2.002   7.642  2.6231  1.1768  1.0019
   78CHL1  H18B 8207  -0.161   2.161   7.606 -1.0402 -0.7737 -0.4074
   78CHL1  H18C 8208  -0.162   2.036   7.479  0.5234 -0.7430 -0.2462
   78CHL1   C12 8209   0.057   2.230   7.416  0.7551  0.9147 -0.3099
   78CHL1  H12A 8210   0.030   2.333   7.448  2.1496  1.1150  0.2928
   78CHL1  H12B 8211   0.167   2.237   7.404  0.7433  1.5506 -0.0665
   78CHL1   C11 8212  -0.007   2.191   7.281  0.0387  0.1344  0.0479
   78CHL1  H11A 8213  -0.117   2.204   7.290  0.1719  0.5410  1.3715
   78CHL1  H11B 8214   0.034   2.260   7.205 -0.1559  0.0367 -0.1465
   78CHL1    C9 8215   0.039   2.060   7.229  0.5374 -0.4972  0.3462
   78CHL1    H9 8216   0.149   2.069   7.220  0.5387 -1.3982 -0.7926
   78CHL1   C10 8217  -0.021   2.036   7.090  0.4710  0.6751  0.0109
   78CHL1   C19 8218  -0.176   2.051   7.092 -0.2429  0.5107  0.5371
   78CHL1  H19A 8219  -0.204   2.158   7.108  0.7650  1.4059 -2.8053
   78CHL1  H19B 8220  -0.230   2.025   6.998 -1.7774  1.0201  1.2378
   78CHL1  H19C 8221  -0.224   1.992   7.173 -0.3772  0.0041  0.0957
   78CHL1    C1 8222   0.035   2.139   6.980  0.1710  0.0989  0.0198
   78CHL1   H1A 8223  -0.007   2.240   7.005  0.9294  0.5790 -0.6133
   78CHL1   H1B 8224   0.145   2.138   6.973  0.2726  2.4865  0.2869
   78CHL1    C2 8225  -0.006   2.107   6.835 -0.0858 -0.4960 -1.0659
   78CHL1   H2A 8226   0.049   2.169   6.761  0.2467  0.6221  0.0851
   78CHL1   H2B 8227  -0.113   2.136   6.837  0.6876  2.7775  2.1797
   78CHL1   C20 8228   0.074   2.214   7.759 -0.3600  0.1627 -0.5886
   78CHL1   H20 8229  -0.021   2.163   7.788 -0.1352 -1.2575 -2.1819
   78CHL1   C21 8230   0.039   2.354   7.714 -0.4532 -0.2153  0.1736
   78CHL1  H21A 8231  -0.004   2.415   7.797 -1.4076 -0.6545  0.0123
   78CHL1  H21B 8232  -0.036   2.362   7.633  1.7831  0.2226 -1.9793
   78CHL1  H21C 8233   0.117   2.411   7.659 -1.1927  2.0979  1.3683
   78CHL1   C22 8234   0.179   2.216   7.872  0.7704  0.4992 -0.0655
   78CHL1  H22A 8235   0.189   2.114   7.913 -3.1603 -0.8301 -1.8558
   78CHL1  H22B 8236   0.271   2.240   7.816  0.9594 -0.9921 -0.4387
   78CHL1   C23 8237   0.151   2.321   7.985  0.3547 -0.0642  0.0745
   78CHL1  H23A 8238   0.200   2.416   7.952 -0.4205  0.1393 -0.5371
   78CHL1  H23B 8239   0.042   2.322   8.008  0.7697 -0.9775  2.2764
   78CHL1   C24 8240   0.227   2.278   8.118 -0.3160  0.1321  0.8769
   78CHL1  H24A 8241   0.186   2.184   8.160 -0.2905 -0.0806  0.4354
   78CHL1  H24B 8242   0.336   2.268   8.101 -0.1954  2.7602 -0.3087
   78CHL1   C25 8243   0.199   2.378   8.227  0.2672  0.2580 -0.4118
   78CHL1   H25 8244   0.204   2.485   8.197 -1.8303  0.8751  1.1595
   78CHL1   C26 8245   0.055   2.359   8.290 -0.0277  0.0819 -0.7169
   78CHL1  H26A 8246   0.041   2.263   8.344  0.3789  0.4421  0.0352
   78CHL1  H26B 8247   0.034   2.438   8.365  2.2100  0.7331 -0.6992
   78CHL1  H26C 8248  -0.028   2.354   8.216 -0.6768 -1.1052  0.0559
   78CHL1   C27 8249   0.301   2.351   8.336 -0.4315  0.3759 -0.0033
   78CHL1  H27A 8250   0.405   2.355   8.297  0.2642 -3.3844  1.0408
   78CHL1  H27B 8251   0.299   2.411   8.430  0.5490  1.9157 -0.9248
   78CHL1  H27C 8252   0.285   2.245   8.364  1.9146  0.4428  1.8977
   79CHL1    C3 8253   4.976   1.527   7.272  0.1528  0.2528  0.4256
   79CHL1    H3 8254   4.987   1.608   7.347  2.0841  0.7048 -0.2830
   79CHL1    O3 8255   5.004   1.578   7.144 -0.2102  0.1277  0.3742
   79CHL1   H3' 8256   4.935   1.642   7.125 -0.6612 -0.7056 -0.9783
   79CHL1    C4 8257   5.095   1.429   7.301  0.2812  0.1673 -0.6065
   79CHL1   H4A 8258   5.100   1.342   7.232 -0.0357 -0.3661  0.0329
   79CHL1   H4B 8259   5.187   1.490   7.287 -0.8397  2.2779  0.8231
   79CHL1    C5 8260   5.083   1.385   7.449  0.2094  0.0289 -0.2770
   79CHL1    C6 8261   5.172   1.416   7.544  0.1859  0.6873  0.8049
   79CHL1    H6 8262   5.259   1.481   7.525 -1.0296  2.0109 -0.4583
   79CHL1    C7 8263   5.157   1.379   7.693  0.1960  0.3750  0.0875
   79CHL1   H7A 8264   5.258   1.346   7.724  0.1180  0.3449  0.3115
   79CHL1   H7B 8265   5.134   1.478   7.738  0.4507  1.2985 -1.7055
   79CHL1    C8 8266   5.042   1.276   7.722  0.0696  0.5703  0.2169
   79CHL1    H8 8267   5.095   1.182   7.693  1.6202  0.8630  1.8778
   79CHL1   C14 8268   5.013   1.266   7.865  0.0654  0.1233 -0.3999
   79CHL1   H14 8269   4.958   1.355   7.901  2.2576  1.1966  0.4694
   79CHL1   C15 8270   5.128   1.264   7.967 -0.1726 -0.3048 -0.2674
   79CHL1  H15A 8271   5.217   1.219   7.918 -0.2957 -0.6485 -0.1766
   79CHL1  H15B 8272   5.164   1.368   7.980 -0.6081 -0.3490  1.7092
   79CHL1   C16 8273   5.071   1.201   8.098 -0.2434  0.3567  0.1674
   79CHL1  H16A 8274   5.128   1.107   8.114  2.0522  1.5244 -0.6578
   79CHL1  H16B 8275   5.086   1.268   8.185 -0.7281 -0.5805  0.9894
   79CHL1   C17 8276   4.919   1.164   8.058  0.4859 -0.0587 -0.0711
   79CHL1   H17 8277   4.860   1.255   8.084  0.5534 -0.2363  0.7238
   79CHL1   C13 8278   4.917   1.151   7.904  0.0628  0.2257  0.2075
   79CHL1   C18 8279   4.972   1.013   7.876 -0.6590 -0.0623 -0.2026
   79CHL1  H18A 8280   5.048   0.974   7.948  0.3967 -2.0193 -2.2617
   79CHL1  H18B 8281   4.894   0.935   7.872 -1.1106  0.4210 -0.9530
   79CHL1  H18C 8282   5.020   1.008   7.776 -1.5978  0.2854 -0.6777
   79CHL1   C12 8283   4.778   1.183   7.833  0.2173  0.0419 -0.1029
   79CHL1  H12A 8284   4.704   1.100   7.830  2.2487 -1.8284 -0.8296
   79CHL1  H12B 8285   4.739   1.277   7.878 -0.0703  0.4667 -1.2091
   79CHL1   C11 8286   4.797   1.213   7.681  0.4270 -0.9370  0.4681
   79CHL1  H11A 8287   4.785   1.123   7.617 -1.6725  0.6296 -1.4626
   79CHL1  H11B 8288   4.703   1.270   7.663  0.9926 -0.1553 -0.0723
   79CHL1    C9 8289   4.921   1.299   7.639 -0.2413 -1.1151 -0.0059
   79CHL1    H9 8290   4.895   1.400   7.680 -0.5504 -1.9667  1.9865
   79CHL1   C10 8291   4.948   1.314   7.484 -0.6750 -0.4848 -0.3100
   79CHL1   C19 8292   4.947   1.176   7.418  0.1032  0.4218 -0.0697
   79CHL1  H19A 8293   4.851   1.123   7.434  0.6243 -0.2786  0.7945
   79CHL1  H19B 8294   4.971   1.183   7.310  0.8926 -1.8953 -0.0847
   79CHL1  H19C 8295   5.026   1.110   7.460 -1.0215 -1.6624 -1.0756
   79CHL1    C1 8296   4.829   1.389   7.428  0.1054 -0.2589 -0.3303
   79CHL1   H1A 8297   4.745   1.317   7.417  1.8923 -2.1469 -2.6685
   79CHL1   H1B 8298   4.804   1.474   7.496 -1.0948  0.2772 -1.3941
   79CHL1    C2 8299   4.842   1.449   7.284  0.3633  0.1140 -0.0229
   79CHL1   H2A 8300   4.756   1.518   7.268  0.6728  0.2782 -0.9962
   79CHL1   H2B 8301   4.837   1.365   7.212  0.5532  0.3263 -0.2841
   79CHL1   C20 8302   4.853   1.049   8.147 -0.6090  0.4817  0.3560
   79CHL1   H20 8303   4.882   0.949   8.108 -1.5739  0.5624 -0.6128
   79CHL1   C21 8304   4.701   1.076   8.139 -0.1822 -0.3777  0.1082
   79CHL1  H21A 8305   4.676   1.184   8.148 -1.1213 -0.4341 -1.4734
   79CHL1  H21B 8306   4.644   1.013   8.210 -1.0569  3.5588  3.2631
   79CHL1  H21C 8307   4.669   1.043   8.038  1.4252 -3.2159  0.4077
   79CHL1   C22 8308   4.896   1.037   8.291  0.1006  0.0324 -0.8482
   79CHL1  H22A 8309   4.881   0.931   8.322  0.1452  1.0514  3.2538
   79CHL1  H22B 8310   5.005   1.055   8.305  0.0089  0.3140 -0.4860
   79CHL1   C23 8311   4.830   1.125   8.394 -0.1101 -0.4488  0.2319
   79CHL1  H23A 8312   4.848   1.233   8.378  0.7982 -0.6947 -0.4647
   79CHL1  H23B 8313   4.719   1.126   8.389 -0.2069  1.4311  1.6123
   79CHL1   C24 8314   4.871   1.071   8.534 -1.1020  0.2061  0.5997
   79CHL1  H24A 8315   4.858   0.961   8.538  0.7405 -0.1536 -1.3404
   79CHL1  H24B 8316   4.982   1.073   8.544 -1.0812 -0.0617  0.4174
   79CHL1   C25 8317   4.802   1.134   8.652  0.1209 -0.4311 -0.0957
   79CHL1   H25 8318   4.807   1.245   8.654 -1.1618 -0.3490 -0.5598
   79CHL1   C26 8319   4.645   1.114   8.655  0.2831 -0.7395  0.2853
   79CHL1  H26A 8320   4.597   1.211   8.679 -0.0476 -0.8708  0.1590
   79CHL1  H26B 8321   4.609   1.086   8.554  0.5226  0.3408 -0.1190
   79CHL1  H26C 8322   4.619   1.027   8.719  0.2572 -0.3526  0.8103
   79CHL1   C27 8323   4.870   1.094   8.787  0.2795 -0.3271  0.0258
   79CHL1  H27A 8324   4.849   0.986   8.803 -0.8424 -0.1887 -0.4316
   79CHL1  H27B 8325   4.980   1.107   8.775  0.2929  0.4834  0.9262
   79CHL1  H27C 8326   4.824   1.148   8.873  0.3930  0.4149 -0.3741
   80CHL1    C3 8327   6.046   5.663   6.873  0.1138 -0.5427 -0.1558
   80CHL1    H3 8328   5.958   5.610   6.830  0.6236 -0.0522 -1.8732
   80CHL1    O3 8329   6.104   5.732   6.764 -0.3400 -0.4179 -0.1503
   80CHL1   H3' 8330   6.112   5.659   6.702 -1.1132  0.4633 -1.3287
   80CHL1    C4 8331   5.996   5.774   6.977  0.0686  0.5483  0.0975
   80CHL1   H4A 8332   6.054   5.867   6.966  0.9256  0.1894  1.3352
   80CHL1   H4B 8333   5.895   5.803   6.940 -0.0740  0.0670  0.0932
   80CHL1    C5 8334   5.995   5.721   7.121 -0.1908 -0.5347 -0.5069
   80CHL1    C6 8335   5.885   5.733   7.198 -0.0613 -0.2793  0.3281
   80CHL1    H6 8336   5.800   5.787   7.154  0.0511  1.2190  1.8242
   80CHL1    C7 8337   5.870   5.689   7.340 -0.0815  0.4991 -0.1848
   80CHL1   H7A 8338   5.837   5.770   7.408 -0.1975 -0.3365  0.7786
   80CHL1   H7B 8339   5.800   5.603   7.332  1.1813 -0.5609 -0.2703
   80CHL1    C8 8340   6.005   5.642   7.399 -0.7001  0.1399  0.3727
   80CHL1    H8 8341   6.068   5.732   7.414  0.4213 -0.0795 -2.3904
   80CHL1   C14 8342   5.985   5.563   7.532 -0.4392  0.6254 -0.0503
   80CHL1   H14 8343   5.929   5.469   7.512  4.0757 -2.4779  0.4207
   80CHL1   C15 8344   5.906   5.628   7.639  0.1615  0.5853 -0.1761
   80CHL1  H15A 8345   5.929   5.736   7.625 -1.2484  0.7204 -1.6564
   80CHL1  H15B 8346   5.801   5.600   7.618  0.5648 -1.0365 -0.1484
   80CHL1   C16 8347   5.961   5.564   7.770 -0.3557  0.1283 -0.4207
   80CHL1  H16A 8348   6.002   5.646   7.833  0.4502 -1.2210  0.8814
   80CHL1  H16B 8349   5.879   5.506   7.818 -1.0714  1.7023  0.3455
   80CHL1   C17 8350   6.065   5.462   7.734  0.2388 -0.2454  0.7921
   80CHL1   H17 8351   6.012   5.369   7.704  0.4606 -0.2550  0.4197
   80CHL1   C13 8352   6.118   5.519   7.596  0.4589  0.0188  1.0097
   80CHL1   C18 8353   6.205   5.643   7.630 -0.3522  0.1555  0.3515
   80CHL1  H18A 8354   6.295   5.604   7.682 -1.1273  0.6860  2.1923
   80CHL1  H18B 8355   6.237   5.686   7.533 -0.5794 -0.7044 -0.1182
   80CHL1  H18C 8356   6.155   5.715   7.699 -0.9167  0.2358 -0.1342
   80CHL1   C12 8357   6.183   5.423   7.497  0.7881  0.0761 -0.1972
   80CHL1  H12A 8358   6.275   5.374   7.536  0.7019  0.5553  0.6418
   80CHL1  H12B 8359   6.115   5.340   7.469 -0.0496  1.5697 -2.8841
   80CHL1   C11 8360   6.207   5.487   7.361  0.3584 -0.0457 -0.2604
   80CHL1  H11A 8361   6.288   5.561   7.381  3.4061 -2.9303 -0.8529
   80CHL1  H11B 8362   6.242   5.401   7.300 -3.5860 -0.1161 -2.7434
   80CHL1    C9 8363   6.084   5.555   7.298  0.6185 -0.1486 -1.1525
   80CHL1    H9 8364   6.012   5.475   7.270 -0.0100 -0.0960  0.2322
   80CHL1   C10 8365   6.110   5.627   7.164 -0.1724 -0.3912  0.2875
   80CHL1   C19 8366   6.238   5.715   7.176  0.1439  0.5140  0.3981
   80CHL1  H19A 8367   6.330   5.653   7.177 -1.3576 -1.9196 -1.4132
   80CHL1  H19B 8368   6.258   5.771   7.082 -0.8237 -0.3614 -0.3505
   80CHL1  H19C 8369   6.240   5.792   7.255  0.4259 -0.5351  1.4474
   80CHL1    C1 8370   6.127   5.516   7.053 -0.2306  0.9200  0.2724
   80CHL1   H1A 8371   6.222   5.461   7.072 -0.7015 -0.5663 -1.3475
   80CHL1   H1B 8372   6.033   5.456   7.055 -1.1433  2.3009  0.0905
   80CHL1    C2 8373   6.154   5.571   6.922 -0.1195 -0.7231  0.8708
   80CHL1   H2A 8374   6.178   5.495   6.845 -0.0263 -0.0575  0.2255
   80CHL1   H2B 8375   6.249   5.629   6.913 -1.0967  0.7481 -0.7749
   80CHL1   C20 8376   6.162   5.431   7.851  0.3114  0.1099 -0.1000
   80CHL1   H20 8377   6.199   5.530   7.884  0.8191  0.5454 -1.8633
   80CHL1   C21 8378   6.269   5.346   7.809  0.4849 -0.0204 -0.0363
   80CHL1  H21A 8379   6.326   5.309   7.897  0.4931 -0.1214 -0.0841
   80CHL1  H21B 8380   6.349   5.379   7.739  0.9698  0.1148  0.5767
   80CHL1  H21C 8381   6.222   5.261   7.754  1.1788 -0.8306  0.5786
   80CHL1   C22 8382   6.087   5.385   7.982  0.2776  0.9818  0.4091
   80CHL1  H22A 8383   5.989   5.435   8.002 -0.2611 -0.0895  0.5262
   80CHL1  H22B 8384   6.055   5.280   7.965 -0.8107  1.3853 -0.1652
   80CHL1   C23 8385   6.173   5.402   8.107 -0.0338 -0.1527  0.0204
   80CHL1  H23A 8386   6.277   5.422   8.073 -0.0018  2.2743  1.2963
   80CHL1  H23B 8387   6.140   5.492   8.164  0.7798  1.1958 -1.5399
   80CHL1   C24 8388   6.171   5.288   8.210 -0.5484  0.3535 -0.1490
   80CHL1  H24A 8389   6.066   5.264   8.238  0.5658 -0.1370  4.3672
   80CHL1  H24B 8390   6.213   5.203   8.152  1.0656  0.3268  1.0062
   80CHL1   C25 8391   6.241   5.301   8.349 -0.3483 -0.2623 -0.5789
   80CHL1   H25 8392   6.227   5.199   8.389  0.1201  0.0321  0.3677
   80CHL1   C26 8393   6.391   5.339   8.333 -0.1070 -0.0888  0.0429
   80CHL1  H26A 8394   6.419   5.279   8.243  0.6395 -2.0298  1.4931
   80CHL1  H26B 8395   6.408   5.445   8.305 -0.4298  0.0303  0.3028
   80CHL1  H26C 8396   6.450   5.303   8.420  2.0551 -0.1872 -1.3678
   80CHL1   C27 8397   6.188   5.401   8.445  0.5122 -0.1267 -0.5422
   80CHL1  H27A 8398   6.092   5.364   8.487  1.1878 -1.4126 -0.0862
   80CHL1  H27B 8399   6.256   5.406   8.533 -1.8300  0.4102  1.3463
   80CHL1  H27C 8400   6.181   5.507   8.415  1.3880  0.7100  1.9494
   81CHL1    C3 8401   2.613   3.757   6.745 -0.3831  0.1181  0.6286
   81CHL1    H3 8402   2.593   3.648   6.755  0.9631 -0.2858 -0.6718
   81CHL1    O3 8403   2.664   3.777   6.614  0.3558  0.1769  0.2444
   81CHL1   H3' 8404   2.586   3.800   6.563 -0.9311  0.5539  2.2959
   81CHL1    C4 8405   2.481   3.827   6.773 -0.3683 -0.2920  0.5009
   81CHL1   H4A 8406   2.500   3.935   6.760  2.9931 -0.8020  0.4560
   81CHL1   H4B 8407   2.403   3.804   6.697  0.4782  0.3381 -0.5818
   81CHL1    C5 8408   2.436   3.780   6.913 -0.0339  0.3633 -0.2679
   81CHL1    C6 8409   2.325   3.700   6.933 -0.5718 -0.2953  0.9615
   81CHL1    H6 8410   2.264   3.683   6.843  1.2919 -1.3117 -0.1646
   81CHL1    C7 8411   2.269   3.664   7.061 -0.7382  0.2006  0.4966
   81CHL1   H7A 8412   2.162   3.692   7.068 -0.8076  0.0440  0.0762
   81CHL1   H7B 8413   2.286   3.558   7.092 -2.2686  0.0231  0.8092
   81CHL1    C8 8414   2.350   3.728   7.186  0.3111  0.5014  0.6423
   81CHL1    H8 8415   2.312   3.832   7.194 -0.6223  0.0337  3.0549
   81CHL1   C14 8416   2.323   3.658   7.321  0.3625  0.4736 -0.9925
   81CHL1   H14 8417   2.355   3.552   7.308 -1.6103 -0.5386  1.5339
   81CHL1   C15 8418   2.171   3.645   7.369 -0.0779 -0.6266  0.4213
   81CHL1  H15A 8419   2.133   3.748   7.353 -3.4642 -1.4783  2.1783
   81CHL1  H15B 8420   2.109   3.585   7.299  0.7494  0.2425 -1.1374
   81CHL1   C16 8421   2.182   3.617   7.524  0.5143 -0.0174 -0.6998
   81CHL1  H16A 8422   2.110   3.687   7.571  2.0819  2.1676 -1.3886
   81CHL1  H16B 8423   2.146   3.512   7.525  0.0933  0.1208 -0.8046
   81CHL1   C17 8424   2.328   3.621   7.561 -0.5596 -0.0139  0.0032
   81CHL1   H17 8425   2.370   3.518   7.555  1.3835  0.8092 -1.8244
   81CHL1   C13 8426   2.398   3.710   7.448  0.7291  0.3207 -0.0964
   81CHL1   C18 8427   2.355   3.851   7.479  0.2027  0.7432  0.2962
   81CHL1  H18A 8428   2.396   3.892   7.574  0.9319  0.4263  0.1276
   81CHL1  H18B 8429   2.396   3.918   7.400 -1.6340  3.3966  1.4635
   81CHL1  H18C 8430   2.246   3.870   7.477  0.6614  4.0404  1.2869
   81CHL1   C12 8431   2.549   3.692   7.414 -0.7551  0.3399 -0.4173
   81CHL1  H12A 8432   2.605   3.750   7.490 -0.6976  1.2087 -1.1114
   81CHL1  H12B 8433   2.576   3.584   7.412  0.0893  0.5421 -0.3574
   81CHL1   C11 8434   2.589   3.765   7.284  0.1791  0.2160  0.0346
   81CHL1  H11A 8435   2.576   3.872   7.307  1.8387  0.8778 -1.7823
   81CHL1  H11B 8436   2.694   3.751   7.252 -0.5841  0.1959 -2.7763
   81CHL1    C9 8437   2.500   3.725   7.157 -0.5481 -0.2086 -0.5851
   81CHL1    H9 8438   2.533   3.623   7.126 -0.2755  0.0707 -1.2322
   81CHL1   C10 8439   2.541   3.811   7.025  0.1491  0.0131 -0.0535
   81CHL1   C19 8440   2.531   3.957   7.071  0.2122  0.5187 -1.3256
   81CHL1  H19A 8441   2.607   3.994   7.144 -0.6746  0.5631 -0.3982
   81CHL1  H19B 8442   2.552   4.024   6.986 -1.4956 -0.9443 -3.0008
   81CHL1  H19C 8443   2.432   3.990   7.111  1.3958  1.7676  0.7696
   81CHL1    C1 8444   2.682   3.766   6.989  0.5581  0.3259  0.0712
   81CHL1   H1A 8445   2.760   3.800   7.060 -0.6677 -1.1049  2.2357
   81CHL1   H1B 8446   2.686   3.655   6.978  1.8296  0.1604  1.8601
   81CHL1    C2 8447   2.721   3.809   6.841 -0.3610  0.6023 -0.4417
   81CHL1   H2A 8448   2.817   3.761   6.814 -0.7858 -0.6662  0.1987
   81CHL1   H2B 8449   2.745   3.917   6.838 -1.0192  0.8086  0.8453
   81CHL1   C20 8450   2.341   3.660   7.712  0.2581  0.1076 -0.5369
   81CHL1   H20 8451   2.310   3.765   7.730  1.1629  0.3749 -0.4734
   81CHL1   C21 8452   2.488   3.652   7.757 -0.4891  0.2939  0.4238
   81CHL1  H21A 8453   2.515   3.545   7.752 -0.3836  0.2235  2.1513
   81CHL1  H21B 8454   2.501   3.664   7.866  1.0048  1.8470  0.1360
   81CHL1  H21C 8455   2.556   3.723   7.703 -0.4119 -0.4933 -0.5434
   81CHL1   C22 8456   2.251   3.568   7.805 -0.0105  0.0061 -0.5095
   81CHL1  H22A 8457   2.146   3.574   7.769 -1.1245  0.1671  2.4469
   81CHL1  H22B 8458   2.285   3.463   7.793 -0.0354 -0.1007  0.2890
   81CHL1   C23 8459   2.238   3.616   7.953 -0.4057  0.5617  0.3206
   81CHL1  H23A 8460   2.314   3.564   8.016 -0.2940  0.8513  0.4237
   81CHL1  H23B 8461   2.264   3.724   7.955 -0.2640  0.5112  1.5958
   81CHL1   C24 8462   2.099   3.595   8.018 -0.4076 -0.2850  1.1869
   81CHL1  H24A 8463   2.025   3.668   7.977 -2.1124 -0.7174  3.2798
   81CHL1  H24B 8464   2.050   3.500   7.987  0.1390 -0.2675  0.2168
   81CHL1   C25 8465   2.087   3.581   8.171  0.3385 -0.3825 -0.0323
   81CHL1   H25 8466   1.978   3.591   8.191  0.2872  0.1226 -0.5478
   81CHL1   C26 8467   2.115   3.439   8.213 -0.0745  0.0630 -0.2893
   81CHL1  H26A 8468   2.053   3.370   8.152 -0.7869  1.3391 -1.0451
   81CHL1  H26B 8469   2.219   3.403   8.201 -0.9663 -2.5871 -0.8402
   81CHL1  H26C 8470   2.080   3.414   8.316  0.1802 -1.9671 -0.6676
   81CHL1   C27 8471   2.155   3.695   8.241 -0.0960 -0.3808 -0.0441
   81CHL1  H27A 8472   2.265   3.688   8.253  0.1428  3.2004  0.8763
   81CHL1  H27B 8473   2.130   3.787   8.184 -1.0535 -0.5625  0.0726
   81CHL1  H27C 8474   2.113   3.703   8.343 -1.4968  1.0971 -0.6950
   82CHL1    C3 8475   0.290   5.748   6.963 -0.1272  0.0055 -0.0871
   82CHL1    H3 8476   0.297   5.858   6.982 -1.8940  0.0122  0.7612
   82CHL1    O3 8477   0.276   5.734   6.823  1.0554 -0.1346 -0.2563
   82CHL1   H3' 8478   0.279   5.639   6.809 -0.1478 -0.0600 -1.2988
   82CHL1    C4 8479   0.410   5.666   7.013 -0.4369  0.2673  0.4061
   82CHL1   H4A 8480   0.407   5.561   6.977 -0.6234  0.7267 -1.0013
   82CHL1   H4B 8481   0.504   5.708   6.970 -1.2513  0.0314 -1.7294
   82CHL1    C5 8482   0.427   5.676   7.165  0.1736  0.2082 -1.2419
   82CHL1    C6 8483   0.540   5.712   7.226 -0.9211 -0.1168 -0.0694
   82CHL1    H6 8484   0.626   5.731   7.160  0.3474  0.2568  1.6121
   82CHL1    C7 8485   0.567   5.741   7.371 -0.0247  0.0087 -0.1345
   82CHL1   H7A 8486   0.660   5.695   7.410 -0.7271  0.5280  2.3576
   82CHL1   H7B 8487   0.576   5.850   7.392 -1.1934  0.2076 -0.5783
   82CHL1    C8 8488   0.449   5.686   7.458  0.6580 -0.5166  0.2527
   82CHL1    H8 8489   0.465   5.579   7.480  0.7154 -0.3474  1.0729
   82CHL1   C14 8490   0.442   5.754   7.598 -0.1193  0.3593 -0.0454
   82CHL1   H14 8491   0.425   5.861   7.572  1.2087  0.8976  1.1622
   82CHL1   C15 8492   0.570   5.757   7.681  0.3678 -0.0130 -0.0243
   82CHL1  H15A 8493   0.614   5.656   7.676  1.7743  0.5593  0.2232
   82CHL1  H15B 8494   0.637   5.830   7.631  0.4126 -0.4573 -0.6213
   82CHL1   C16 8495   0.519   5.789   7.823  0.0951 -0.3924 -0.3320
   82CHL1  H16A 8496   0.558   5.726   7.906 -0.4687 -0.6642 -0.2681
   82CHL1  H16B 8497   0.569   5.885   7.848 -0.8918  0.4434 -1.4299
   82CHL1   C17 8498   0.367   5.790   7.826  0.3246 -0.4475 -0.2328
   82CHL1   H17 8499   0.334   5.893   7.798  0.0731 -0.4450  0.0723
   82CHL1   C13 8500   0.328   5.712   7.693  0.3804 -0.0811 -0.1291
   82CHL1   C18 8501   0.336   5.561   7.715  0.0481  0.0939 -0.2144
   82CHL1  H18A 8502   0.364   5.500   7.626 -2.1096 -2.0067  0.4321
   82CHL1  H18B 8503   0.402   5.536   7.800  0.8080  0.0107 -0.8161
   82CHL1  H18C 8504   0.238   5.515   7.739 -0.1446 -0.0836 -1.2703
   82CHL1   C12 8505   0.197   5.747   7.625  0.3254 -0.4389  0.4810
   82CHL1  H12A 8506   0.113   5.706   7.686 -0.8095  0.5775 -0.3538
   82CHL1  H12B 8507   0.180   5.857   7.619 -1.5168 -0.7138 -0.1147
   82CHL1   C11 8508   0.189   5.682   7.486 -0.0755 -0.0167  0.1189
   82CHL1  H11A 8509   0.195   5.574   7.514 -0.6308 -0.2062 -0.4697
   82CHL1  H11B 8510   0.083   5.702   7.458 -0.6202 -1.7312  0.7707
   82CHL1    C9 8511   0.310   5.712   7.393 -1.0364  0.5066  0.0865
   82CHL1    H9 8512   0.312   5.822   7.380  0.3636  0.2266 -2.7680
   82CHL1   C10 8513   0.296   5.660   7.245  0.0814  0.8387 -0.4443
   82CHL1   C19 8514   0.277   5.507   7.262  0.5130 -0.0987  0.1698
   82CHL1  H19A 8515   0.363   5.451   7.305 -0.1055 -0.9113  0.3663
   82CHL1  H19B 8516   0.184   5.484   7.319  0.0994  1.0638  0.0011
   82CHL1  H19C 8517   0.253   5.465   7.162 -0.9365  0.4831  0.2553
   82CHL1    C1 8518   0.167   5.729   7.179 -0.4723 -0.2125 -0.3465
   82CHL1   H1A 8519   0.074   5.706   7.235  0.0399 -0.1668  0.5281
   82CHL1   H1B 8520   0.186   5.838   7.187  0.2110 -0.2293 -1.4422
   82CHL1    C2 8521   0.161   5.700   7.029  0.0061 -1.0490  0.3391
   82CHL1   H2A 8522   0.078   5.752   6.977  2.8539  0.1870 -3.4141
   82CHL1   H2B 8523   0.142   5.591   7.014 -2.7223 -0.7168  0.7923
   82CHL1   C20 8524   0.305   5.743   7.955 -0.4844 -0.9063 -1.0555
   82CHL1   H20 8525   0.339   5.639   7.974  1.2344  0.0609  1.9089
   82CHL1   C21 8526   0.158   5.745   7.956  0.1634  0.1907  0.0680
   82CHL1  H21A 8527   0.115   5.832   7.901 -0.2504 -0.2505 -0.3181
   82CHL1  H21B 8528   0.115   5.744   8.058 -0.9104  0.1861 -0.3677
   82CHL1  H21C 8529   0.116   5.662   7.896  0.5309 -1.2769  1.7725
   82CHL1   C22 8530   0.368   5.816   8.080 -0.3319  0.0979  0.1804
   82CHL1  H22A 8531   0.341   5.758   8.171 -0.0613 -0.8765 -0.3545
   82CHL1  H22B 8532   0.478   5.802   8.088 -0.0261  0.8952 -2.0103
   82CHL1   C23 8533   0.327   5.964   8.098 -0.1171  0.4735  0.1678
   82CHL1  H23A 8534   0.382   6.029   8.027 -1.5574 -1.5880 -3.1226
   82CHL1  H23B 8535   0.220   5.974   8.067 -0.1179 -0.9108 -0.3912
   82CHL1   C24 8536   0.335   6.019   8.241  0.3444 -0.2931  0.2030
   82CHL1  H24A 8537   0.290   6.119   8.255 -0.5083 -0.7875  1.2155
   82CHL1  H24B 8538   0.282   5.937   8.296  2.2405 -0.4261  1.9622
   82CHL1   C25 8539   0.475   6.032   8.306 -0.3820 -0.6157 -0.6185
   82CHL1   H25 8540   0.522   5.932   8.301  0.4991 -0.1708 -1.8154
   82CHL1   C26 8541   0.552   6.127   8.222 -0.6068 -0.9870 -0.3528
   82CHL1  H26A 8542   0.655   6.142   8.262 -0.7404  0.9207 -0.6474
   82CHL1  H26B 8543   0.561   6.081   8.121 -1.4034  0.2253 -1.0054
   82CHL1  H26C 8544   0.498   6.223   8.208 -1.9006 -1.6579 -0.0915
   82CHL1   C27 8545   0.456   6.071   8.447 -0.4024 -0.0548 -0.2502
   82CHL1  H27A 8546   0.552   6.080   8.501 -0.7148  0.8522  0.1728
   82CHL1  H27B 8547   0.402   6.168   8.458  0.0241  0.2634 -0.8854
   82CHL1  H27C 8548   0.396   5.994   8.500  0.3176  0.1541  0.8901
   83CHL1    C3 8549   5.798   0.781   6.947 -0.2124 -0.1487 -0.6800
   83CHL1    H3 8550   5.905   0.765   6.920  0.6841  2.3128  1.0841
   83CHL1    O3 8551   5.724   0.759   6.831  0.4441  0.3894 -0.0810
   83CHL1   H3' 8552   5.637   0.760   6.870  0.5312 -0.5539  0.1582
   83CHL1    C4 8553   5.744   0.682   7.052 -0.1230  0.7023  0.2234
   83CHL1   H4A 8554   5.634   0.692   7.058 -0.3126 -1.2361  0.6964
   83CHL1   H4B 8555   5.757   0.580   7.011 -1.8150 -0.7591  3.0385
   83CHL1    C5 8556   5.814   0.695   7.184  0.5326  0.4906  0.2688
   83CHL1    C6 8557   5.869   0.591   7.236 -0.1391 -0.0478  0.2081
   83CHL1    H6 8558   5.869   0.496   7.180  1.3939  0.6919 -1.1622
   83CHL1    C7 8559   5.942   0.596   7.365  0.1743  0.5408 -0.3679
   83CHL1   H7A 8560   5.907   0.506   7.419 -1.5186  1.9315  0.9864
   83CHL1   H7B 8561   6.052   0.586   7.354  0.1731 -2.6897  1.4023
   83CHL1    C8 8562   5.909   0.718   7.457 -0.1461 -0.2792 -0.0415
   83CHL1    H8 8563   5.807   0.715   7.499 -0.8631  2.6515 -1.3410
   83CHL1   C14 8564   6.004   0.732   7.582 -0.0465 -0.1035  0.5037
   83CHL1   H14 8565   6.106   0.742   7.538  0.5878 -0.2240  1.8907
   83CHL1   C15 8566   6.004   0.614   7.669 -0.5706 -0.9567 -0.6419
   83CHL1  H15A 8567   5.896   0.588   7.676 -0.7423 -0.2735 -0.6987
   83CHL1  H15B 8568   6.056   0.529   7.621 -1.4498 -0.3650 -2.7897
   83CHL1   C16 8569   6.062   0.671   7.802 -1.1032  0.6720  0.6972
   83CHL1  H16A 8570   5.985   0.649   7.878 -0.4590  1.2643  1.5368
   83CHL1  H16B 8571   6.162   0.630   7.829 -0.3898  0.8417 -1.4490
   83CHL1   C17 8572   6.065   0.822   7.784  0.3540  0.1761 -0.3745
   83CHL1   H17 8573   6.166   0.860   7.757  0.7521  1.1528  2.1393
   83CHL1   C13 8574   5.974   0.851   7.667 -0.0211  0.5175 -0.3817
   83CHL1   C18 8575   5.823   0.855   7.715 -0.0613  0.8853  0.2554
   83CHL1  H18A 8576   5.747   0.877   7.637 -4.0566 -0.1318  3.5234
   83CHL1  H18B 8577   5.793   0.769   7.779  0.5850 -1.3237 -2.2066
   83CHL1  H18C 8578   5.816   0.942   7.783 -0.8832  1.5950 -0.7034
   83CHL1   C12 8579   5.996   0.978   7.580  0.6546  0.1771 -0.0929
   83CHL1  H12A 8580   5.972   1.072   7.635 -0.1837  1.2216 -2.1395
   83CHL1  H12B 8581   6.105   0.979   7.559  0.7624 -0.9468  0.3213
   83CHL1   C11 8582   5.909   0.978   7.445  0.3258  0.3237 -0.2682
   83CHL1  H11A 8583   5.801   0.980   7.469  0.2707 -2.4594  0.0569
   83CHL1  H11B 8584   5.934   1.067   7.383 -1.5945  0.8808 -0.3127
   83CHL1    C9 8585   5.914   0.845   7.370 -0.5126 -0.5929  0.7371
   83CHL1    H9 8586   6.013   0.830   7.322  0.4396  1.2781  1.9684
   83CHL1   C10 8587   5.815   0.835   7.248  0.5551 -0.2347  0.0020
   83CHL1   C19 8588   5.673   0.855   7.282  0.2803 -0.5665  0.1607
   83CHL1  H19A 8589   5.608   0.845   7.193  0.6469 -2.6286  0.0803
   83CHL1  H19B 8590   5.638   0.775   7.351  1.1547 -1.3296 -0.2754
   83CHL1  H19C 8591   5.661   0.963   7.309 -1.0372  0.1759 -3.0288
   83CHL1    C1 8592   5.856   0.933   7.140 -0.9318  0.0043 -0.0442
   83CHL1   H1A 8593   5.847   1.036   7.179 -1.0589 -0.4538  1.1663
   83CHL1   H1B 8594   5.961   0.917   7.107 -1.2741 -1.2047 -0.6008
   83CHL1    C2 8595   5.782   0.918   7.007  0.9240 -0.1467  0.4329
   83CHL1   H2A 8596   5.815   1.006   6.947  0.2755  1.3477  2.1962
   83CHL1   H2B 8597   5.676   0.946   7.021  1.3646  0.8856  1.9257
   83CHL1   C20 8598   6.042   0.894   7.920 -0.2606 -0.0164  0.1043
   83CHL1   H20 8599   5.943   0.866   7.963 -1.5635  0.1361 -2.5867
   83CHL1   C21 8600   6.041   1.055   7.912  0.5717  0.4888  0.2832
   83CHL1  H21A 8601   5.966   1.101   7.844 -1.7173 -2.3305  0.7225
   83CHL1  H21B 8602   6.140   1.097   7.886  1.0546  1.4277  3.2421
   83CHL1  H21C 8603   6.023   1.098   8.013  1.3053  0.4033  0.4568
   83CHL1   C22 8604   6.154   0.857   8.027  0.5240 -0.3664 -0.1705
   83CHL1  H22A 8605   6.149   0.747   8.038 -0.4108 -0.5003 -1.7714
   83CHL1  H22B 8606   6.255   0.875   7.984  2.2145 -4.8659  1.3054
   83CHL1   C23 8607   6.139   0.928   8.164 -1.0132  0.6049  0.1738
   83CHL1  H23A 8608   6.168   1.036   8.162 -0.8952  0.5978  1.0655
   83CHL1  H23B 8609   6.031   0.922   8.190 -1.3866 -0.2554 -1.4570
   83CHL1   C24 8610   6.227   0.871   8.283  0.1565 -0.2188  0.3408
   83CHL1  H24A 8611   6.185   0.772   8.312 -2.2533  0.8200  0.6237
   83CHL1  H24B 8612   6.328   0.856   8.239  0.3984 -0.2293  0.8936
   83CHL1   C25 8613   6.225   0.960   8.410 -0.9683 -0.2116 -0.8913
   83CHL1   H25 8614   6.247   1.064   8.380 -2.9809  0.8572  1.0612
   83CHL1   C26 8615   6.096   0.952   8.483  0.1964  0.1087  0.0056
   83CHL1  H26A 8616   6.017   0.966   8.406 -0.1069 -0.6576  0.1735
   83CHL1  H26B 8617   6.088   0.848   8.519  2.5543 -0.0222  0.2810
   83CHL1  H26C 8618   6.088   1.019   8.571 -0.0729  1.2039 -0.8235
   83CHL1   C27 8619   6.334   0.914   8.510 -1.0408  0.4129  0.6298
   83CHL1  H27A 8620   6.326   0.982   8.597 -1.3168 -1.2518  1.9576
   83CHL1  H27B 8621   6.314   0.806   8.530  2.0521 -1.4341 -4.2218
   83CHL1  H27C 8622   6.430   0.912   8.455 -1.3766  1.1381 -0.0014
   84CHL1    C3 8623   0.353   3.106   6.863  0.5803  0.0271 -0.3729
   84CHL1    H3 8624   0.249   3.075   6.886  1.0206 -1.0309  0.2741
   84CHL1    O3 8625   0.375   3.106   6.725  0.3887 -0.5750 -0.4493
   84CHL1   H3' 8626   0.316   3.172   6.688 -0.4402 -1.2947 -0.4568
   84CHL1    C4 8627   0.371   3.246   6.932 -0.2443 -0.8740  0.7993
   84CHL1   H4A 8628   0.471   3.285   6.904 -1.2779  0.6000 -1.0503
   84CHL1   H4B 8629   0.297   3.314   6.885  0.5530 -0.0632  0.6863
   84CHL1    C5 8630   0.364   3.236   7.084 -0.3154  0.1780  0.0645
   84CHL1    C6 8631   0.275   3.309   7.150 -0.2162  0.4714 -0.3181
   84CHL1    H6 8632   0.210   3.374   7.089  1.8518  1.9009 -1.0815
   84CHL1    C7 8633   0.264   3.316   7.296 -0.2148 -0.1711  0.0248
   84CHL1   H7A 8634   0.245   3.416   7.339 -1.1292  0.1219 -1.0007
   84CHL1   H7B 8635   0.182   3.253   7.338  0.5361  1.1435  3.7694
   84CHL1    C8 8636   0.395   3.271   7.365  0.3754  0.6631  0.0942
   84CHL1    H8 8637   0.478   3.344   7.346  1.0899  0.0166  0.6909
   84CHL1   C14 8638   0.369   3.251   7.516 -1.1672 -0.2461  0.0192
   84CHL1   H14 8639   0.285   3.179   7.519 -2.3088  1.0114 -0.4294
   84CHL1   C15 8640   0.319   3.381   7.590  0.0076  0.6998 -0.2817
   84CHL1  H15A 8641   0.387   3.465   7.567 -0.1311  1.2546  1.2357
   84CHL1  H15B 8642   0.220   3.405   7.545 -0.4563  1.0932  0.8967
   84CHL1   C16 8643   0.329   3.344   7.736 -0.7181  0.2168  0.3549
   84CHL1  H16A 8644   0.378   3.426   7.793  2.3122 -0.0174 -1.6967
   84CHL1  H16B 8645   0.227   3.316   7.771  1.0360 -4.3242  2.7155
   84CHL1   C17 8646   0.412   3.207   7.736 -0.3479 -0.1491 -0.2467
   84CHL1   H17 8647   0.326   3.137   7.736  0.3324 -1.0074  0.2378
   84CHL1   C13 8648   0.488   3.195   7.598  0.0469  0.6087  0.4583
   84CHL1   C18 8649   0.606   3.297   7.592  0.7798  0.7015  0.6970
   84CHL1  H18A 8650   0.694   3.250   7.643  1.7931  2.5653  0.7350
   84CHL1  H18B 8651   0.646   3.295   7.488  0.5724 -1.4351  0.6029
   84CHL1  H18C 8652   0.583   3.400   7.625  0.3029  0.4285  1.2189
   84CHL1   C12 8653   0.522   3.058   7.541 -0.1430 -0.6663  0.5469
   84CHL1  H12A 8654   0.615   3.017   7.586  2.7017  3.2809 -1.1626
   84CHL1  H12B 8655   0.433   2.994   7.558 -1.8817  0.6050 -2.7895
   84CHL1   C11 8656   0.550   3.072   7.388 -0.2986  0.0108 -0.1124
   84CHL1  H11A 8657   0.635   3.140   7.367 -0.2946  0.4503  1.2378
   84CHL1  H11B 8658   0.591   2.980   7.341 -1.7137 -0.9534  0.4706
   84CHL1    C9 8659   0.434   3.133   7.305  0.0391 -0.2826  0.2513
   84CHL1    H9 8660   0.345   3.068   7.317 -1.4890  1.2745 -1.9843
   84CHL1   C10 8661   0.460   3.135   7.146 -0.1781  0.7695 -0.0943
   84CHL1   C19 8662   0.604   3.184   7.125 -0.9779 -0.7754  0.0046
   84CHL1  H19A 8663   0.679   3.108   7.157 -1.9220 -1.6682  0.1572
   84CHL1  H19B 8664   0.627   3.199   7.018 -1.9816 -1.5168 -0.3238
   84CHL1  H19C 8665   0.631   3.273   7.187  0.6749 -1.4223  0.2592
   84CHL1    C1 8666   0.430   2.998   7.086  0.9497 -0.0561 -0.0987
   84CHL1   H1A 8667   0.493   2.915   7.125  1.2148 -0.0853 -0.5887
   84CHL1   H1B 8668   0.326   2.964   7.107  0.6095 -0.8076 -2.7214
   84CHL1    C2 8669   0.439   2.999   6.935 -0.0616 -0.0063  0.3110
   84CHL1   H2A 8670   0.417   2.895   6.902 -0.9971  0.1300  0.4816
   84CHL1   H2B 8671   0.547   3.020   6.916  0.0811  0.5973  1.6687
   84CHL1   C20 8672   0.501   3.181   7.853  1.1886 -0.1171  0.1213
   84CHL1   H20 8673   0.594   3.242   7.848  0.8258  0.4413  0.0545
   84CHL1   C21 8674   0.531   3.033   7.852 -0.1559 -0.1612  0.2609
   84CHL1  H21A 8675   0.560   2.996   7.953 -2.1275  0.5727  1.1543
   84CHL1  H21B 8676   0.611   3.004   7.781  0.4002 -1.7586  1.4983
   84CHL1  H21C 8677   0.438   2.977   7.826  0.1918 -0.5296 -0.2145
   84CHL1   C22 8678   0.429   3.229   7.986 -0.4943  0.0254  0.5645
   84CHL1  H22A 8679   0.411   3.339   7.981 -1.3727 -0.0979  0.8386
   84CHL1  H22B 8680   0.329   3.181   7.995  0.0697 -1.0423  1.2902
   84CHL1   C23 8681   0.498   3.196   8.122 -0.6412  0.4572 -0.2855
   84CHL1  H23A 8682   0.503   3.086   8.135 -0.2401  0.0270 -3.4532
   84CHL1  H23B 8683   0.601   3.239   8.117  0.4495 -2.1171 -2.5541
   84CHL1   C24 8684   0.417   3.246   8.243 -0.6201  0.3919  0.2623
   84CHL1  H24A 8685   0.410   3.357   8.235 -2.2628  0.1760 -2.4387
   84CHL1  H24B 8686   0.318   3.197   8.247  0.0268 -1.1640 -1.5682
   84CHL1   C25 8687   0.488   3.216   8.379 -0.9433 -0.0394  0.5015
   84CHL1   H25 8688   0.596   3.231   8.361 -0.8914 -1.4417 -0.5334
   84CHL1   C26 8689   0.434   3.303   8.493 -0.5452  0.8704  0.0662
   84CHL1  H26A 8690   0.459   3.266   8.594  0.9201 -1.6914 -1.1433
   84CHL1  H26B 8691   0.501   3.392   8.483  2.3696 -1.0414  1.2849
   84CHL1  H26C 8692   0.326   3.321   8.478 -0.8336 -1.7353 -1.4837
   84CHL1   C27 8693   0.464   3.069   8.415 -0.1597  0.4565  0.3551
   84CHL1  H27A 8694   0.530   3.028   8.494 -2.1464 -0.9891  1.3755
   84CHL1  H27B 8695   0.359   3.060   8.453 -0.7659  1.3676 -1.0274
   84CHL1  H27C 8696   0.491   3.007   8.327 -1.5942 -0.8791  0.8088
   85CHL1    C3 8697   1.990   0.233   6.669  0.1751  0.0935  0.6882
   85CHL1    H3 8698   1.892   0.279   6.643 -0.3162 -0.6260  1.2328
   85CHL1    O3 8699   2.038   0.175   6.545  0.0310  0.8118 -0.4816
   85CHL1   H3' 8700   1.979   0.104   6.517 -1.1385  0.8847  1.6461
   85CHL1    C4 8701   2.088   0.336   6.713 -0.1836  0.4733 -0.7032
   85CHL1   H4A 8702   2.184   0.293   6.748  0.2983  1.5453 -0.6789
   85CHL1   H4B 8703   2.106   0.405   6.628  1.5848  0.6041 -0.2472
   85CHL1    C5 8704   2.020   0.400   6.826  0.1194  0.1684 -0.1459
   85CHL1    C6 8705   1.981   0.526   6.814  0.3172 -0.3308 -0.1706
   85CHL1    H6 8706   2.006   0.572   6.717 -0.1906  1.4891  0.5177
   85CHL1    C7 8707   1.926   0.611   6.927 -0.1593  0.5173  0.2137
   85CHL1   H7A 8708   1.982   0.707   6.924  0.1848  0.3389 -3.5942
   85CHL1   H7B 8709   1.817   0.629   6.915  0.2616  1.7514 -2.6123
   85CHL1    C8 8710   1.959   0.540   7.059 -0.1859 -0.4889  0.2624
   85CHL1    H8 8711   2.067   0.555   7.079  0.5218 -4.1171 -0.2342
   85CHL1   C14 8712   1.874   0.604   7.171 -0.5149 -0.1882 -0.5959
   85CHL1   H14 8713   1.767   0.591   7.143 -1.4252 -0.1651  2.5525
   85CHL1   C15 8714   1.882   0.761   7.182 -0.0191  0.2107 -0.0571
   85CHL1  H15A 8715   1.988   0.785   7.201 -0.6399  3.5946 -0.2866
   85CHL1  H15B 8716   1.853   0.817   7.091 -3.0343 -2.4991 -0.9900
   85CHL1   C16 8717   1.814   0.793   7.312  0.2449  0.1026 -0.3102
   85CHL1  H16A 8718   1.866   0.860   7.383 -0.9354 -0.7216  1.4193
   85CHL1  H16B 8719   1.715   0.840   7.291 -0.6142 -1.7005 -0.4997
   85CHL1   C17 8720   1.793   0.652   7.380  0.5267 -0.5691 -0.6280
   85CHL1   H17 8721   1.690   0.616   7.357 -1.2536  2.4170  1.9523
   85CHL1   C13 8722   1.890   0.552   7.311 -0.7407 -0.3089 -0.4447
   85CHL1   C18 8723   2.040   0.555   7.362 -0.1601  0.3422 -0.1966
   85CHL1  H18A 8724   2.049   0.502   7.459  0.6171 -0.7338 -0.8430
   85CHL1  H18B 8725   2.097   0.515   7.276 -0.3929 -0.3491 -0.0369
   85CHL1  H18C 8726   2.082   0.657   7.377  0.0919  0.3289 -0.7878
   85CHL1   C12 8727   1.834   0.408   7.300  0.2516  0.1872  0.3526
   85CHL1  H12A 8728   1.858   0.357   7.396  0.7831 -2.0569 -0.8954
   85CHL1  H12B 8729   1.725   0.407   7.281  0.4483 -0.0495 -0.9091
   85CHL1   C11 8730   1.909   0.331   7.193  0.3240 -0.4402  0.3259
   85CHL1  H11A 8731   2.008   0.314   7.240 -0.0277 -0.2377  1.1612
   85CHL1  H11B 8732   1.852   0.236   7.184  0.1093 -0.1437 -3.0450
   85CHL1    C9 8733   1.921   0.393   7.049 -0.0142 -0.0185 -0.1958
   85CHL1    H9 8734   1.815   0.403   7.018 -0.1807  0.5475  0.5425
   85CHL1   C10 8735   1.998   0.305   6.947  0.8065 -0.2115  0.2772
   85CHL1   C19 8736   2.130   0.270   7.008  0.3592 -0.4542  0.1642
   85CHL1  H19A 8737   2.174   0.367   7.039 -2.8328  0.9981  0.5518
   85CHL1  H19B 8738   2.106   0.204   7.094 -0.2683 -2.3108 -1.3636
   85CHL1  H19C 8739   2.197   0.219   6.935 -1.0818 -1.6488 -0.3840
   85CHL1    C1 8740   1.921   0.178   6.911 -1.0028  0.0243  0.0888
   85CHL1   H1A 8741   1.944   0.102   6.989  2.6676 -0.5888 -1.3785
   85CHL1   H1B 8742   1.814   0.204   6.899 -0.8790  1.6138  2.0677
   85CHL1    C2 8743   1.969   0.125   6.772 -0.6826 -0.4794  0.0592
   85CHL1   H2A 8744   1.888   0.063   6.728  0.0169 -2.7100  1.7161
   85CHL1   H2B 8745   2.062   0.065   6.781 -0.6247 -0.1523  2.1826
   85CHL1   C20 8746   1.802   0.663   7.537  0.2452  0.0751  0.6229
   85CHL1   H20 8747   1.906   0.696   7.560  0.5460  0.8574 -1.5899
   85CHL1   C21 8748   1.781   0.524   7.606  0.1843 -0.3003  0.3877
   85CHL1  H21A 8749   1.868   0.460   7.581  0.0571  0.3481 -1.9919
   85CHL1  H21B 8750   1.691   0.476   7.560  1.1902 -1.4335 -0.4653
   85CHL1  H21C 8751   1.777   0.533   7.716  0.2091 -1.0500  0.4551
   85CHL1   C22 8752   1.701   0.771   7.590  0.0679  0.3535 -0.0764
   85CHL1  H22A 8753   1.728   0.872   7.552 -0.8360  1.6734  2.5429
   85CHL1  H22B 8754   1.600   0.764   7.543 -0.3766  1.5162  0.6859
   85CHL1   C23 8755   1.685   0.770   7.745  0.1437  0.7890 -0.2298
   85CHL1  H23A 8756   1.614   0.849   7.778  0.4733 -0.0842  2.8424
   85CHL1  H23B 8757   1.644   0.675   7.787 -0.4686  1.0955 -0.1315
   85CHL1   C24 8758   1.811   0.799   7.830 -0.0013 -0.0883 -0.3859
   85CHL1  H24A 8759   1.881   0.715   7.812 -0.7986 -0.9686  0.5208
   85CHL1  H24B 8760   1.859   0.893   7.795  2.3624 -0.2599  2.1014
   85CHL1   C25 8761   1.775   0.819   7.982  0.4417  0.6501 -0.1070
   85CHL1   H25 8762   1.696   0.741   7.985 -0.5925  1.6875  0.1622
   85CHL1   C26 8763   1.891   0.797   8.078  0.8730 -0.0637  0.2965
   85CHL1  H26A 8764   1.848   0.804   8.180 -0.9464  0.5086 -0.4693
   85CHL1  H26B 8765   1.946   0.702   8.063 -0.3830 -0.7446 -0.1330
   85CHL1  H26C 8766   1.964   0.879   8.063  1.8707 -1.0408 -0.4062
   85CHL1   C27 8767   1.705   0.950   8.012  0.0672  0.2968  0.4724
   85CHL1  H27A 8768   1.778   1.034   8.005 -1.6034  1.9136  1.3618
   85CHL1  H27B 8769   1.617   0.986   7.955  1.8640  2.6136 -1.0189
   85CHL1  H27C 8770   1.682   0.949   8.121  1.5040 -1.9996  0.8218
   86CHL1    C3 8771   3.129   5.108   6.840  0.3091  0.4921  0.8023
   86CHL1    H3 8772   3.164   5.016   6.892  0.0707  0.5258  1.0239
   86CHL1    O3 8773   3.135   5.089   6.701 -0.3322 -0.0326 -0.0477
   86CHL1   H3' 8774   3.219   5.045   6.682 -1.0962 -1.3443 -0.4897
   86CHL1    C4 8775   2.983   5.120   6.871  0.1254  0.3035 -0.0394
   86CHL1   H4A 8776   2.940   5.201   6.808 -0.4188  0.1183  0.0861
   86CHL1   H4B 8777   2.931   5.028   6.837 -1.4033  1.2263 -0.3212
   86CHL1    C5 8778   2.964   5.146   7.020 -0.4203 -0.2552 -0.3575
   86CHL1    C6 8779   2.884   5.068   7.090  0.4632 -0.1372 -1.1408
   86CHL1    H6 8780   2.826   4.995   7.031  1.3382 -1.0930 -0.8634
   86CHL1    C7 8781   2.856   5.090   7.234  0.4045 -0.5584 -0.3400
   86CHL1   H7A 8782   2.745   5.082   7.239  0.5149 -1.4113  2.1192
   86CHL1   H7B 8783   2.909   5.015   7.296  1.5227 -0.0670 -0.6750
   86CHL1    C8 8784   2.906   5.225   7.292  0.2557 -0.2145 -0.0435
   86CHL1    H8 8785   2.827   5.296   7.260 -0.6925 -0.9327  0.6427
   86CHL1   C14 8786   2.911   5.226   7.447 -0.2259 -0.1673  0.1157
   86CHL1   H14 8787   2.983   5.145   7.470 -0.0624 -1.1152 -3.1854
   86CHL1   C15 8788   2.779   5.189   7.521 -0.0519  0.4121  0.6008
   86CHL1  H15A 8789   2.688   5.236   7.479 -1.5824 -3.4130 -0.8151
   86CHL1  H15B 8790   2.762   5.079   7.512  3.1770 -0.0408 -2.3512
   86CHL1   C16 8791   2.808   5.235   7.661 -0.0374  0.3779 -0.3200
   86CHL1  H16A 8792   2.731   5.302   7.704 -1.5615 -1.0995 -0.6360
   86CHL1  H16B 8793   2.803   5.145   7.726 -0.6876  0.6937  0.0739
   86CHL1   C17 8794   2.948   5.305   7.668 -0.4649  0.2674 -0.2979
   86CHL1   H17 8795   3.022   5.226   7.693 -2.4083 -1.2646  0.8911
   86CHL1   C13 8796   2.962   5.352   7.518  0.9466 -0.3291  0.2451
   86CHL1   C18 8797   2.873   5.484   7.493 -0.4019  0.6057 -0.1005
   86CHL1  H18A 8798   2.765   5.467   7.512 -0.5767  1.4155 -0.3542
   86CHL1  H18B 8799   2.916   5.565   7.556 -0.0687  0.8773 -0.6760
   86CHL1  H18C 8800   2.868   5.515   7.387 -0.6661 -0.4312 -0.4000
   86CHL1   C12 8801   3.108   5.369   7.466  0.6227 -0.5776 -0.4276
   86CHL1  H12A 8802   3.154   5.467   7.492 -0.2392  0.0523 -1.2274
   86CHL1  H12B 8803   3.167   5.286   7.510 -0.3249  0.2143  2.5742
   86CHL1   C11 8804   3.123   5.369   7.309 -0.0511  0.0554 -0.2775
   86CHL1  H11A 8805   3.077   5.463   7.271  0.6924 -0.3713 -2.3515
   86CHL1  H11B 8806   3.231   5.368   7.282  0.4998  0.5208  1.7841
   86CHL1    C9 8807   3.050   5.252   7.237  0.2758  0.1519 -0.1761
   86CHL1    H9 8808   3.102   5.158   7.266 -1.0023 -0.5468 -0.0556
   86CHL1   C10 8809   3.059   5.255   7.086  0.0608 -0.6911 -0.5488
   86CHL1   C19 8810   2.986   5.387   7.043 -1.1278  0.6255  0.2365
   86CHL1  H19A 8811   2.877   5.389   7.064 -1.8022 -0.0682 -2.7411
   86CHL1  H19B 8812   3.029   5.481   7.083 -3.4178  1.9276 -0.2257
   86CHL1  H19C 8813   2.981   5.395   6.932 -1.4647 -0.1480  0.1882
   86CHL1    C1 8814   3.200   5.240   7.036 -0.0730 -0.3305  0.1284
   86CHL1   H1A 8815   3.253   5.334   7.059 -3.1503  0.9509  2.7932
   86CHL1   H1B 8816   3.247   5.148   7.077 -0.0155 -1.0679 -1.5115
   86CHL1    C2 8817   3.213   5.229   6.880  0.6071 -0.2145 -0.1299
   86CHL1   H2A 8818   3.321   5.215   6.861  0.5080 -1.6722  0.2865
   86CHL1   H2B 8819   3.182   5.328   6.839 -3.0532 -0.8908  0.5783
   86CHL1   C20 8820   2.959   5.404   7.784 -0.2440 -0.3594 -0.1139
   86CHL1   H20 8821   2.879   5.481   7.771 -3.1435 -2.9012  1.3314
   86CHL1   C21 8822   3.101   5.472   7.779 -0.5171 -0.1102 -0.2391
   86CHL1  H21A 8823   3.107   5.565   7.840  2.1717  0.8426 -1.8155
   86CHL1  H21B 8824   3.110   5.510   7.675 -2.7040 -0.1872 -0.5083
   86CHL1  H21C 8825   3.189   5.409   7.801  0.4072  1.5881  1.2004
   86CHL1   C22 8826   2.949   5.323   7.911  0.3036  0.5192 -0.6106
   86CHL1  H22A 8827   2.847   5.280   7.912  1.3615 -2.1718  0.8735
   86CHL1  H22B 8828   3.018   5.236   7.909 -0.3551 -0.0155 -0.2985
   86CHL1   C23 8829   2.953   5.397   8.049 -0.5443 -0.5647 -0.6230
   86CHL1  H23A 8830   3.054   5.441   8.067 -0.1827 -0.3693 -2.7963
   86CHL1  H23B 8831   2.878   5.479   8.053  0.6283  0.7571 -3.0972
   86CHL1   C24 8832   2.949   5.296   8.157 -0.3725 -0.1630 -0.0501
   86CHL1  H24A 8833   2.845   5.260   8.172  0.0693 -1.0722  0.9657
   86CHL1  H24B 8834   3.009   5.209   8.125  0.8096  0.3361  0.7470
   86CHL1   C25 8835   2.992   5.337   8.294 -0.2219 -0.0706 -0.5990
   86CHL1   H25 8836   3.102   5.354   8.292  0.1188 -1.7294  1.2393
   86CHL1   C26 8837   2.911   5.454   8.339 -0.2737  0.0287  0.0089
   86CHL1  H26A 8838   2.962   5.478   8.435  2.6236 -0.1110 -1.3792
   86CHL1  H26B 8839   2.911   5.545   8.275 -0.8255  1.5119  2.0186
   86CHL1  H26C 8840   2.806   5.426   8.362 -0.1565 -0.9768 -0.6165
   86CHL1   C27 8841   2.955   5.214   8.385  0.4955  0.2891 -0.4299
   86CHL1  H27A 8842   3.019   5.222   8.475  3.0675 -0.2663 -2.1095
   86CHL1  H27B 8843   2.849   5.231   8.412  0.1230 -0.3361 -1.4493
   86CHL1  H27C 8844   2.978   5.122   8.327  1.2403  1.3399 -1.8643
   87CHL1    C3 8845   0.993   3.488   6.717 -0.6537 -0.9012  0.4807
   87CHL1    H3 8846   1.104   3.492   6.719 -0.6910  0.5109  0.3586
   87CHL1    O3 8847   0.969   3.519   6.577 -0.3069 -0.5904  0.0823
   87CHL1   H3' 8848   1.023   3.455   6.531 -0.7188  0.0629 -1.3467
   87CHL1    C4 8849   0.944   3.355   6.766 -0.2617  0.3826  0.1189
   87CHL1   H4A 8850   0.835   3.336   6.760 -0.0542 -1.9252  2.0499
   87CHL1   H4B 8851   0.979   3.280   6.692 -1.6369  0.2971 -0.4825
   87CHL1    C5 8852   1.017   3.320   6.900  0.2643  0.5134 -0.4872
   87CHL1    C6 8853   1.096   3.207   6.916 -0.3275 -0.7734  0.0279
   87CHL1    H6 8854   1.108   3.136   6.833  2.4963  1.3816 -1.6112
   87CHL1    C7 8855   1.175   3.184   7.040  0.5707 -0.0617 -0.5938
   87CHL1   H7A 8856   1.173   3.073   7.050  1.9057 -0.0654 -0.2435
   87CHL1   H7B 8857   1.279   3.222   7.030  0.1125  0.6156 -3.6998
   87CHL1    C8 8858   1.103   3.251   7.164 -0.1845  0.0204 -0.1883
   87CHL1    H8 8859   1.007   3.199   7.182  0.9393 -1.2836  2.6917
   87CHL1   C14 8860   1.189   3.241   7.283 -0.2881  0.3361  0.1512
   87CHL1   H14 8861   1.285   3.293   7.261 -0.3626  0.4724  0.1480
   87CHL1   C15 8862   1.228   3.100   7.333 -0.2527  0.8752 -0.2346
   87CHL1  H15A 8863   1.129   3.050   7.343  0.7731 -1.4565 -1.1949
   87CHL1  H15B 8864   1.296   3.060   7.255 -2.0420  1.3907 -2.1564
   87CHL1   C16 8865   1.290   3.115   7.478  0.7020 -1.7576 -0.4449
   87CHL1  H16A 8866   1.233   3.065   7.558  1.0510  0.2505  1.1399
   87CHL1  H16B 8867   1.396   3.082   7.476  1.2803 -0.0547  0.0928
   87CHL1   C17 8868   1.276   3.274   7.499  0.5125  0.6562 -0.4970
   87CHL1   H17 8869   1.375   3.310   7.462  1.4605  0.8066  1.9695
   87CHL1   C13 8870   1.152   3.318   7.412 -0.1794  0.1116  0.1547
   87CHL1   C18 8871   1.022   3.267   7.477  0.3547 -0.4379 -0.3545
   87CHL1  H18A 8872   0.936   3.261   7.408 -1.5945 -0.4554  1.9265
   87CHL1  H18B 8873   1.041   3.166   7.519  0.4048 -0.5179 -0.5692
   87CHL1  H18C 8874   0.987   3.337   7.556 -1.0806 -2.0464  0.5117
   87CHL1   C12 8875   1.137   3.465   7.373  0.0367 -0.0453  0.1319
   87CHL1  H12A 8876   1.106   3.537   7.452 -3.1941 -0.7184 -0.3780
   87CHL1  H12B 8877   1.239   3.504   7.350  0.4779 -0.9594  0.4699
   87CHL1   C11 8878   1.047   3.488   7.253  0.5872 -0.3084  0.1270
   87CHL1  H11A 8879   0.945   3.471   7.293  0.2552  2.6354  0.7787
   87CHL1  H11B 8880   1.044   3.599   7.245 -1.4171 -0.0851  2.5337
   87CHL1    C9 8881   1.079   3.401   7.129  0.4942 -0.3995 -1.0866
   87CHL1    H9 8882   1.181   3.438   7.103  0.4801  0.5311  0.0976
   87CHL1   C10 8883   0.992   3.429   7.004 -0.0479  0.1550 -0.1124
   87CHL1   C19 8884   0.845   3.436   7.054  0.4802 -0.0654 -0.1137
   87CHL1  H19A 8885   0.776   3.431   6.968  0.2587 -0.9771  0.1046
   87CHL1  H19B 8886   0.828   3.360   7.134 -0.3399 -0.6654 -0.8400
   87CHL1  H19C 8887   0.829   3.535   7.100  0.7366 -0.7966  1.6369
   87CHL1    C1 8888   1.017   3.579   6.945 -0.5111 -0.4378  0.3224
   87CHL1   H1A 8889   0.985   3.658   7.015 -0.5876 -0.8577  0.7690
   87CHL1   H1B 8890   1.128   3.587   6.942 -0.2546 -3.1618 -0.0621
   87CHL1    C2 8891   0.952   3.600   6.807 -0.5726 -0.0108 -0.0207
   87CHL1   H2A 8892   0.989   3.692   6.757 -0.8999 -1.2421 -2.7082
   87CHL1   H2B 8893   0.841   3.599   6.812 -0.8884 -0.9296 -3.8243
   87CHL1   C20 8894   1.266   3.318   7.649 -0.1953 -1.0412  0.0151
   87CHL1   H20 8895   1.159   3.320   7.681 -0.8957  0.2490 -2.2317
   87CHL1   C21 8896   1.312   3.465   7.660 -0.6282 -0.3225 -0.1971
   87CHL1  H21A 8897   1.318   3.508   7.763  1.0047  2.7395 -1.4634
   87CHL1  H21B 8898   1.246   3.527   7.595 -1.0049 -0.9766 -0.4495
   87CHL1  H21C 8899   1.415   3.464   7.620 -0.8710 -1.9609 -0.8697
   87CHL1   C22 8900   1.343   3.220   7.739 -0.2658  0.6540 -0.6886
   87CHL1  H22A 8901   1.284   3.126   7.733  1.0982 -0.1645 -3.6205
   87CHL1  H22B 8902   1.444   3.215   7.691  0.5134 -0.1837  0.9713
   87CHL1   C23 8903   1.361   3.259   7.882 -0.0137  0.1765 -0.2552
   87CHL1  H23A 8904   1.428   3.348   7.886  0.0469  0.2511 -2.1068
   87CHL1  H23B 8905   1.268   3.310   7.916 -0.1965  0.1923 -0.7572
   87CHL1   C24 8906   1.402   3.144   7.986  0.2215 -0.2009  0.1290
   87CHL1  H24A 8907   1.320   3.071   7.998 -1.3440  1.6296  1.1681
   87CHL1  H24B 8908   1.497   3.101   7.948  0.2080 -1.6212  1.6124
   87CHL1   C25 8909   1.431   3.198   8.126 -0.4798  0.8402 -0.4576
   87CHL1   H25 8910   1.342   3.256   8.160 -2.1426 -1.7173 -0.1928
   87CHL1   C26 8911   1.463   3.084   8.221  0.0155 -0.2308 -0.1140
   87CHL1  H26A 8912   1.462   3.114   8.328 -2.6212 -0.6830  0.0533
   87CHL1  H26B 8913   1.396   2.997   8.203 -0.1087 -0.2390  0.3731
   87CHL1  H26C 8914   1.568   3.056   8.199  1.5116  4.1235  0.4484
   87CHL1   C27 8915   1.542   3.301   8.128 -0.9405 -0.7302 -0.5723
   87CHL1  H27A 8916   1.518   3.392   8.069  0.5586  0.2552  0.2802
   87CHL1  H27B 8917   1.566   3.337   8.230  0.3838  0.6743 -1.3440
   87CHL1  H27C 8918   1.632   3.267   8.072  0.2099 -0.8636  1.2722
   88CHL1    C3 8919   4.921   3.492   6.848 -0.0258  0.7540 -0.0148
   88CHL1    H3 8920   4.909   3.589   6.901 -1.9911 -0.8946  2.8199
   88CHL1    O3 8921   4.920   3.507   6.705 -0.4225  0.2116  0.0247
   88CHL1   H3' 8922   4.832   3.483   6.676 -0.0857  1.6346 -2.5079
   88CHL1    C4 8923   5.063   3.451   6.890  0.2115  0.3315  0.6177
   88CHL1   H4A 8924   5.077   3.353   6.839 -0.2451  0.4548  0.2405
   88CHL1   H4B 8925   5.136   3.525   6.852 -1.5333  0.8533 -2.0465
   88CHL1    C5 8926   5.085   3.442   7.041 -0.5824  0.2991 -0.2597
   88CHL1    C6 8927   5.173   3.524   7.103 -0.3527  1.0890 -0.1431
   88CHL1    H6 8928   5.230   3.591   7.036  0.2448  0.2556 -0.4941
   88CHL1    C7 8929   5.198   3.517   7.259  0.0177 -0.1810  0.2837
   88CHL1   H7A 8930   5.306   3.515   7.284 -0.1691 -0.3353  1.0902
   88CHL1   H7B 8931   5.164   3.615   7.298  1.2076  0.6596 -0.6999
   88CHL1    C8 8932   5.121   3.404   7.327  0.0682 -0.2692  0.0021
   88CHL1    H8 8933   5.183   3.313   7.314  0.8267 -0.1170  2.1221
   88CHL1   C14 8934   5.120   3.433   7.474 -0.3729 -0.1931  0.0429
   88CHL1   H14 8935   5.073   3.533   7.492  1.1740  0.5285  0.2225
   88CHL1   C15 8936   5.247   3.457   7.553  0.0630 -0.2701 -0.3604
   88CHL1  H15A 8937   5.330   3.386   7.533  0.8781  0.1726  1.2802
   88CHL1  H15B 8938   5.292   3.555   7.524 -2.2907  0.9044 -0.2516
   88CHL1   C16 8939   5.206   3.450   7.703 -0.3953  0.3419  0.1577
   88CHL1  H16A 8940   5.270   3.375   7.754 -0.3391  0.1948 -0.1288
   88CHL1  H16B 8941   5.220   3.545   7.760 -0.6412  0.0341  0.7360
   88CHL1   C17 8942   5.062   3.411   7.700  0.8095  0.0711 -0.0133
   88CHL1   H17 8943   5.006   3.507   7.704  0.9530  0.1269  0.7615
   88CHL1   C13 8944   5.037   3.340   7.564  0.5036  0.2100  0.0895
   88CHL1   C18 8945   5.090   3.197   7.577  0.2603  1.0332  0.7930
   88CHL1  H18A 8946   5.182   3.197   7.639  1.5174  0.6967 -0.9919
   88CHL1  H18B 8947   5.011   3.133   7.622  1.1473 -0.9667 -0.3251
   88CHL1  H18C 8948   5.112   3.163   7.473  1.0878  1.6795  0.7445
   88CHL1   C12 8949   4.896   3.340   7.507  0.6474  0.4903  0.6845
   88CHL1  H12A 8950   4.832   3.262   7.554  0.6403 -0.2018 -0.4152
   88CHL1  H12B 8951   4.842   3.437   7.505 -0.4816 -0.0799 -2.0009
   88CHL1   C11 8952   4.908   3.291   7.358 -0.6786  0.3032  0.6826
   88CHL1  H11A 8953   4.944   3.186   7.353 -0.6491  0.2125  2.4132
   88CHL1  H11B 8954   4.804   3.292   7.320 -0.1705  0.8967 -0.7872
   88CHL1    C9 8955   4.980   3.386   7.270 -0.0946 -0.9032  0.2663
   88CHL1    H9 8956   4.933   3.487   7.273  0.5793 -0.5886  0.5389
   88CHL1   C10 8957   4.984   3.355   7.114 -0.2077  0.0776  0.6732
   88CHL1   C19 8958   5.013   3.205   7.097  0.2578  0.6957  0.2654
   88CHL1  H19A 8959   4.938   3.129   7.130  0.7359 -0.1607 -0.5585
   88CHL1  H19B 8960   5.028   3.179   6.990  1.8154  0.2141  0.5720
   88CHL1  H19C 8961   5.104   3.176   7.154  0.5850 -0.6767 -0.8711
   88CHL1    C1 8962   4.836   3.371   7.054 -0.5642 -0.1867  0.1384
   88CHL1   H1A 8963   4.777   3.285   7.092  1.3138 -1.1441  1.0143
   88CHL1   H1B 8964   4.802   3.463   7.106 -0.5707  0.3351 -0.7717
   88CHL1    C2 8965   4.828   3.388   6.898  0.4799 -0.4027  0.0153
   88CHL1   H2A 8966   4.723   3.400   6.863  0.5541 -0.5092 -0.2476
   88CHL1   H2B 8967   4.854   3.291   6.852 -0.9022 -0.8774  0.1813
   88CHL1   C20 8968   5.012   3.338   7.819  0.3007 -0.5590 -0.7830
   88CHL1   H20 8969   5.050   3.234   7.828 -0.8490 -0.8116  2.6910
   88CHL1   C21 8970   4.863   3.324   7.807 -0.0411 -0.3908 -0.4662
   88CHL1  H21A 8971   4.808   3.418   7.785 -1.9710 -1.1736  0.7221
   88CHL1  H21B 8972   4.828   3.294   7.908  0.5410  0.6006  0.0367
   88CHL1  H21C 8973   4.831   3.241   7.740 -1.4348  0.1530 -0.5153
   88CHL1   C22 8974   5.046   3.417   7.952  0.6896 -0.6450 -0.2583
   88CHL1  H22A 8975   5.149   3.458   7.952  0.8053 -0.7358  2.9222
   88CHL1  H22B 8976   4.971   3.498   7.963  0.9265 -0.5021  0.3441
   88CHL1   C23 8977   5.047   3.334   8.073 -1.2277  0.5654 -0.6046
   88CHL1  H23A 8978   4.963   3.262   8.072 -0.3583 -0.6151  1.9387
   88CHL1  H23B 8979   5.136   3.268   8.063 -0.6131  1.4312 -1.0270
   88CHL1   C24 8980   5.050   3.420   8.196  0.4231  1.0984  0.7972
   88CHL1  H24A 8981   5.132   3.494   8.185  1.6758 -0.6049 -2.9812
   88CHL1  H24B 8982   4.951   3.471   8.201 -1.6280 -2.6316  2.1378
   88CHL1   C25 8983   5.095   3.350   8.326  0.2150 -0.0897  0.5327
   88CHL1   H25 8984   5.196   3.312   8.300 -0.3125 -0.2357 -1.4745
   88CHL1   C26 8985   5.110   3.455   8.439  0.4144 -0.1163  0.3944
   88CHL1  H26A 8986   5.112   3.391   8.530 -0.3337 -1.5324 -0.5390
   88CHL1  H26B 8987   5.202   3.517   8.429  0.3644 -0.0627  0.2621
   88CHL1  H26C 8988   5.017   3.514   8.447 -0.3152 -0.9830 -1.1800
   88CHL1   C27 8989   5.000   3.234   8.363  0.0530  0.2013 -0.5494
   88CHL1  H27A 8990   4.902   3.286   8.369 -0.3020 -0.6011  1.0406
   88CHL1  H27B 8991   5.015   3.160   8.281  0.1224 -1.2071  0.6996
   88CHL1  H27C 8992   5.016   3.190   8.464 -0.8421  3.1798  1.0093
   89CHL1    C3 8993   3.720   4.999   6.914 -0.1768  0.4050  0.2938
   89CHL1    H3 8994   3.670   5.098   6.926 -0.5079  0.0054  2.6741
   89CHL1    O3 8995   3.696   4.953   6.776 -0.0896 -0.0864  0.1572
   89CHL1   H3' 8996   3.730   4.864   6.762 -0.4097 -0.0937 -0.6239
   89CHL1    C4 8997   3.871   5.005   6.940  0.0873 -0.0139 -0.5547
   89CHL1   H4A 8998   3.928   4.919   6.900  2.5761  2.0968 -1.8435
   89CHL1   H4B 8999   3.918   5.088   6.882 -0.2646 -0.5676 -1.6669
   89CHL1    C5 9000   3.910   5.020   7.089  0.4125 -0.1960 -0.0059
   89CHL1    C6 9001   3.998   5.113   7.128 -0.1346  0.2755  0.4348
   89CHL1    H6 9002   4.044   5.179   7.052 -1.0839  0.4582  0.0129
   89CHL1    C7 9003   4.037   5.142   7.271 -0.1156  0.3364  0.1524
   89CHL1   H7A 9004   4.148   5.141   7.264 -0.2011 -0.6767 -1.5727
   89CHL1   H7B 9005   3.997   5.241   7.302  0.0844  1.0798 -1.7833
   89CHL1    C8 9006   3.999   5.022   7.369 -0.2516  0.0472  0.1045
   89CHL1    H8 9007   4.081   4.946   7.368  0.1159  0.4346 -0.3442
   89CHL1   C14 9008   3.994   5.071   7.516 -0.1209  0.6605 -0.3925
   89CHL1   H14 9009   3.909   5.143   7.515 -0.7330 -0.0307 -2.7117
   89CHL1   C15 9010   4.116   5.150   7.573  0.4609 -0.3097  0.1445
   89CHL1  H15A 9011   4.212   5.102   7.544  0.0962 -0.8672 -0.1611
   89CHL1  H15B 9012   4.106   5.255   7.539 -0.1671 -0.6056 -0.6449
   89CHL1   C16 9013   4.107   5.137   7.725  1.2281  0.2995 -0.1396
   89CHL1  H16A 9014   4.184   5.063   7.756 -0.0066 -1.6378 -1.4349
   89CHL1  H16B 9015   4.136   5.234   7.770  1.5626 -0.3112  1.0143
   89CHL1   C17 9016   3.974   5.060   7.747  0.0407  0.2544  0.4060
   89CHL1   H17 9017   3.891   5.133   7.733  2.0912  2.4365 -1.5466
   89CHL1   C13 9018   3.952   4.970   7.620 -0.3207 -0.1923  0.2101
   89CHL1   C18 9019   4.053   4.855   7.626  0.3767  0.1714 -0.1885
   89CHL1  H18A 9020   4.155   4.889   7.654 -0.4909 -0.7718  5.3147
   89CHL1  H18B 9021   4.021   4.780   7.702  0.7157  0.5563  0.3366
   89CHL1  H18C 9022   4.060   4.811   7.524  2.2733 -1.3032  0.5195
   89CHL1   C12 9023   3.812   4.918   7.581 -0.7502 -0.0642 -0.4774
   89CHL1  H12A 9024   3.779   4.832   7.644  0.7696 -0.9501 -0.8413
   89CHL1  H12B 9025   3.740   5.002   7.581  0.9457  1.4667 -0.8803
   89CHL1   C11 9026   3.813   4.867   7.438  0.3489  0.0157  0.0117
   89CHL1  H11A 9027   3.875   4.775   7.438  1.1056  0.5021  1.1227
   89CHL1  H11B 9028   3.711   4.829   7.419  0.1895  0.2630  0.3590
   89CHL1    C9 9029   3.863   4.970   7.335 -0.2104 -0.4400  0.0278
   89CHL1    H9 9030   3.789   5.053   7.341  1.2228  0.8646  0.4939
   89CHL1   C10 9031   3.843   4.923   7.186 -0.3369  0.3947  0.4891
   89CHL1   C19 9032   3.919   4.788   7.169 -0.8352  0.1547 -0.1601
   89CHL1  H19A 9033   3.930   4.759   7.062  0.2414  0.1484 -0.0617
   89CHL1  H19B 9034   4.024   4.798   7.203 -0.7748  0.1623 -0.3458
   89CHL1  H19C 9035   3.876   4.701   7.224 -0.4814 -0.4794 -0.8642
   89CHL1    C1 9036   3.691   4.914   7.149 -0.5493 -0.1839 -0.6398
   89CHL1   H1A 9037   3.652   4.828   7.207 -0.1941 -0.2228 -0.4548
   89CHL1   H1B 9038   3.648   5.011   7.180  0.5448 -0.2391  1.2117
   89CHL1    C2 9039   3.664   4.889   7.006  0.1532  0.4537  0.3446
   89CHL1   H2A 9040   3.557   4.865   6.984  0.7071 -1.2288 -0.7042
   89CHL1   H2B 9041   3.726   4.800   6.982  1.7042  1.1256  1.7110
   89CHL1   C20 9042   3.961   5.000   7.892 -0.0656 -0.1591 -0.4162
   89CHL1   H20 9043   4.055   4.941   7.904  0.1686 -0.1570 -2.0233
   89CHL1   C21 9044   3.832   4.914   7.908  0.2673  0.0183  0.4706
   89CHL1  H21A 9045   3.806   4.885   8.011 -1.1649 -1.5186 -0.2756
   89CHL1  H21B 9046   3.839   4.819   7.851  0.7932  0.5711 -0.4143
   89CHL1  H21C 9047   3.755   4.985   7.871 -0.3607  0.0446  1.7762
   89CHL1   C22 9048   3.967   5.116   7.998 -0.1765  0.9116  1.0645
   89CHL1  H22A 9049   4.056   5.181   7.985 -0.3632  1.1907  1.1816
   89CHL1  H22B 9050   3.877   5.177   7.976 -1.3985 -0.8878  0.8058
   89CHL1   C23 9051   3.959   5.068   8.137  0.9037  0.4475 -0.4966
   89CHL1  H23A 9052   3.965   5.159   8.201 -0.2274  0.3683 -0.2611
   89CHL1  H23B 9053   3.863   5.017   8.159 -0.4568  2.9362 -0.3137
   89CHL1   C24 9054   4.083   4.987   8.181  0.0372 -0.7116 -0.0137
   89CHL1  H24A 9055   4.081   4.900   8.112  1.6878 -0.5942 -0.2401
   89CHL1  H24B 9056   4.174   5.044   8.153 -0.1834 -0.4063 -0.1173
   89CHL1   C25 9057   4.100   4.952   8.334  0.0097  0.0229 -0.0996
   89CHL1   H25 9058   4.193   4.892   8.333  0.0439 -0.0307  1.7470
   89CHL1   C26 9059   4.104   5.080   8.433  0.0116  0.1444 -0.0299
   89CHL1  H26A 9060   4.115   5.042   8.537  1.0107 -1.5832 -0.7345
   89CHL1  H26B 9061   4.187   5.151   8.415  1.3226 -1.0784  0.9888
   89CHL1  H26C 9062   4.008   5.136   8.423 -0.4290 -0.8770 -1.9801
   89CHL1   C27 9063   3.990   4.857   8.389  0.4732 -0.3599  0.5589
   89CHL1  H27A 9064   3.893   4.911   8.388 -0.9620 -2.7949  0.6335
   89CHL1  H27B 9065   3.983   4.773   8.317 -0.6394  0.5219 -0.4159
   89CHL1  H27C 9066   4.005   4.804   8.485 -3.2366 -0.1330  1.4098
   90CHL1    C3 9067   4.229   5.829   6.931 -0.1584  0.7127  0.3298
   90CHL1    H3 9068   4.286   5.733   6.931 -0.4038  0.5649  0.3309
   90CHL1    O3 9069   4.220   5.888   6.804  0.2751 -0.4998 -0.4178
   90CHL1   H3' 9070   4.311   5.902   6.775  0.1290  1.5828 -0.0164
   90CHL1    C4 9071   4.083   5.794   6.958  0.5561  0.9197 -0.3840
   90CHL1   H4A 9072   4.021   5.886   6.952  1.1909  1.4194  0.4906
   90CHL1   H4B 9073   4.054   5.731   6.871 -0.0371  1.4422 -0.5738
   90CHL1    C5 9074   4.056   5.732   7.093  0.0662 -0.4537 -1.1007
   90CHL1    C6 9075   3.999   5.619   7.115 -0.7079  0.0539 -0.2162
   90CHL1    H6 9076   3.955   5.555   7.037 -0.8238  0.7597 -0.7431
   90CHL1    C7 9077   3.969   5.565   7.251  0.1164  0.4884 -0.4136
   90CHL1   H7A 9078   3.860   5.547   7.248  0.1156  0.6164 -3.0427
   90CHL1   H7B 9079   4.029   5.472   7.265 -0.1302  0.4343  0.3184
   90CHL1    C8 9080   3.987   5.661   7.365  0.2346  0.3765 -0.7518
   90CHL1    H8 9081   3.896   5.724   7.371 -0.7466 -1.1479  3.0689
   90CHL1   C14 9082   3.984   5.582   7.502  0.4674  0.2899  0.5160
   90CHL1   H14 9083   4.080   5.527   7.491 -0.3447 -0.7901 -1.8048
   90CHL1   C15 9084   3.867   5.482   7.533 -0.6085  0.3470  0.2898
   90CHL1  H15A 9085   3.777   5.528   7.488 -1.8406 -0.2538  2.0399
   90CHL1  H15B 9086   3.890   5.385   7.484 -0.5256 -0.4259  1.8090
   90CHL1   C16 9087   3.856   5.489   7.687  0.2554  0.2204 -0.3544
   90CHL1  H16A 9088   3.760   5.533   7.721  0.2378 -0.3432  0.3355
   90CHL1  H16B 9089   3.869   5.387   7.730  1.7562  0.4220 -0.2826
   90CHL1   C17 9090   3.971   5.581   7.738  0.4770  0.7330 -0.1955
   90CHL1   H17 9091   4.057   5.510   7.735 -0.5511 -0.5333 -2.7119
   90CHL1   C13 9092   4.000   5.675   7.625  0.3442  0.0571 -0.1754
   90CHL1   C18 9093   3.895   5.788   7.619 -0.3537 -0.4434  0.0768
   90CHL1  H18A 9094   3.908   5.847   7.526  2.1361  1.0501  1.2640
   90CHL1  H18B 9095   3.790   5.752   7.622 -0.4304 -0.1468  1.3288
   90CHL1  H18C 9096   3.913   5.861   7.701  2.3603 -0.6175 -0.2659
   90CHL1   C12 9097   4.144   5.740   7.613  0.1737 -0.6280  0.4363
   90CHL1  H12A 9098   4.146   5.810   7.699 -0.0298  0.3504 -0.3390
   90CHL1  H12B 9099   4.229   5.673   7.642  1.2452  0.3264 -0.4027
   90CHL1   C11 9100   4.177   5.803   7.475  0.6561  0.4280  0.7268
   90CHL1  H11A 9101   4.152   5.911   7.482 -0.6469  0.1431  0.7295
   90CHL1  H11B 9102   4.288   5.809   7.468  0.7298  0.3022  1.6947
   90CHL1    C9 9103   4.115   5.743   7.349  0.2329  0.3561  0.8871
   90CHL1    H9 9104   4.190   5.663   7.332  0.1776  0.3856  0.4936
   90CHL1   C10 9105   4.115   5.819   7.215 -0.0136  0.0862 -0.6661
   90CHL1   C19 9106   4.032   5.946   7.238  0.7045  0.1162 -0.0137
   90CHL1  H19A 9107   3.926   5.917   7.251  0.7692 -1.7078 -2.6463
   90CHL1  H19B 9108   4.055   5.984   7.339  1.5291 -1.1930  0.3132
   90CHL1  H19C 9109   4.035   6.022   7.157 -1.7933  0.2236 -0.0641
   90CHL1    C1 9110   4.265   5.858   7.179 -0.4258 -0.7553  0.5397
   90CHL1   H1A 9111   4.300   5.929   7.257  3.8183 -0.7523 -1.1413
   90CHL1   H1B 9112   4.330   5.768   7.181 -0.7178 -0.9694  0.5478
   90CHL1    C2 9113   4.280   5.924   7.038 -0.2781 -0.0548 -0.9346
   90CHL1   H2A 9114   4.383   5.961   7.019 -0.2975 -0.1612 -1.2495
   90CHL1   H2B 9115   4.218   6.015   7.035  1.0110  0.8339 -1.6121
   90CHL1   C20 9116   3.936   5.644   7.878  0.0189 -0.1096 -0.6181
   90CHL1   H20 9117   3.848   5.712   7.870 -0.5958 -0.7533  0.3431
   90CHL1   C21 9118   4.049   5.741   7.935  0.2509  0.4284 -0.2530
   90CHL1  H21A 9119   4.004   5.777   8.030 -0.2526  0.7429 -0.6026
   90CHL1  H21B 9120   4.050   5.837   7.878 -0.9551  0.2316 -0.6488
   90CHL1  H21C 9121   4.148   5.693   7.943 -0.3090 -0.8653 -0.8083
   90CHL1   C22 9122   3.896   5.533   7.987 -0.5727 -0.2194  0.0204
   90CHL1  H22A 9123   3.830   5.461   7.936 -0.9028  0.4428 -0.5002
   90CHL1  H22B 9124   3.990   5.484   8.023 -1.0118 -0.2077  1.2211
   90CHL1   C23 9125   3.812   5.583   8.101  0.0665 -0.5826  1.1297
   90CHL1  H23A 9126   3.846   5.685   8.129 -0.9154  0.6612 -1.8801
   90CHL1  H23B 9127   3.705   5.596   8.076  0.4329  0.4539 -0.0110
   90CHL1   C24 9128   3.821   5.488   8.222 -0.3196 -0.5207 -0.4113
   90CHL1  H24A 9129   3.765   5.393   8.206 -1.6351  0.0473  0.6266
   90CHL1  H24B 9130   3.929   5.473   8.243 -0.4579  2.1299  3.0132
   90CHL1   C25 9131   3.751   5.542   8.351 -0.0224  0.4878  0.8189
   90CHL1   H25 9132   3.791   5.645   8.366  0.6177  0.4596 -0.5881
   90CHL1   C26 9133   3.597   5.551   8.340 -0.1485 -0.0998  0.6538
   90CHL1  H26A 9134   3.560   5.588   8.242  1.2053 -0.2795  0.0566
   90CHL1  H26B 9135   3.549   5.453   8.362 -0.1808 -0.7164 -1.8370
   90CHL1  H26C 9136   3.563   5.612   8.426  1.1183  1.4509  0.0895
   90CHL1   C27 9137   3.790   5.460   8.477 -0.0438  0.5702  0.5351
   90CHL1  H27A 9138   3.757   5.356   8.457 -2.1181  1.3524 -0.3808
   90CHL1  H27B 9139   3.901   5.463   8.470 -0.0560 -1.6229 -2.7306
   90CHL1  H27C 9140   3.753   5.501   8.573 -0.7383  0.8017  0.1738
   91CHL1    C3 9141   4.930   2.432   7.301  0.5898 -0.1610 -1.0621
   91CHL1    H3 9142   5.037   2.456   7.323 -0.3153  2.1843  1.3172
   91CHL1    O3 9143   4.927   2.446   7.162  0.5376 -0.6132 -0.0941
   91CHL1   H3' 9144   4.834   2.428   7.144 -0.2471  0.6944  2.2248
   91CHL1    C4 9145   4.896   2.291   7.329  0.2794 -0.8224  0.7851
   91CHL1   H4A 9146   4.790   2.271   7.302 -0.5780  2.4458  1.2730
   91CHL1   H4B 9147   4.957   2.219   7.269 -0.1441 -0.1974 -0.4446
   91CHL1    C5 9148   4.906   2.271   7.474 -0.1393  0.5278 -0.2739
   91CHL1    C6 9149   4.995   2.185   7.525 -0.7516 -0.6560 -0.2393
   91CHL1    H6 9150   5.050   2.118   7.458  0.5242  1.8349 -1.8383
   91CHL1    C7 9151   5.020   2.167   7.668 -0.4913 -0.3595 -0.3599
   91CHL1   H7A 9152   5.029   2.059   7.693  0.8361 -0.0637  0.5211
   91CHL1   H7B 9153   5.117   2.214   7.694  0.1049 -1.2092 -1.0105
   91CHL1    C8 9154   4.916   2.227   7.755 -0.2850 -0.3101  0.2793
   91CHL1    H8 9155   4.827   2.161   7.748 -0.5221  0.0906 -0.4823
   91CHL1   C14 9156   4.954   2.244   7.895  0.1793  0.3281  0.8943
   91CHL1   H14 9157   5.030   2.324   7.904  0.8785 -0.2588  0.3724
   91CHL1   C15 9158   5.030   2.124   7.950 -0.2034  0.5764 -0.1500
   91CHL1  H15A 9159   4.982   2.024   7.939 -1.0703  0.2497  4.3783
   91CHL1  H15B 9160   5.131   2.101   7.909  0.2493  0.3666  1.0302
   91CHL1   C16 9161   5.026   2.155   8.103 -0.8492  0.3718 -0.7551
   91CHL1  H16A 9162   5.011   2.065   8.166 -1.5212  0.3081 -1.0022
   91CHL1  H16B 9163   5.126   2.192   8.136 -1.3981  0.8158  0.4907
   91CHL1   C17 9164   4.933   2.273   8.127  1.0734  0.3035 -0.4883
   91CHL1   H17 9165   4.990   2.368   8.124 -0.5529  1.3272 -0.2881
   91CHL1   C13 9166   4.850   2.283   7.999  0.0204  0.4957  0.2010
   91CHL1   C18 9167   4.725   2.186   8.010 -0.0597  0.3034 -0.8026
   91CHL1  H18A 9168   4.768   2.084   8.012  0.9640  0.7370  0.7942
   91CHL1  H18B 9169   4.659   2.218   8.093 -0.1439  0.7687 -1.0470
   91CHL1  H18C 9170   4.665   2.190   7.916 -0.5520 -0.7566 -0.5516
   91CHL1   C12 9171   4.806   2.425   7.957  0.4056  0.7943  0.6720
   91CHL1  H12A 9172   4.727   2.473   8.018  0.3997 -0.9416  2.0741
   91CHL1  H12B 9173   4.893   2.493   7.965  0.7446  0.6805 -1.3432
   91CHL1   C11 9174   4.761   2.426   7.806  0.0958  0.4613  0.1381
   91CHL1  H11A 9175   4.656   2.389   7.809 -0.4840  2.0480  0.1467
   91CHL1  H11B 9176   4.754   2.536   7.795 -0.4457  0.2573 -2.0026
   91CHL1    C9 9177   4.868   2.366   7.706 -0.5566  0.1923 -0.2113
   91CHL1    H9 9178   4.966   2.417   7.713 -0.1405 -0.3405 -1.6891
   91CHL1   C10 9179   4.820   2.374   7.557 -0.0100  0.1472  0.1627
   91CHL1   C19 9180   4.675   2.348   7.552  0.2117  0.2049 -0.4740
   91CHL1  H19A 9181   4.658   2.252   7.607 -0.5568  0.2871 -0.5618
   91CHL1  H19B 9182   4.626   2.434   7.601  0.3621 -1.1421  2.2697
   91CHL1  H19C 9183   4.642   2.334   7.447  0.6672  2.5979 -0.9788
   91CHL1    C1 9184   4.856   2.520   7.507 -0.2838 -0.3214  0.1419
   91CHL1   H1A 9185   4.805   2.594   7.572 -0.1105  0.3762 -0.5090
   91CHL1   H1B 9186   4.963   2.545   7.523 -0.5744  1.2129 -0.1717
   91CHL1    C2 9187   4.835   2.534   7.363 -0.0104  0.1428 -0.2204
   91CHL1   H2A 9188   4.872   2.627   7.314 -1.0601  0.7525  0.0922
   91CHL1   H2B 9189   4.732   2.515   7.328  0.3984 -0.9888 -0.8249
   91CHL1   C20 9190   4.863   2.264   8.267 -0.3760 -0.6000  0.1765
   91CHL1   H20 9191   4.810   2.166   8.271  2.1358 -2.0271  0.4243
   91CHL1   C21 9192   4.771   2.390   8.287 -0.2845 -0.4570  0.0374
   91CHL1  H21A 9193   4.686   2.378   8.217 -1.3633 -2.4674  1.6059
   91CHL1  H21B 9194   4.834   2.482   8.280  0.7232 -1.0565  0.8539
   91CHL1  H21C 9195   4.721   2.394   8.386  0.7519  0.3145  0.5566
   91CHL1   C22 9196   4.959   2.249   8.390 -0.4211 -0.6156 -0.2438
   91CHL1  H22A 9197   4.892   2.243   8.479  0.7932  0.0801  0.7495
   91CHL1  H22B 9198   5.007   2.151   8.366 -1.3456 -0.6241 -2.2451
   91CHL1   C23 9199   5.068   2.354   8.410  0.3671 -0.8994  0.2874
   91CHL1  H23A 9200   5.118   2.384   8.316  0.8652  0.7971  1.0638
   91CHL1  H23B 9201   5.028   2.450   8.450 -0.4376  0.2436 -2.9805
   91CHL1   C24 9202   5.185   2.312   8.507  1.6075  0.2264 -0.2597
   91CHL1  H24A 9203   5.142   2.286   8.606  0.0092 -0.2221 -1.0441
   91CHL1  H24B 9204   5.242   2.219   8.483 -0.8163 -1.4886  0.2330
   91CHL1   C25 9205   5.303   2.410   8.540  0.2470 -0.2016 -0.3704
   91CHL1   H25 9206   5.365   2.417   8.448 -0.8906 -1.1021 -1.2453
   91CHL1   C26 9207   5.246   2.555   8.575 -0.6057 -0.0083  0.1153
   91CHL1  H26A 9208   5.330   2.618   8.612 -0.7066  0.5001 -0.4968
   91CHL1  H26B 9209   5.198   2.609   8.491  1.3276  1.7548  0.0640
   91CHL1  H26C 9210   5.157   2.544   8.639 -1.3338 -1.6702 -1.0920
   91CHL1   C27 9211   5.385   2.354   8.656 -0.3973 -0.3383  0.6295
   91CHL1  H27A 9212   5.324   2.355   8.748  0.6107  0.5113  1.3121
   91CHL1  H27B 9213   5.421   2.252   8.630 -1.6720 -0.4033 -1.0898
   91CHL1  H27C 9214   5.468   2.426   8.672 -2.0463  1.8023  0.0645
   92CHL1    C3 9215   6.118   4.254   6.708 -0.4329  0.5321  0.5981
   92CHL1    H3 9216   6.160   4.151   6.697  2.4676  1.6655  0.2493
   92CHL1    O3 9217   6.078   4.303   6.588  0.1776 -0.1446  0.7289
   92CHL1   H3' 9218   5.983   4.310   6.596  0.1048 -0.5706  0.2764
   92CHL1    C4 9219   5.996   4.244   6.797 -0.1411  0.3692 -0.8191
   92CHL1   H4A 9220   5.949   4.344   6.801  1.0575  0.9117  0.6604
   92CHL1   H4B 9221   5.917   4.182   6.749 -2.5756  1.6260  1.3259
   92CHL1    C5 9222   6.035   4.180   6.937  0.0695  0.1601 -0.4550
   92CHL1    C6 9223   5.966   4.073   6.990  1.1033 -0.3684 -0.6260
   92CHL1    H6 9224   5.875   4.025   6.950  0.0961 -0.4295  1.5811
   92CHL1    C7 9225   6.014   3.998   7.112  0.7888 -0.3286  0.8245
   92CHL1   H7A 9226   5.932   3.977   7.183 -0.0634 -1.6276 -0.4819
   92CHL1   H7B 9227   6.060   3.905   7.071  1.5315  1.2731 -2.3380
   92CHL1    C8 9228   6.124   4.069   7.192 -0.2068  0.0884 -0.4700
   92CHL1    H8 9229   6.071   4.150   7.246  0.2338  0.6209 -0.8219
   92CHL1   C14 9230   6.197   3.975   7.285  0.1979  0.4815 -0.1973
   92CHL1   H14 9231   6.251   3.902   7.221 -2.0371  2.0514 -4.2562
   92CHL1   C15 9232   6.110   3.887   7.383 -0.0800  0.3195 -0.1469
   92CHL1  H15A 9233   6.029   3.950   7.426  1.3135  0.5545  2.3304
   92CHL1  H15B 9234   6.064   3.800   7.331 -1.7126  0.4946  0.9171
   92CHL1   C16 9235   6.209   3.854   7.497  0.6533 -0.0610  0.6079
   92CHL1  H16A 9236   6.168   3.891   7.593  0.2571  3.9372 -0.9471
   92CHL1  H16B 9237   6.231   3.746   7.512 -1.4018 -0.3023  2.1848
   92CHL1   C17 9238   6.340   3.934   7.474  0.2207  0.5756  0.6899
   92CHL1   H17 9239   6.424   3.878   7.428 -0.7521 -0.9823  0.7260
   92CHL1   C13 9240   6.299   4.041   7.372 -0.6120  0.6935  0.6535
   92CHL1   C18 9241   6.231   4.163   7.448 -0.2952  0.0675  0.3161
   92CHL1  H18A 9242   6.193   4.242   7.379  1.8828  0.1871 -0.8675
   92CHL1  H18B 9243   6.148   4.125   7.510 -1.8891  1.1563 -1.0494
   92CHL1  H18C 9244   6.311   4.208   7.511  1.1878  0.4006 -1.6853
   92CHL1   C12 9245   6.410   4.087   7.276  0.4329 -0.5326  0.6777
   92CHL1  H12A 9246   6.487   4.151   7.323 -0.5625  2.9006 -1.9844
   92CHL1  H12B 9247   6.450   4.002   7.217 -1.3315  0.6771 -2.5770
   92CHL1   C11 9248   6.354   4.186   7.175  0.2964  0.0675  0.3806
   92CHL1  H11A 9249   6.333   4.279   7.230 -1.8226 -0.3223  0.2965
   92CHL1  H11B 9250   6.424   4.231   7.101  0.0934 -0.2205  0.0101
   92CHL1    C9 9251   6.222   4.129   7.098 -0.4288 -0.0825 -0.5395
   92CHL1    H9 9252   6.261   4.045   7.036  1.7448 -1.2114  2.1533
   92CHL1   C10 9253   6.167   4.230   6.991 -0.9086  0.0949  0.0005
   92CHL1   C19 9254   6.137   4.362   7.057 -0.2111  0.3347  0.1769
   92CHL1  H19A 9255   6.225   4.412   7.101  0.1320  1.8742 -2.0724
   92CHL1  H19B 9256   6.105   4.449   6.995 -0.3074  2.8732  3.5207
   92CHL1  H19C 9257   6.061   4.355   7.138 -0.4248 -1.3514 -0.1303
   92CHL1    C1 9258   6.281   4.242   6.885  0.5626 -0.4410  0.6163
   92CHL1   H1A 9259   6.380   4.283   6.915  0.7408  1.4308 -2.1287
   92CHL1   H1B 9260   6.314   4.138   6.868  0.1052 -0.5722  0.5379
   92CHL1    C2 9261   6.232   4.328   6.766 -0.2666  0.5368 -0.1047
   92CHL1   H2A 9262   6.314   4.331   6.692  0.3575 -3.3659  0.2230
   92CHL1   H2B 9263   6.216   4.436   6.788 -0.5923  0.7660 -1.4194
   92CHL1   C20 9264   6.384   3.975   7.620  0.0233  0.8713  0.4226
   92CHL1   H20 9265   6.311   4.050   7.658  0.2010  0.6510  1.2173
   92CHL1   C21 9266   6.523   4.047   7.612  0.0595  0.6467 -0.2166
   92CHL1  H21A 9267   6.570   4.077   7.708 -0.5084 -0.0178  0.2792
   92CHL1  H21B 9268   6.507   4.146   7.563 -2.9769 -0.4169 -1.5785
   92CHL1  H21C 9269   6.592   4.001   7.538 -2.4943 -0.1957 -2.2454
   92CHL1   C22 9270   6.395   3.855   7.722  0.0888 -0.0893 -0.1025
   92CHL1  H22A 9271   6.296   3.806   7.738 -0.5275  0.5412 -1.7923
   92CHL1  H22B 9272   6.472   3.781   7.692  0.6930  0.5991 -0.2648
   92CHL1   C23 9273   6.411   3.908   7.869  0.0497 -0.2863 -0.4895
   92CHL1  H23A 9274   6.509   3.960   7.870 -0.0013 -0.1982  0.9503
   92CHL1  H23B 9275   6.334   3.988   7.881  0.6201  0.2229 -0.2209
   92CHL1   C24 9276   6.411   3.809   7.988 -0.0843 -0.6409  0.9939
   92CHL1  H24A 9277   6.320   3.746   7.995  1.1585 -2.3182  3.1677
   92CHL1  H24B 9278   6.480   3.725   7.962 -0.7332 -0.0347 -3.6424
   92CHL1   C25 9279   6.453   3.875   8.122  0.4915  0.3359  0.0804
   92CHL1   H25 9280   6.557   3.908   8.105  0.5258  0.0786 -0.2182
   92CHL1   C26 9281   6.372   4.003   8.156 -0.2926  0.1700  0.3808
   92CHL1  H26A 9282   6.401   4.045   8.255 -0.2427 -1.3156  1.0231
   92CHL1  H26B 9283   6.393   4.079   8.077 -1.5567  0.1559 -0.0036
   92CHL1  H26C 9284   6.262   3.984   8.155 -0.8204  2.8422  0.3144
   92CHL1   C27 9285   6.454   3.777   8.234  0.7324 -0.5836  0.0305
   92CHL1  H27A 9286   6.507   3.684   8.202  0.7278 -0.0984 -1.4906
   92CHL1  H27B 9287   6.502   3.814   8.327  1.6425 -3.0940  0.6398
   92CHL1  H27C 9288   6.354   3.752   8.275 -0.3903  3.2652 -0.0188
   93CHL1    C3 9289   6.227   2.899   6.823  0.7403  0.3278  0.3030
   93CHL1    H3 9290   6.325   2.851   6.845 -0.6327 -2.3214  0.9718
   93CHL1    O3 9291   6.201   2.862   6.690 -0.4439 -0.2929  0.0189
   93CHL1   H3' 9292   6.106   2.866   6.680 -0.5774 -2.2036  0.1030
   93CHL1    C4 9293   6.113   2.841   6.909 -0.5486  0.3085 -0.8662
   93CHL1   H4A 9294   6.018   2.877   6.865  0.1839  0.9761 -1.9439
   93CHL1   H4B 9295   6.119   2.732   6.888 -2.4012 -0.3174  1.4601
   93CHL1    C5 9296   6.139   2.874   7.059 -0.7231 -0.2791  0.0508
   93CHL1    C6 9297   6.134   2.774   7.148 -0.1222  0.6575  0.1832
   93CHL1    H6 9298   6.108   2.680   7.098  1.6490  1.4435 -2.5141
   93CHL1    C7 9299   6.153   2.781   7.294 -0.2281 -0.3604 -0.5276
   93CHL1   H7A 9300   6.073   2.728   7.350  0.3633  0.2644  0.9584
   93CHL1   H7B 9301   6.251   2.735   7.320  0.4120  2.2527  2.1501
   93CHL1    C8 9302   6.154   2.926   7.345 -0.0238 -0.5875  0.3908
   93CHL1    H8 9303   6.046   2.952   7.352 -0.5516 -2.1368 -1.3492
   93CHL1   C14 9304   6.218   2.922   7.485  0.5933  1.1158  0.5847
   93CHL1   H14 9305   6.320   2.878   7.480 -0.0652 -0.3473 -0.6094
   93CHL1   C15 9306   6.170   2.824   7.597  0.2945 -0.5588  0.8044
   93CHL1  H15A 9307   6.059   2.824   7.603  0.1940  1.3177 -0.3179
   93CHL1  H15B 9308   6.212   2.722   7.583  1.7218  0.0649  0.4064
   93CHL1   C16 9309   6.226   2.886   7.728 -0.0972  0.3925  0.6680
   93CHL1  H16A 9310   6.138   2.900   7.794 -1.1698 -0.6985 -0.4789
   93CHL1  H16B 9311   6.310   2.843   7.787  0.4443  0.5677  0.0375
   93CHL1   C17 9312   6.289   3.030   7.687 -0.0477  0.0200 -0.5452
   93CHL1   H17 9313   6.394   3.004   7.658 -0.0440 -0.7638  0.1246
   93CHL1   C13 9314   6.226   3.067   7.544 -0.0183  0.1418 -0.0824
   93CHL1   C18 9315   6.080   3.112   7.570  0.7120 -0.1331 -0.4766
   93CHL1  H18A 9316   6.023   3.034   7.625 -0.0473  0.3655 -0.5425
   93CHL1  H18B 9317   6.087   3.203   7.633 -1.5164 -0.1682 -0.0988
   93CHL1  H18C 9318   6.015   3.137   7.483 -0.4705  0.3184  0.5070
   93CHL1   C12 9319   6.299   3.157   7.443 -0.1423 -0.0089 -0.4277
   93CHL1  H12A 9320   6.310   3.262   7.478  0.2566 -0.6703  1.5285
   93CHL1  H12B 9321   6.402   3.118   7.428  0.1334 -0.1180  1.5210
   93CHL1   C11 9322   6.227   3.170   7.308 -0.3527  0.1015  0.0186
   93CHL1  H11A 9323   6.128   3.218   7.326 -0.3975  0.1123 -0.2487
   93CHL1  H11B 9324   6.281   3.242   7.242  1.4018 -0.3916  0.8701
   93CHL1    C9 9325   6.219   3.029   7.245 -0.0733 -0.1375 -0.3551
   93CHL1    H9 9326   6.321   2.987   7.231 -0.1848 -0.6902  0.4121
   93CHL1   C10 9327   6.166   3.015   7.100  0.0558 -0.5366 -0.1815
   93CHL1   C19 9328   6.025   3.091   7.096  0.3087 -0.2297 -0.1349
   93CHL1  H19A 9329   6.041   3.197   7.126  3.6260 -1.8024  5.1125
   93CHL1  H19B 9330   5.973   3.091   6.998 -0.8413  1.0864  0.4365
   93CHL1  H19C 9331   5.953   3.047   7.169  0.0743 -1.9427 -1.3227
   93CHL1    C1 9332   6.266   3.082   6.997  0.2964  0.6566  0.5224
   93CHL1   H1A 9333   6.271   3.193   7.003  0.0265  0.6506  0.8929
   93CHL1   H1B 9334   6.371   3.049   7.017  0.8387  2.8305  1.6179
   93CHL1    C2 9335   6.229   3.048   6.851  0.0153  0.3324  0.2573
   93CHL1   H2A 9336   6.305   3.081   6.777  0.8484 -0.1093  0.8960
   93CHL1   H2B 9337   6.128   3.087   6.824 -0.8750 -1.4855  0.7904
   93CHL1   C20 9338   6.283   3.128   7.802  0.1520 -0.2986  0.2632
   93CHL1   H20 9339   6.175   3.144   7.825 -0.5079 -0.5323 -2.3815
   93CHL1   C21 9340   6.335   3.261   7.750 -0.0975 -0.1776  0.7877
   93CHL1  H21A 9341   6.254   3.301   7.685  0.0870 -1.9002 -0.5698
   93CHL1  H21B 9342   6.428   3.257   7.690 -0.1447 -0.8596  0.7572
   93CHL1  H21C 9343   6.338   3.329   7.837  0.6832 -0.6764  1.1535
   93CHL1   C22 9344   6.362   3.078   7.936 -0.3461  0.3655 -0.2367
   93CHL1  H22A 9345   6.313   2.982   7.964  0.1900 -0.5232 -2.1382
   93CHL1  H22B 9346   6.460   3.056   7.888  0.3331  2.2180  0.2541
   93CHL1   C23 9347   6.360   3.168   8.056  0.7522 -0.1240  0.3628
   93CHL1  H23A 9348   6.413   3.263   8.033 -0.4851  1.3873  3.1736
   93CHL1  H23B 9349   6.263   3.208   8.093  0.4804 -0.9535  0.5666
   93CHL1   C24 9350   6.414   3.115   8.195 -0.2587  0.1561  0.2156
   93CHL1  H24A 9351   6.375   3.013   8.216  2.5752 -1.4303 -1.5581
   93CHL1  H24B 9352   6.525   3.109   8.183 -0.2311 -0.8127  0.8162
   93CHL1   C25 9353   6.382   3.215   8.303 -0.7121  0.7457 -0.0606
   93CHL1   H25 9354   6.271   3.223   8.314 -0.7201  0.8636 -0.2192
   93CHL1   C26 9355   6.433   3.177   8.446  0.1548 -0.0389  0.4964
   93CHL1  H26A 9356   6.394   3.253   8.518  2.3430  0.0755  1.6528
   93CHL1  H26B 9357   6.400   3.072   8.459  1.6962 -0.5393  0.6438
   93CHL1  H26C 9358   6.544   3.177   8.453  0.2982  1.0113 -1.2388
   93CHL1   C27 9359   6.444   3.351   8.275  0.7076  0.1892 -0.0382
   93CHL1  H27A 9360   6.401   3.394   8.182  2.5898  0.9324 -0.6085
   93CHL1  H27B 9361   6.436   3.422   8.359 -1.4817  1.3952 -1.1674
   93CHL1  H27C 9362   6.547   3.332   8.239  0.4357  0.0946 -0.7874
   94CHL1    C3 9363   0.154   2.523   6.899 -0.3718 -0.3903 -0.1798
   94CHL1    H3 9364   0.064   2.473   6.939  1.0813 -1.7870  1.4811
   94CHL1    O3 9365   0.137   2.521   6.758  0.1443 -0.6931 -0.0558
   94CHL1   H3' 9366   0.224   2.552   6.731 -0.0877 -0.8671 -1.0356
   94CHL1    C4 9367   0.175   2.659   6.962 -0.7420 -0.6789 -0.4823
   94CHL1   H4A 9368   0.258   2.706   6.907 -0.2740 -0.0487  0.7285
   94CHL1   H4B 9369   0.092   2.728   6.938 -1.5972 -0.9838  1.3571
   94CHL1    C5 9370   0.198   2.658   7.112  0.7915 -0.8509  0.3105
   94CHL1    C6 9371   0.115   2.724   7.195  0.0383  0.1676  0.3331
   94CHL1    H6 9372   0.041   2.792   7.151  2.4191  4.5177  2.3855
   94CHL1    C7 9373   0.125   2.718   7.349  0.5622  0.0011 -0.1701
   94CHL1   H7A 9374   0.097   2.821   7.382  2.8106  1.0978 -1.4391
   94CHL1   H7B 9375   0.039   2.654   7.377  0.9871 -1.0504 -1.2003
   94CHL1    C8 9376   0.265   2.673   7.386 -0.0612 -0.2071  0.5374
   94CHL1    H8 9377   0.327   2.759   7.353 -3.8490  2.8837  0.6883
   94CHL1   C14 9378   0.259   2.650   7.532 -0.3705  0.0937  0.2605
   94CHL1   H14 9379   0.190   2.564   7.544 -0.2286  0.2118  2.2357
   94CHL1   C15 9380   0.207   2.756   7.627  0.0949 -0.8205 -0.0533
   94CHL1  H15A 9381   0.233   2.857   7.590 -2.8664 -0.0923 -0.4609
   94CHL1  H15B 9382   0.096   2.748   7.621  0.2705 -4.6176 -1.2004
   94CHL1   C16 9383   0.266   2.726   7.769  0.3171  1.0503  0.1433
   94CHL1  H16A 9384   0.322   2.818   7.795 -2.2346  2.7853 -0.0949
   94CHL1  H16B 9385   0.183   2.700   7.838  0.7994 -1.3644 -0.0908
   94CHL1   C17 9386   0.359   2.595   7.750 -0.5408  1.2858 -0.0562
   94CHL1   H17 9387   0.296   2.504   7.763  2.8769 -1.2117  0.2435
   94CHL1   C13 9388   0.389   2.599   7.588  0.4981 -0.0222 -0.4882
   94CHL1   C18 9389   0.491   2.704   7.562 -0.7041 -1.1103 -0.6249
   94CHL1  H18A 9390   0.466   2.799   7.615  2.7581  1.1023 -2.5285
   94CHL1  H18B 9391   0.593   2.685   7.601 -0.4815 -1.2140 -1.2504
   94CHL1  H18C 9392   0.505   2.734   7.456 -0.8387 -0.5061 -0.4797
   94CHL1   C12 9393   0.425   2.463   7.532  0.6521  0.1537  0.3342
   94CHL1  H12A 9394   0.519   2.421   7.575 -0.0692 -1.8158  0.1152
   94CHL1  H12B 9395   0.345   2.396   7.570  1.3920  0.6887  3.0858
   94CHL1   C11 9396   0.425   2.476   7.376 -0.5556 -0.5813 -0.3000
   94CHL1  H11A 9397   0.515   2.532   7.343 -1.0664  0.1822 -0.4212
   94CHL1  H11B 9398   0.433   2.376   7.329  1.3133 -0.2463 -0.7897
   94CHL1    C9 9399   0.304   2.545   7.315 -0.6758 -1.0760 -0.0887
   94CHL1    H9 9400   0.213   2.486   7.339 -0.8971 -0.2803  1.1168
   94CHL1   C10 9401   0.313   2.561   7.160 -0.2447 -0.3837  0.1397
   94CHL1   C19 9402   0.450   2.619   7.120  0.1367  0.0358  0.7237
   94CHL1  H19A 9403   0.477   2.700   7.190  0.4245 -0.6076  1.3667
   94CHL1  H19B 9404   0.532   2.544   7.118  1.7964  1.8045 -0.1901
   94CHL1  H19C 9405   0.445   2.672   7.023  1.3137 -0.7417  0.2189
   94CHL1    C1 9406   0.276   2.424   7.094  0.5032 -0.5956 -0.4229
   94CHL1   H1A 9407   0.354   2.351   7.122  2.1016 -0.2379 -3.4833
   94CHL1   H1B 9408   0.184   2.376   7.133  0.3901 -1.0533 -1.2215
   94CHL1    C2 9409   0.273   2.432   6.939 -0.7634  0.3621 -0.7178
   94CHL1   H2A 9410   0.248   2.333   6.893  2.6636 -1.9424  1.8697
   94CHL1   H2B 9411   0.365   2.467   6.888  0.4834 -2.9418 -0.9803
   94CHL1   C20 9412   0.481   2.582   7.850  0.0591 -0.1707 -0.1487
   94CHL1   H20 9413   0.549   2.663   7.817 -0.3690 -0.5034 -1.9667
   94CHL1   C21 9414   0.552   2.447   7.843  0.0942  0.1230  0.0477
   94CHL1  H21A 9415   0.476   2.368   7.861  0.6249 -0.1544  1.1558
   94CHL1  H21B 9416   0.629   2.433   7.922  0.8281 -3.7499 -1.1346
   94CHL1  H21C 9417   0.610   2.418   7.752  0.2373 -1.8416  0.7087
   94CHL1   C22 9418   0.451   2.629   8.000  0.0191 -0.1387 -0.5935
   94CHL1  H22A 9419   0.411   2.732   8.007  0.9533  0.1179  1.6909
   94CHL1  H22B 9420   0.378   2.558   8.044  0.5001  0.2238  0.8300
   94CHL1   C23 9421   0.573   2.621   8.093  0.2194  0.6117 -0.2355
   94CHL1  H23A 9422   0.601   2.515   8.109 -0.3551  0.3601 -0.8305
   94CHL1  H23B 9423   0.663   2.660   8.040  0.7553  0.0241  0.2369
   94CHL1   C24 9424   0.561   2.701   8.224  0.4682  0.3708  0.0295
   94CHL1  H24A 9425   0.553   2.810   8.205 -1.2903  0.2286 -0.2250
   94CHL1  H24B 9426   0.473   2.670   8.284  0.7634 -2.2093 -0.7685
   94CHL1   C25 9427   0.678   2.663   8.320 -0.2281 -0.3648  0.0187
   94CHL1   H25 9428   0.685   2.552   8.333 -0.5864 -0.4837 -0.7375
   94CHL1   C26 9429   0.805   2.728   8.271 -0.5412  0.4751 -0.2875
   94CHL1  H26A 9430   0.799   2.838   8.280  1.0924  0.4508  1.9086
   94CHL1  H26B 9431   0.894   2.690   8.326 -0.7150 -0.4676 -0.6315
   94CHL1  H26C 9432   0.823   2.715   8.162  0.1261 -0.3896 -0.0864
   94CHL1   C27 9433   0.656   2.724   8.461 -0.0683  0.4326 -0.2050
   94CHL1  H27A 9434   0.561   2.677   8.494 -0.5511  1.9994  0.7591
   94CHL1  H27B 9435   0.740   2.693   8.526  0.6627  1.2244 -0.7498
   94CHL1  H27C 9436   0.626   2.831   8.471 -1.2687  0.0329  0.7412
   95CHL1    C3 9437   0.936   4.705   6.670  0.3990  0.6680  0.4154
   95CHL1    H3 9438   0.970   4.602   6.694 -0.1956  0.0663 -1.1646
   95CHL1    O3 9439   0.914   4.708   6.527 -0.3490  0.1116 -0.0224
   95CHL1   H3' 9440   0.855   4.637   6.502  0.7029 -0.9125  0.3164
   95CHL1    C4 9441   0.811   4.754   6.747 -0.4609  0.4715  0.2659
   95CHL1   H4A 9442   0.777   4.857   6.724  1.2707  0.2138 -4.3323
   95CHL1   H4B 9443   0.730   4.685   6.716 -1.3030  0.8330  1.5477
   95CHL1    C5 9444   0.843   4.741   6.892  0.1701 -0.5932 -0.0817
   95CHL1    C6 9445   0.777   4.656   6.971 -0.0066 -0.3314  0.3260
   95CHL1    H6 9446   0.702   4.589   6.927 -1.1925  1.3654 -0.3468
   95CHL1    C7 9447   0.772   4.661   7.121 -0.2300  0.2866  0.5877
   95CHL1   H7A 9448   0.668   4.660   7.161  0.0275  1.8185  1.3922
   95CHL1   H7B 9449   0.826   4.572   7.160 -0.1663  0.7581  1.6226
   95CHL1    C8 9450   0.849   4.783   7.165 -0.1318 -0.3774  0.1690
   95CHL1    H8 9451   0.784   4.873   7.154  0.3889  0.0159  0.2392
   95CHL1   C14 9452   0.895   4.760   7.310  0.4562 -0.3033  0.0379
   95CHL1   H14 9453   0.973   4.681   7.299 -1.0132 -1.5300 -2.9776
   95CHL1   C15 9454   0.795   4.706   7.408  0.4931  0.1187 -0.1120
   95CHL1  H15A 9455   0.701   4.761   7.387  1.6871  1.1874 -3.3030
   95CHL1  H15B 9456   0.775   4.597   7.403 -2.3905  0.4727  1.3414
   95CHL1   C16 9457   0.857   4.745   7.545  0.1259  0.3092 -0.8184
   95CHL1  H16A 9458   0.787   4.812   7.599 -0.1649  0.1172 -0.9522
   95CHL1  H16B 9459   0.865   4.656   7.612 -0.2931  1.5550  0.9473
   95CHL1   C17 9460   0.986   4.825   7.517  0.1622 -0.0050  0.0643
   95CHL1   H17 9461   1.065   4.747   7.518 -1.1537 -1.3926  2.0234
   95CHL1   C13 9462   0.964   4.878   7.376 -0.1714 -0.7213  0.3840
   95CHL1   C18 9463   0.873   5.005   7.378  0.6966 -0.3401 -0.1939
   95CHL1  H18A 9464   0.831   5.025   7.278  0.3095 -0.3549 -0.0353
   95CHL1  H18B 9465   0.778   4.985   7.433  1.5298 -2.0519  0.7341
   95CHL1  H18C 9466   0.928   5.094   7.415 -0.5903  0.2355  0.4081
   95CHL1   C12 9467   1.092   4.906   7.294  0.1889 -0.1501  0.2653
   95CHL1  H12A 9468   1.157   4.989   7.330 -0.9899  0.7586  0.3598
   95CHL1  H12B 9469   1.155   4.815   7.305  0.1688 -0.2514 -0.4185
   95CHL1   C11 9470   1.060   4.937   7.145  1.0253 -0.0551 -0.2876
   95CHL1  H11A 9471   1.000   5.031   7.144  0.3385 -0.4898 -0.8345
   95CHL1  H11B 9472   1.151   4.950   7.083  0.9813 -0.5004 -0.4429
   95CHL1    C9 9473   0.977   4.817   7.081 -0.3144 -1.0362  0.8155
   95CHL1    H9 9474   1.039   4.725   7.080 -1.1764 -1.7084 -2.2244
   95CHL1   C10 9475   0.949   4.842   6.933  0.0323  0.1672  0.1015
   95CHL1   C19 9476   0.911   4.991   6.911  0.8344  0.0601 -0.4457
   95CHL1  H19A 9477   1.004   5.050   6.928  2.1188 -2.0679  0.2659
   95CHL1  H19B 9478   0.874   5.004   6.807  1.5142 -0.4666 -0.7596
   95CHL1  H19C 9479   0.826   5.023   6.975  0.6876 -2.8898  1.0037
   95CHL1    C1 9480   1.080   4.802   6.850 -0.5451  0.5059  0.3695
   95CHL1   H1A 9481   1.152   4.883   6.873 -2.5461  2.0186  1.7384
   95CHL1   H1B 9482   1.123   4.703   6.877 -0.7729 -0.2085 -1.7027
   95CHL1    C2 9483   1.054   4.793   6.697 -0.6948  0.2199 -0.0661
   95CHL1   H2A 9484   1.142   4.757   6.639 -0.2043  0.8818  0.2476
   95CHL1   H2B 9485   1.029   4.898   6.668 -0.8875 -0.2226 -1.6073
   95CHL1   C20 9486   1.023   4.920   7.629 -0.0554 -1.1373  0.1131
   95CHL1   H20 9487   0.948   5.001   7.638  2.8274  2.1640 -2.6708
   95CHL1   C21 9488   1.166   4.971   7.606  0.0873  0.3059  0.3357
   95CHL1  H21A 9489   1.175   5.039   7.519  1.1356 -0.9348 -0.5662
   95CHL1  H21B 9490   1.227   4.879   7.597  0.0900 -0.1264  3.5601
   95CHL1  H21C 9491   1.218   5.024   7.689  1.4362  1.3070 -1.0881
   95CHL1   C22 9492   1.025   4.853   7.771  0.0460  0.1735 -0.0047
   95CHL1  H22A 9493   0.929   4.799   7.788  0.8518 -0.6038  2.5958
   95CHL1  H22B 9494   1.109   4.781   7.785  2.0735  2.2356 -0.9898
   95CHL1   C23 9495   1.040   4.953   7.888  0.4692  0.4424 -0.1123
   95CHL1  H23A 9496   1.128   5.021   7.876  2.3577 -0.9615  3.9277
   95CHL1  H23B 9497   0.951   5.019   7.892 -0.1710 -0.1689 -2.3269
   95CHL1   C24 9498   1.060   4.881   8.024  0.5957  0.2483  0.2332
   95CHL1  H24A 9499   0.967   4.820   8.032  0.7276 -0.3776 -2.2468
   95CHL1  H24B 9500   1.148   4.814   8.025 -0.5620 -1.3245  0.1048
   95CHL1   C25 9501   1.062   4.971   8.142 -0.3192  0.3518 -0.0662
   95CHL1   H25 9502   0.975   5.039   8.132 -0.0573  0.6669 -0.2017
   95CHL1   C26 9503   1.044   4.876   8.259  0.1460 -0.2242  0.1920
   95CHL1  H26A 9504   1.109   4.787   8.249 -0.8773 -1.5821  3.9077
   95CHL1  H26B 9505   1.059   4.942   8.347 -1.1744  1.9788 -1.1399
   95CHL1  H26C 9506   0.934   4.858   8.260 -0.2761  2.0204  0.4063
   95CHL1   C27 9507   1.184   5.059   8.141 -0.2527  0.0945 -0.3494
   95CHL1  H27A 9508   1.201   5.101   8.040 -0.7366  1.4648  0.1107
   95CHL1  H27B 9509   1.180   5.145   8.211  0.6730  1.5983 -2.0516
   95CHL1  H27C 9510   1.277   5.000   8.155  0.7634  1.8460  0.7481
   96CHL1    C3 9511   6.773   0.924   6.712  0.1436 -0.8665 -0.0512
   96CHL1    H3 9512   6.870   0.974   6.694 -0.1067 -0.4627 -0.2848
   96CHL1    O3 9513   6.702   0.916   6.585 -0.1066  0.5212  0.3734
   96CHL1   H3' 9514   6.745   0.848   6.532  2.0124  2.9354 -1.2379
   96CHL1    C4 9515   6.809   0.774   6.760 -0.0316 -0.6607 -0.1785
   96CHL1   H4A 9516   6.714   0.717   6.758 -0.7446  0.4758  0.6761
   96CHL1   H4B 9517   6.884   0.743   6.684  1.5949  0.8998  0.7200
   96CHL1    C5 9518   6.864   0.778   6.900 -0.8535 -1.1019 -0.0274
   96CHL1    C6 9519   6.985   0.725   6.927  0.3605 -0.3489 -0.2871
   96CHL1    H6 9520   7.031   0.664   6.848 -1.2840 -2.3859  0.2246
   96CHL1    C7 9521   7.043   0.719   7.064 -1.1318 -0.6502 -0.1800
   96CHL1   H7A 9522   7.078   0.615   7.080 -0.8507 -0.6871 -0.9665
   96CHL1   H7B 9523   7.127   0.787   7.085 -0.1951 -1.8945  0.2473
   96CHL1    C8 9524   6.931   0.745   7.167 -0.5284 -0.5007  0.0402
   96CHL1    H8 9525   6.860   0.659   7.162 -1.8212  0.4789  0.6895
   96CHL1   C14 9526   6.995   0.762   7.307  0.6141  0.2492  0.4002
   96CHL1   H14 9527   7.067   0.846   7.297  0.8985 -0.1332 -0.9887
   96CHL1   C15 9528   7.087   0.648   7.351 -0.0633 -0.0356  0.5261
   96CHL1  H15A 9529   7.045   0.547   7.337 -0.1756 -0.3606  2.7593
   96CHL1  H15B 9530   7.187   0.655   7.303 -0.5450  0.2259 -0.4618
   96CHL1   C16 9531   7.100   0.673   7.501  0.0131 -0.0907 -0.0647
   96CHL1  H16A 9532   7.079   0.579   7.556  0.9263 -0.7254 -0.7699
   96CHL1  H16B 9533   7.203   0.708   7.523 -0.4951  1.8169 -0.5347
   96CHL1   C17 9534   7.002   0.790   7.536 -0.0021 -0.1698  0.1093
   96CHL1   H17 9535   7.053   0.884   7.508 -1.6969  0.7562 -0.0286
   96CHL1   C13 9536   6.900   0.783   7.424  0.1735  0.3974  0.3402
   96CHL1   C18 9537   6.798   0.663   7.432 -0.0427  0.0369 -0.2368
   96CHL1  H18A 9538   6.851   0.571   7.465  0.7470  1.4315  2.7310
   96CHL1  H18B 9539   6.723   0.679   7.512  0.7632 -1.2190  0.8095
   96CHL1  H18C 9540   6.741   0.656   7.337 -0.5613 -0.7368  0.1211
   96CHL1   C12 9541   6.828   0.914   7.405  0.1204  0.4118 -0.3079
   96CHL1  H12A 9542   6.749   0.932   7.482  0.0419  3.3773 -0.9403
   96CHL1  H12B 9543   6.909   0.990   7.406 -0.0261  0.8373 -4.6269
   96CHL1   C11 9544   6.763   0.914   7.266 -0.2378 -0.6200  1.1835
   96CHL1  H11A 9545   6.684   0.836   7.265 -0.5008 -0.4146 -1.4969
   96CHL1  H11B 9546   6.722   1.014   7.243  0.1934 -0.1408  2.4526
   96CHL1    C9 9547   6.853   0.873   7.139  0.5093 -0.1553  0.6639
   96CHL1    H9 9548   6.929   0.954   7.133 -0.4151  0.8679  2.2553
   96CHL1   C10 9549   6.774   0.853   7.005 -0.7668  0.1726 -0.4608
   96CHL1   C19 9550   6.646   0.775   7.026  0.0891  0.5415  0.3669
   96CHL1  H19A 9551   6.600   0.750   6.928  1.9738 -1.7625 -0.0238
   96CHL1  H19B 9552   6.671   0.681   7.080  0.6900 -0.2549 -1.2152
   96CHL1  H19C 9553   6.563   0.825   7.080  0.5632  0.0076  1.6436
   96CHL1    C1 9554   6.743   0.995   6.953  0.8190 -0.1146 -0.4360
   96CHL1   H1A 9555   6.673   1.051   7.018  0.7352 -0.3474 -0.3263
   96CHL1   H1B 9556   6.830   1.063   6.961  1.1413 -0.7154  5.7755
   96CHL1    C2 9557   6.690   1.004   6.809  0.3474  0.1319 -0.3496
   96CHL1   H2A 9558   6.686   1.109   6.774  0.6415  0.5903  0.9491
   96CHL1   H2B 9559   6.591   0.954   6.820 -0.1205  1.4857  2.4446
   96CHL1   C20 9560   6.953   0.789   7.682  0.0047 -0.4837  0.3440
   96CHL1   H20 9561   6.883   0.703   7.696  0.7468 -1.4208 -1.3809
   96CHL1   C21 9562   6.886   0.924   7.719  0.5760 -0.3928 -0.0719
   96CHL1  H21A 9563   6.784   0.944   7.681 -0.3230 -0.5728  2.1261
   96CHL1  H21B 9564   6.956   1.005   7.690 -0.1744  0.6105  0.8758
   96CHL1  H21C 9565   6.884   0.943   7.828 -0.5698  0.6443 -0.2635
   96CHL1   C22 9566   7.075   0.759   7.775  0.0664  0.0689  0.6682
   96CHL1  H22A 9567   7.136   0.674   7.739  0.8896  1.9159 -2.7767
   96CHL1  H22B 9568   7.139   0.850   7.775  0.4181 -0.1573 -0.6810
   96CHL1   C23 9569   7.037   0.729   7.915 -0.5283 -0.1071  0.6535
   96CHL1  H23A 9570   6.971   0.807   7.958  0.2561  0.1292  1.4543
   96CHL1  H23B 9571   6.977   0.636   7.908 -0.9545  0.2907 -1.6463
   96CHL1   C24 9572   7.161   0.704   8.009  0.5822 -0.8932  0.3557
   96CHL1  H24A 9573   7.215   0.619   7.964 -0.8527 -1.4341 -0.4040
   96CHL1  H24B 9574   7.224   0.796   8.000  0.2120 -0.6488  0.2319
   96CHL1   C25 9575   7.130   0.672   8.156  0.4387  0.1672  0.6234
   96CHL1   H25 9576   7.060   0.751   8.190  2.0122  2.6078 -1.4968
   96CHL1   C26 9577   7.070   0.530   8.169  0.8766  0.4544  0.1492
   96CHL1  H26A 9578   6.962   0.530   8.141  0.3303 -0.0306  2.1135
   96CHL1  H26B 9579   7.120   0.462   8.097  1.0847  0.0057  0.7140
   96CHL1  H26C 9580   7.085   0.510   8.277  1.9654 -2.5551 -0.4594
   96CHL1   C27 9581   7.252   0.685   8.241 -0.8739  0.5363  0.2381
   96CHL1  H27A 9582   7.336   0.633   8.189  0.7068  3.0003  0.1888
   96CHL1  H27B 9583   7.289   0.787   8.264  0.3143  0.8298 -2.5055
   96CHL1  H27C 9584   7.238   0.630   8.336  1.4164 -1.2301 -0.3470
   97OSM      N 9585   0.056   4.119  11.272  0.0451 -0.4215 -0.0885
   97OSM    C15 9586   0.056   4.178  11.408  0.2044  1.0866 -0.2037
   97OSM   H15A 9587   0.093   4.108  11.482 -2.7154  0.3594  0.7071
   97OSM   H15B 9588  -0.042   4.212  11.438 -0.2057 -1.4432  1.7225
   97OSM   H15C 9589   0.126   4.259  11.411 -0.1516  1.3991 -0.2493
   97OSM    C14 9590  -0.034   3.996  11.286  0.3633  0.2858 -0.0903
   97OSM   H14A 9591   0.013   3.930  11.358  0.0070 -0.3971 -0.4691
   97OSM   H14B 9592  -0.027   3.943  11.192  2.3126 -0.4442  0.4255
   97OSM   H14C 9593  -0.136   4.027  11.306 -0.6492 -1.9310 -1.4537
   97OSM    C13 9594   0.001   4.222  11.180  0.2236  0.0438 -0.0805
   97OSM   H13A 9595   0.035   4.321  11.207  2.4512 -1.2832  2.4331
   97OSM   H13B 9596  -0.106   4.223  11.197  0.4287  2.2518  1.5626
   97OSM   H13C 9597   0.025   4.218  11.075  1.1228  0.4891  0.1021
   97OSM    C12 9598   0.194   4.084  11.228 -0.4616  0.7207 -0.5946
   97OSM   H12A 9599   0.255   4.052  11.312 -0.8352  0.8690 -0.2633
   97OSM   H12B 9600   0.244   4.177  11.205  1.9024 -0.5731 -0.9729
   97OSM    C11 9601   0.215   3.994  11.109  1.0295  0.2468  0.6574
   97OSM   H11A 9602   0.318   3.991  11.066  0.6056  1.5638 -0.5656
   97OSM   H11B 9603   0.160   4.046  11.028  1.1935 -0.7948 -0.1483
   97OSM      P 9604   0.248   3.739  11.071 -0.1780 -0.1468  0.1466
   97OSM    O13 9605   0.390   3.760  11.096 -0.2385 -0.2855  0.4083
   97OSM    O14 9606   0.200   3.606  11.115 -0.2843  0.5249 -0.4793
   97OSM    O11 9607   0.235   3.745  10.920 -0.4378 -0.2314  0.9205
   97OSM    O12 9608   0.161   3.861  11.124  0.3196 -0.1350  0.0289
   97OSM    C1S 9609   0.106   3.742  10.858  0.2926 -0.2880  0.7562
   97OSM    H1S 9610   0.074   3.848  10.850  1.2769  0.0277  0.8678
   97OSM    H1T 9611   0.028   3.691  10.919 -0.4279  0.5847  0.5871
   97OSM     NF 9612   0.000   3.708  10.638 -0.0899  0.1358 -0.2768
   97OSM    HNF 9613  -0.080   3.649  10.643 -0.9297  1.2364 -0.2403
   97OSM    C2S 9614   0.115   3.674  10.719 -0.4590  0.2982 -0.8862
   97OSM    H2S 9615   0.197   3.726  10.666 -0.0029  0.3641 -0.1257
   97OSM    C3S 9616   0.145   3.527  10.734 -0.1887  0.1103  0.1463
   97OSM    H3S 9617   0.057   3.486  10.788 -0.3455  2.8300  2.1078
   97OSM     O3 9618   0.262   3.498  10.807  0.1743  0.1891 -0.4929
   97OSM    HO3 9619   0.284   3.583  10.846  1.3445 -0.8755  1.2889
   97OSM    C4S 9620   0.149   3.461  10.595 -0.7795  0.0359 -0.5592
   97OSM    H4S 9621   0.052   3.414  10.574  0.2852 -2.4541 -0.2017
   97OSM    C5S 9622   0.254   3.462  10.515  0.8406  0.3510  0.1232
   97OSM    H5S 9623   0.353   3.502  10.542  1.0606  0.5084 -0.8625
   97OSM    C6S 9624   0.238   3.409  10.372  0.2501  0.2199  0.2167
   97OSM    H6S 9625   0.291   3.311  10.364 -0.0134  0.2326 -2.3249
   97OSM    H6T 9626   0.291   3.470  10.297  1.2969 -1.3122 -0.3475
   97OSM    C7S 9627   0.094   3.375  10.313 -0.0027  0.6589 -0.0710
   97OSM    H7S 9628   0.032   3.466  10.327 -0.4233  0.2106  1.0953
   97OSM    H7T 9629   0.044   3.299  10.377  0.4923  1.0141  0.7517
   97OSM    C8S 9630   0.118   3.340  10.171 -0.7148  0.5601 -0.1035
   97OSM    H8S 9631   0.188   3.253  10.167 -0.8443  0.1907  2.9932
   97OSM    H8T 9632   0.157   3.428  10.116 -0.0869  0.4928  0.2183
   97OSM    C9S 9633  -0.004   3.291  10.098 -0.6576  0.3122 -0.3985
   97OSM    H9S 9634  -0.084   3.366  10.083 -0.6464  0.1914 -1.1233
   97OSM    H9T 9635  -0.052   3.212  10.159 -1.5733 -0.7836 -2.4302
   97OSM   C10S 9636   0.027   3.237   9.951 -0.0159  0.1985 -0.2549
   97OSM   H10S 9637  -0.068   3.193   9.915  0.4793 -1.1135 -0.0171
   97OSM   H10T 9638   0.107   3.163   9.927  1.3189  2.3208 -2.9406
   97OSM   C11S 9639   0.067   3.353   9.845 -0.4439  0.4007  0.2852
   97OSM   H11S 9640   0.176   3.369   9.840 -0.4427  0.6487  1.0028
   97OSM   H11T 9641   0.026   3.448   9.885  1.8550  1.6327 -0.1490
   97OSM   C12S 9642   0.022   3.336   9.699 -0.1944 -0.2170  0.2120
   97OSM   H12S 9643   0.053   3.425   9.640  0.1285 -1.1061 -1.0037
   97OSM   H12T 9644  -0.087   3.324   9.681 -0.3413 -1.4671  1.7569
   97OSM   C13S 9645   0.082   3.213   9.628  0.9153  0.5322 -0.0091
   97OSM   H13S 9646   0.067   3.121   9.688  0.4272  0.1944 -0.6480
   97OSM   H13T 9647   0.192   3.225   9.613  1.1455  0.2266  1.3028
   97OSM   C14S 9648   0.016   3.199   9.493  0.2535  1.0992 -0.2329
   97OSM   H14S 9649   0.030   3.279   9.417  0.8433 -1.3096 -2.8600
   97OSM   H14T 9650  -0.093   3.188   9.510  0.4945 -1.0230  0.2132
   97OSM   C15S 9651   0.060   3.071   9.414  0.2564 -0.2142 -0.4293
   97OSM   H15S 9652   0.070   2.978   9.474  1.6290 -0.8250 -1.5493
   97OSM   H15T 9653   0.164   3.095   9.384  0.1691  0.7856  0.0222
   97OSM   C16S 9654  -0.013   3.043   9.284 -0.2897  0.1367 -0.4681
   97OSM   H16S 9655   0.001   3.122   9.207  1.1792  1.0151  0.6445
   97OSM   H16T 9656  -0.121   3.035   9.309 -1.1154  0.0189 -3.6707
   97OSM   C17S 9657   0.037   2.915   9.210 -0.0184 -0.7607  0.4884
   97OSM   H17S 9658   0.014   2.834   9.283 -2.5528  0.3431  1.0373
   97OSM   H17T 9659   0.147   2.920   9.200 -0.1883 -0.9629 -2.1630
   97OSM   C18S 9660  -0.032   2.887   9.078  0.5047  0.3187 -0.5376
   97OSM   H18S 9661  -0.140   2.872   9.096  0.9431 -0.2770  2.0115
   97OSM   H18T 9662   0.018   2.795   9.039  0.2593  0.1970 -0.5659
   97OSM   H18U 9663  -0.005   2.958   8.997 -0.3429 -0.2060 -1.2887
   97OSM    C1F 9664  -0.026   3.833  10.594 -0.5328 -0.8774  0.1112
   97OSM     OF 9665   0.046   3.930  10.623  0.3837  0.5436  0.0336
   97OSM    C2F 9666  -0.153   3.845  10.506  0.1164  0.5693 -0.1539
   97OSM    H2F 9667  -0.240   3.867  10.571  0.5431 -1.2584  1.1271
   97OSM    H2G 9668  -0.173   3.746  10.460  1.1172  0.4512 -0.3638
   97OSM    C3F 9669  -0.136   3.946  10.399 -0.0592 -0.3788  1.0667
   97OSM    H3F 9670  -0.035   3.948  10.352  0.8339  0.3852  2.9332
   97OSM    H3G 9671  -0.136   4.047  10.445  0.0977  0.6365 -1.0537
   97OSM    C4F 9672  -0.254   3.941  10.298 -0.3564 -0.0653  0.1755
   97OSM    H4F 9673  -0.343   3.919  10.360 -0.0215 -0.2747  0.5870
   97OSM    H4G 9674  -0.245   3.850  10.235 -0.0005 -0.1119  0.2942
   97OSM    C5F 9675  -0.272   4.071  10.211 -0.8644  0.5529  0.1709
   97OSM    H5F 9676  -0.172   4.118  10.201  0.4052 -2.0631 -0.3769
   97OSM    H5G 9677  -0.330   4.153  10.259 -0.7681  1.6327 -1.4831
   97OSM    C6F 9678  -0.330   4.048  10.075  0.0473 -0.2505  0.4965
   97OSM    H6F 9679  -0.409   3.971  10.078 -0.2643  0.0638  3.4350
   97OSM    H6G 9680  -0.259   3.993  10.011  0.8802  0.7794  0.4969
   97OSM    C7F 9681  -0.368   4.170   9.990 -0.4326 -0.1177 -0.0213
   97OSM    H7F 9682  -0.287   4.245  10.004  0.8587 -1.5270  0.3029
   97OSM    H7G 9683  -0.457   4.222  10.033 -0.7933  0.3832 -1.3127
   97OSM    C8F 9684  -0.414   4.144   9.847 -0.3555 -0.6385  0.1224
   97OSM    H8F 9685  -0.342   4.073   9.801  0.4085 -0.1160  0.4991
   97OSM    H8G 9686  -0.400   4.247   9.805  0.3623 -0.3840  0.9592
   97OSM    C9F 9687  -0.548   4.089   9.828 -0.0791 -0.6619 -0.3203
   97OSM    H9F 9688  -0.592   4.063   9.925  0.0407 -0.3293 -0.1756
   97OSM   C10F 9689  -0.600   4.061   9.706  0.7840  0.5822 -0.3528
   97OSM   H10F 9690  -0.698   4.014   9.690  1.5441 -2.3797  2.4218
   97OSM   C11F 9691  -0.526   4.082   9.578  0.0122 -0.1031 -0.3323
   97OSM   H11F 9692  -0.522   3.982   9.530  1.1036 -0.0272 -0.4182
   97OSM   H11G 9693  -0.425   4.125   9.597 -0.7805  2.0167 -0.6386
   97OSM   C12F 9694  -0.620   4.176   9.499 -0.1768  0.1566 -0.3099
   97OSM   H12F 9695  -0.644   4.272   9.550 -0.6353 -0.0198 -0.1856
   97OSM   H12G 9696  -0.714   4.121   9.477 -1.4140  2.2904 -0.6003
   97OSM   C13F 9697  -0.559   4.215   9.365 -0.1161 -0.0804  0.0903
   97OSM   H13F 9698  -0.452   4.239   9.385 -0.8813  1.8387  2.4150
   97OSM   H13G 9699  -0.608   4.310   9.334  1.7957  1.0301  0.3015
   97OSM   C14F 9700  -0.589   4.110   9.250  0.4647  0.2941 -0.4021
   97OSM   H14F 9701  -0.678   4.046   9.270  1.5833 -1.8986 -1.9563
   97OSM   H14G 9702  -0.508   4.034   9.258 -0.1405 -0.4427 -0.9932
   97OSM   C15F 9703  -0.592   4.168   9.112 -0.0074  0.0453 -0.2661
   97OSM   H15F 9704  -0.500   4.231   9.108 -0.4204  0.7492  0.8423
   97OSM   H15G 9705  -0.679   4.237   9.103 -1.5059 -1.6629  0.5631
   97OSM   C16F 9706  -0.604   4.075   8.988  0.0613 -0.3134 -0.1607
   97OSM   H16F 9707  -0.690   4.008   9.007 -0.5162 -0.4389 -2.7871
   97OSM   H16G 9708  -0.510   4.017   8.993  1.1480  1.5104  2.9450
   97OSM   C17F 9709  -0.622   4.147   8.854 -0.0717 -0.2576 -0.2262
   97OSM   H17F 9710  -0.524   4.196   8.836 -0.2823  0.1664 -0.2427
   97OSM   H17G 9711  -0.706   4.219   8.867 -1.6540 -2.1197  0.1530
   97OSM   C18F 9712  -0.651   4.054   8.736  0.0228  0.3618 -0.1387
   97OSM   H18F 9713  -0.738   3.993   8.769  0.4503  0.9280  2.2903
   97OSM   H18G 9714  -0.561   3.998   8.704  1.1225  0.9946  1.6557
   97OSM   H18H 9715  -0.676   4.110   8.644  0.6272  0.3736 -0.2996
   98OSM      N 9716   5.531   3.288  11.213 -0.2718  0.6647 -0.1891
   98OSM    C15 9717   5.422   3.366  11.273 -0.0709  0.2686  0.4884
   98OSM   H15A 9718   5.355   3.297  11.321 -1.8669  0.9182 -0.9821
   98OSM   H15B 9719   5.369   3.422  11.198  1.1816  2.2438  1.0156
   98OSM   H15C 9720   5.467   3.442  11.335 -0.9771 -0.2240  1.7958
   98OSM    C14 9721   5.612   3.385  11.125  0.2096  0.0337  0.6080
   98OSM   H14A 9722   5.565   3.410  11.032 -1.8208 -1.8971  1.0354
   98OSM   H14B 9723   5.707   3.342  11.099 -1.1488 -2.8973  0.1074
   98OSM   H14C 9724   5.635   3.468  11.190 -2.6339 -1.1203  3.3841
   98OSM    C13 9725   5.613   3.226  11.323  0.3202 -0.4164  0.0132
   98OSM   H13A 9726   5.555   3.158  11.383 -2.0227  1.5038  0.0595
   98OSM   H13B 9727   5.663   3.309  11.372  0.4890  0.3567 -1.4322
   98OSM   H13C 9728   5.692   3.170  11.275 -0.6241  0.0870 -2.2587
   98OSM    C12 9729   5.470   3.182  11.125 -0.3288 -0.0407 -0.2118
   98OSM   H12A 9730   5.414   3.112  11.185  1.6497 -1.2646  0.2756
   98OSM   H12B 9731   5.549   3.126  11.077 -1.2992 -1.6483 -0.0040
   98OSM    C11 9732   5.371   3.226  11.013  0.1228 -0.2288  0.1318
   98OSM   H11A 9733   5.337   3.133  10.961 -2.6891  0.9346 -0.3026
   98OSM   H11B 9734   5.416   3.294  10.937  0.0323 -0.8238 -0.4689
   98OSM      P 9735   5.153   3.356  10.966 -0.2437  0.2164  0.3782
   98OSM    O13 9736   5.016   3.296  10.981 -0.1984  0.1041  0.9094
   98OSM    O14 9737   5.177   3.502  10.969 -0.2945  0.5086  0.0258
   98OSM    O11 9738   5.203   3.307  10.827 -0.5205 -1.0005  0.7484
   98OSM    O12 9739   5.248   3.283  11.068 -0.2895 -0.2980 -0.1654
   98OSM    C1S 9740   5.130   3.220  10.737 -0.2955 -0.2379  0.2896
   98OSM    H1S 9741   5.023   3.248  10.741  0.0646  1.1257  1.9067
   98OSM    H1T 9742   5.133   3.114  10.770 -0.6043 -0.1163  0.7197
   98OSM     NF 9743   5.080   3.155  10.505 -0.0397  0.0104  0.3250
   98OSM    HNF 9744   5.099   3.067  10.461  0.6639  0.4353 -0.2467
   98OSM    C2S 9745   5.177   3.221  10.583 -0.4485  0.3278  0.0123
   98OSM    H2S 9746   5.196   3.327  10.554 -1.4831  0.5294  0.0372
   98OSM    C3S 9747   5.319   3.154  10.586  0.0465 -0.1105  1.2710
   98OSM    H3S 9748   5.296   3.050  10.620 -2.6276 -0.3331 -0.8220
   98OSM     O3 9749   5.419   3.199  10.674 -0.4226 -0.3351 -0.1652
   98OSM    HO3 9750   5.390   3.269  10.733  0.8090 -0.2948  0.4260
   98OSM    C4S 9751   5.370   3.146  10.443 -0.1944  0.2403 -1.1005
   98OSM    H4S 9752   5.402   3.242  10.398  1.2950  0.0356 -0.5338
   98OSM    C5S 9753   5.411   3.032  10.383  0.4841 -0.0959  0.5622
   98OSM    H5S 9754   5.384   2.937  10.432  0.0289 -0.0521  0.3961
   98OSM    C6S 9755   5.482   3.012  10.251 -0.0690  0.5685  0.5273
   98OSM    H6S 9756   5.476   2.903  10.230 -2.5403  1.0292 -1.6609
   98OSM    H6T 9757   5.591   3.033  10.265  1.0880 -2.5950 -2.3219
   98OSM    C7S 9758   5.423   3.081  10.128 -0.3661  0.5232 -0.7916
   98OSM    H7S 9759   5.430   3.192  10.133 -1.3229  0.5402  2.5960
   98OSM    H7T 9760   5.315   3.065  10.112 -0.4777 -0.9020  1.0262
   98OSM    C8S 9761   5.506   3.048  10.000 -1.1160  0.0144  0.5979
   98OSM    H8S 9762   5.615   3.049  10.021 -0.5145  1.7187 -2.0865
   98OSM    H8T 9763   5.482   3.122   9.921  0.5182 -0.1748 -0.1191
   98OSM    C9S 9764   5.483   2.901   9.949 -0.3857  0.2664 -0.2123
   98OSM    H9S 9765   5.375   2.875   9.944 -0.4344  0.7201 -2.0804
   98OSM    H9T 9766   5.532   2.829  10.018 -0.6729 -0.1011 -0.3884
   98OSM   C10S 9767   5.544   2.867   9.809 -0.0178  0.1846  0.3262
   98OSM   H10S 9768   5.635   2.920   9.775 -0.8992  1.3928 -0.2618
   98OSM   H10T 9769   5.472   2.914   9.739 -0.6241 -0.8356  0.2509
   98OSM   C11S 9770   5.561   2.719   9.782 -0.1360  0.5418 -0.5307
   98OSM   H11S 9771   5.468   2.659   9.791 -0.0855  0.7657  2.4279
   98OSM   H11T 9772   5.621   2.678   9.866 -1.9305 -1.5185 -0.1452
   98OSM   C12S 9773   5.630   2.694   9.652 -0.0085  0.2345 -0.1027
   98OSM   H12S 9774   5.692   2.602   9.655  0.0540  0.2674 -0.3398
   98OSM   H12T 9775   5.711   2.770   9.647 -0.3184  0.5165 -0.8860
   98OSM   C13S 9776   5.535   2.690   9.528  0.4050  0.4432  0.0928
   98OSM   H13S 9777   5.599   2.694   9.437  0.9210 -0.1651  0.4262
   98OSM   H13T 9778   5.493   2.793   9.532 -0.3187  0.1157  1.4097
   98OSM   C14S 9779   5.447   2.568   9.532  0.0034  0.0222 -0.1068
   98OSM   H14S 9780   5.363   2.587   9.603  0.4800  0.7410  0.2853
   98OSM   H14T 9781   5.505   2.489   9.584  0.2006  0.3953  0.2508
   98OSM   C15S 9782   5.392   2.504   9.404 -0.2408 -0.4755 -0.6628
   98OSM   H15S 9783   5.315   2.425   9.420 -0.5920  0.0774  0.5037
   98OSM   H15T 9784   5.472   2.448   9.350  0.2488  0.2802 -0.7317
   98OSM   C16S 9785   5.329   2.607   9.299  0.2204 -0.4474  0.9725
   98OSM   H16S 9786   5.384   2.701   9.316  0.3933 -0.5454  0.9533
   98OSM   H16T 9787   5.220   2.614   9.322  0.1673 -0.9654  0.8965
   98OSM   C17S 9788   5.335   2.565   9.147  0.3908  0.5750  0.2522
   98OSM   H17S 9789   5.278   2.470   9.148 -0.6319  1.1755  0.8936
   98OSM   H17T 9790   5.442   2.550   9.122  0.4380  1.7254 -0.3162
   98OSM   C18S 9791   5.268   2.661   9.048 -0.3254 -0.6168 -0.6399
   98OSM   H18S 9792   5.188   2.717   9.102  0.8386 -1.2786  1.9138
   98OSM   H18T 9793   5.223   2.616   8.957 -0.1000 -2.0060 -0.0862
   98OSM   H18U 9794   5.345   2.732   9.013 -0.1767  0.2324  1.2681
   98OSM    C1F 9795   4.964   3.216  10.482 -0.3785  0.4629 -0.2687
   98OSM     OF 9796   4.946   3.326  10.527  0.3660 -0.0528  0.2598
   98OSM    C2F 9797   4.858   3.136  10.414 -0.2863 -0.0507 -0.0744
   98OSM    H2F 9798   4.755   3.171  10.438 -0.6488 -0.7490 -0.5708
   98OSM    H2G 9799   4.854   3.037  10.465  0.9098 -0.1419 -0.1326
   98OSM    C3F 9800   4.885   3.112  10.259  0.5904  0.2394  0.4094
   98OSM    H3F 9801   4.875   3.208  10.205  1.3133  0.7979  1.2303
   98OSM    H3G 9802   4.793   3.056  10.231  1.6364 -0.1841 -2.4547
   98OSM    C4F 9803   5.011   3.046  10.216  0.0060  0.6336  0.1686
   98OSM    H4F 9804   5.028   2.972  10.297  0.3635 -1.0418 -1.3789
   98OSM    H4G 9805   5.105   3.104  10.227  1.1227 -1.1887  0.6085
   98OSM    C5F 9806   5.011   2.963  10.086  0.1433 -0.3044 -0.1860
   98OSM    H5F 9807   4.918   2.903  10.080  0.2286 -0.3597 -1.0211
   98OSM    H5G 9808   5.095   2.892  10.102  1.1156  0.8136 -0.1494
   98OSM    C6F 9809   5.027   3.039   9.952 -0.0151 -0.4730 -0.6386
   98OSM    H6F 9810   5.116   3.102   9.973  0.5034 -1.5001  0.3826
   98OSM    H6G 9811   4.935   3.097   9.928 -0.3280 -0.8099 -0.2751
   98OSM    C7F 9812   5.061   2.952   9.840  0.0400 -0.7389 -0.3733
   98OSM    H7F 9813   4.971   2.893   9.811  0.7452 -1.5569 -0.9630
   98OSM    H7G 9814   5.131   2.876   9.878  1.8910  2.2993  2.8845
   98OSM    C8F 9815   5.137   3.021   9.728 -0.0450  0.1029  0.9247
   98OSM    H8F 9816   5.227   3.069   9.771 -0.9162  0.6358  2.2406
   98OSM    H8G 9817   5.069   3.098   9.685  1.7773  0.7885 -0.8642
   98OSM    C9F 9818   5.179   2.917   9.629 -0.2225 -0.5573 -0.4141
   98OSM    H9F 9819   5.214   2.823   9.674 -1.0505 -1.1390 -0.9687
   98OSM   C10F 9820   5.172   2.905   9.499 -0.2459  0.1441  0.1774
   98OSM   H10F 9821   5.209   2.809   9.460 -2.5040 -1.2056  1.1755
   98OSM   C11F 9822   5.125   3.002   9.396  0.0516 -0.9968  0.0949
   98OSM   H11F 9823   5.104   3.102   9.439  0.8028 -1.1494  0.8456
   98OSM   H11G 9824   5.033   2.955   9.355  1.7056 -3.8177 -0.7201
   98OSM   C12F 9825   5.217   3.020   9.269  0.1333 -0.1238 -0.7092
   98OSM   H12F 9826   5.232   2.921   9.222  1.4925 -0.8833  1.1801
   98OSM   H12G 9827   5.315   3.050   9.313 -0.8469  1.8120  0.3142
   98OSM   C13F 9828   5.156   3.112   9.175 -0.3562 -0.6386  0.0483
   98OSM   H13F 9829   5.128   3.198   9.239  0.1955 -1.1608  1.0217
   98OSM   H13G 9830   5.062   3.062   9.141 -0.5027  0.7982 -1.8491
   98OSM   C14F 9831   5.241   3.155   9.060 -0.1347 -0.3150  0.2178
   98OSM   H14F 9832   5.347   3.158   9.095 -0.6191  1.0132  1.6842
   98OSM   H14G 9833   5.215   3.262   9.041 -0.3377 -0.6603 -1.5971
   98OSM   C15F 9834   5.225   3.069   8.934  0.1929 -0.4823 -0.1459
   98OSM   H15F 9835   5.133   3.118   8.894 -0.4708 -1.1039  0.5877
   98OSM   H15G 9836   5.212   2.965   8.970  0.1576 -0.3535  0.2178
   98OSM   C16F 9837   5.345   3.083   8.832 -0.0164 -0.3489 -0.2570
   98OSM   H16F 9838   5.437   3.044   8.880  1.4649  2.9899 -0.1186
   98OSM   H16G 9839   5.370   3.187   8.801  1.4950 -0.7287 -0.4088
   98OSM   C17F 9840   5.322   3.011   8.704  0.0328 -0.4695 -0.3317
   98OSM   H17F 9841   5.297   2.903   8.718  0.4357 -0.9579 -2.9066
   98OSM   H17G 9842   5.422   3.015   8.656  1.1624  2.0745  1.9941
   98OSM   C18F 9843   5.209   3.068   8.614 -0.5378 -0.6374  0.2643
   98OSM   H18F 9844   5.224   3.178   8.602 -3.3242 -0.3183 -1.0972
   98OSM   H18G 9845   5.110   3.055   8.664 -0.1408 -2.2717  0.6754
   98OSM   H18H 9846   5.207   3.016   8.516  1.5566  0.6754 -0.5290
   99OSM      N 9847   1.354   4.125  11.174 -0.2542 -0.2697  0.2384
   99OSM    C15 9848   1.359   4.256  11.254  0.2343 -0.2319 -0.7890
   99OSM   H15A 9849   1.339   4.344  11.196 -0.1124  0.4122  0.2842
   99OSM   H15B 9850   1.458   4.275  11.294  0.0226 -0.1372 -0.3112
   99OSM   H15C 9851   1.288   4.255  11.335  1.3951  0.4843  0.2676
   99OSM    C14 9852   1.478   4.134  11.092  0.3260 -0.4609  0.4665
   99OSM   H14A 9853   1.563   4.137  11.159  0.1917  0.3268  0.6085
   99OSM   H14B 9854   1.479   4.224  11.032  1.9557  0.0595  1.2168
   99OSM   H14C 9855   1.475   4.046  11.028  0.1775  1.4485 -2.3544
   99OSM    C13 9856   1.361   4.014  11.275 -0.0357 -0.2988  0.1856
   99OSM   H13A 9857   1.355   3.917  11.227  2.1800 -0.6593  0.5540
   99OSM   H13B 9858   1.284   4.024  11.351 -1.0489 -1.1486 -0.6802
   99OSM   H13C 9859   1.456   4.012  11.325  1.0419  0.6620 -1.7163
   99OSM    C12 9860   1.227   4.124  11.093 -0.6321  0.1016 -0.5631
   99OSM   H12A 9861   1.235   4.206  11.023  0.3466  0.2394 -0.3073
   99OSM   H12B 9862   1.148   4.143  11.163  0.0713  0.2118  0.2177
   99OSM    C11 9863   1.200   3.991  11.010  0.1706 -0.8117 -0.2416
   99OSM   H11A 9864   1.101   4.000  10.962  0.8799 -0.9021 -1.7831
   99OSM   H11B 9865   1.194   3.911  11.086 -3.0645 -1.5670 -1.1444
   99OSM      P 9866   1.325   3.830  10.855  0.0268  0.2538  0.4098
   99OSM    O13 9867   1.446   3.831  10.763  0.4955  0.2707 -0.5656
   99OSM    O14 9868   1.323   3.733  10.964  0.0435  0.1885 -0.1526
   99OSM    O11 9869   1.205   3.806  10.760 -0.2263  0.6436  0.4121
   99OSM    O12 9870   1.298   3.979  10.911 -0.2154  0.9798 -0.5514
   99OSM    C1S 9871   1.205   3.879  10.639  0.6114 -0.5037  0.3009
   99OSM    H1S 9872   1.297   3.863  10.579  0.4195  2.5609 -1.0187
   99OSM    H1T 9873   1.193   3.987  10.661 -0.3851 -0.8584  1.6269
   99OSM     NF 9874   1.087   3.913  10.417 -0.5324  0.0935  0.0357
   99OSM    HNF 9875   1.027   3.992  10.411  0.3774  0.6703 -2.1364
   99OSM    C2S 9876   1.080   3.847  10.548  0.1005 -0.0795  0.0949
   99OSM    H2S 9877   1.080   3.736  10.543 -1.4358 -0.2769  2.5293
   99OSM    C3S 9878   0.937   3.876  10.612  0.7568  0.0118 -0.2077
   99OSM    H3S 9879   0.918   3.985  10.614 -0.7979 -0.2430 -0.2462
   99OSM     O3 9880   0.932   3.847  10.751 -0.6943  0.6370 -0.5436
   99OSM    HO3 9881   1.022   3.823  10.774 -0.6486 -0.6483 -1.9299
   99OSM    C4S 9882   0.828   3.804  10.530 -0.5804  0.6951 -0.3692
   99OSM    H4S 9883   0.817   3.695  10.538  2.4684  0.3232 -0.1149
   99OSM    C5S 9884   0.741   3.867  10.449  0.8736  0.5845  0.1709
   99OSM    H5S 9885   0.749   3.976  10.452  1.1471  0.5456  1.0607
   99OSM    C6S 9886   0.627   3.810  10.374 -0.1063 -0.2650  0.2880
   99OSM    H6S 9887   0.641   3.700  10.367 -0.9126 -0.5235  2.2044
   99OSM    H6T 9888   0.630   3.833  10.265 -0.1585  1.3658  0.5973
   99OSM    C7S 9889   0.477   3.829  10.415 -0.1326  0.0260 -0.7028
   99OSM    H7S 9890   0.469   3.934  10.452  0.6308 -1.0412  2.9053
   99OSM    H7T 9891   0.454   3.757  10.496 -1.0859  0.4675 -0.5688
   99OSM    C8S 9892   0.389   3.795  10.294  0.3410 -0.1049  0.3666
   99OSM    H8S 9893   0.430   3.702  10.250 -1.3262 -0.3256 -0.7996
   99OSM    H8T 9894   0.406   3.886  10.233  0.6487  2.1600  3.5733
   99OSM    C9S 9895   0.237   3.777  10.326 -0.1711 -0.4305 -0.5013
   99OSM    H9S 9896   0.213   3.880  10.360 -2.9875 -2.1849  3.5788
   99OSM    H9T 9897   0.224   3.709  10.412 -1.4762  1.1811  0.6530
   99OSM   C10S 9898   0.136   3.729  10.218 -0.4223 -0.4683 -0.0788
   99OSM   H10S 9899   0.042   3.718  10.278 -1.6331  0.1326 -1.7941
   99OSM   H10T 9900   0.177   3.639  10.168 -0.6500  0.2445 -1.5898
   99OSM   C11S 9901   0.105   3.824  10.104  0.3973 -0.7326 -0.0003
   99OSM   H11S 9902   0.188   3.823  10.031  1.0201  2.5147  0.4940
   99OSM   H11T 9903   0.089   3.925  10.148  2.4782  0.0509 -0.9257
   99OSM   C12S 9904  -0.019   3.775  10.027 -0.4868  0.2317  0.2138
   99OSM   H12S 9905   0.007   3.671   9.997  2.3431  1.1943 -1.0634
   99OSM   H12T 9906  -0.107   3.776  10.094  0.1964 -0.6176  1.1457
   99OSM   C13S 9907  -0.048   3.859   9.900 -0.5154  0.3174 -0.1577
   99OSM   H13S 9908   0.051   3.860   9.850 -0.8595 -0.6935 -0.8901
   99OSM   H13T 9909  -0.075   3.966   9.911 -0.9085  0.4393 -1.9975
   99OSM   C14S 9910  -0.154   3.798   9.822  0.1307  0.0501 -0.0796
   99OSM   H14S 9911  -0.247   3.787   9.882 -2.3200  3.7221 -2.8014
   99OSM   H14T 9912  -0.129   3.691   9.806  1.3245  0.1848  0.7620
   99OSM   C15S 9913  -0.176   3.870   9.692  0.4651  0.3171 -0.6117
   99OSM   H15S 9914  -0.077   3.885   9.643  0.1542 -0.4770 -1.5065
   99OSM   H15T 9915  -0.215   3.972   9.711 -1.2473 -0.5581  0.8303
   99OSM   C16S 9916  -0.263   3.789   9.598 -0.5578  0.0637  0.6868
   99OSM   H16S 9917  -0.366   3.790   9.638 -0.6306  0.7749  0.5038
   99OSM   H16T 9918  -0.239   3.681   9.605  0.4188  0.2541  0.4425
   99OSM   C17S 9919  -0.266   3.829   9.457 -0.1679 -0.2612 -0.3527
   99OSM   H17S 9920  -0.166   3.817   9.409  0.0140  1.3602 -0.4413
   99OSM   H17T 9921  -0.278   3.939   9.467  3.1768  0.0791  1.6902
   99OSM   C18S 9922  -0.381   3.766   9.374 -0.6127  0.0487 -0.1930
   99OSM   H18S 9923  -0.378   3.657   9.355 -1.7167  0.1071 -0.7388
   99OSM   H18T 9924  -0.382   3.818   9.276 -3.8236 -0.7695 -0.7038
   99OSM   H18U 9925  -0.479   3.797   9.417 -0.4458  0.1826  0.0982
   99OSM    C1F 9926   1.163   3.863  10.321 -0.4952  0.1561 -0.1647
   99OSM     OF 9927   1.232   3.760  10.342  0.2694 -0.1649 -0.3749
   99OSM    C2F 9928   1.164   3.924  10.182  0.5781 -0.0156  0.3513
   99OSM    H2F 9929   1.115   4.024  10.178 -0.1068 -0.3777 -0.7007
   99OSM    H2G 9930   1.106   3.858  10.114 -0.9894  2.6268 -1.0443
   99OSM    C3F 9931   1.306   3.944  10.119 -0.5049 -0.4181  0.1826
   99OSM    H3F 9932   1.374   4.004  10.183 -0.7069  1.1508 -1.0225
   99OSM    H3G 9933   1.364   3.852  10.095  0.9388  1.0232 -2.3496
   99OSM    C4F 9934   1.282   4.013   9.987 -0.1992 -0.3822  0.5365
   99OSM    H4F 9935   1.210   4.097   9.984  0.6606  0.3810 -2.0212
   99OSM    H4G 9936   1.238   3.936   9.920 -1.6759 -1.7652  2.9536
   99OSM    C5F 9937   1.412   4.064   9.920 -0.6544 -0.3079 -0.4571
   99OSM    H5F 9938   1.492   3.988   9.906 -0.1791  0.0916  0.0723
   99OSM    H5G 9939   1.452   4.137   9.993 -0.9770 -0.1355 -0.4499
   99OSM    C6F 9940   1.397   4.128   9.784 -0.2297  0.6369  0.0586
   99OSM    H6F 9941   1.312   4.195   9.806 -0.8691 -0.5247  1.3144
   99OSM    H6G 9942   1.365   4.056   9.705 -1.7333 -0.2465  1.4177
   99OSM    C7F 9943   1.531   4.204   9.743  0.3403 -0.2020  1.4334
   99OSM    H7F 9944   1.621   4.140   9.760  0.5693 -1.3298 -2.7789
   99OSM    H7G 9945   1.530   4.296   9.805 -0.8022 -0.9572  2.5854
   99OSM    C8F 9946   1.540   4.237   9.593  0.8819  0.1608 -0.1857
   99OSM    H8F 9947   1.636   4.287   9.570  0.4628  1.0314 -0.0517
   99OSM    H8G 9948   1.466   4.318   9.583  0.1550 -0.6383 -1.6462
   99OSM    C9F 9949   1.517   4.117   9.497 -0.5927 -0.7841 -0.3714
   99OSM    H9F 9950   1.553   4.020   9.533  1.4021  0.1844  0.3835
   99OSM   C10F 9951   1.447   4.123   9.382 -0.1188  0.1403  0.2624
   99OSM   H10F 9952   1.446   4.036   9.315  0.0843  0.0979  0.3133
   99OSM   C11F 9953   1.383   4.242   9.317 -0.1285 -0.1798  0.3383
   99OSM   H11F 9954   1.462   4.318   9.333  1.4952 -1.7449  0.1636
   99OSM   H11G 9955   1.285   4.272   9.360 -1.8806  0.0715 -3.3734
   99OSM   C12F 9956   1.348   4.219   9.168  0.3163 -0.0492 -0.3120
   99OSM   H12F 9957   1.272   4.293   9.135  0.7868  1.1470  1.1485
   99OSM   H12G 9958   1.295   4.121   9.170 -0.1588  0.2109 -0.2079
   99OSM   C13F 9959   1.479   4.223   9.076  0.6335  0.4265 -0.4474
   99OSM   H13F 9960   1.533   4.127   9.089 -0.2452  0.3111  3.3137
   99OSM   H13G 9961   1.545   4.305   9.112 -0.8816  1.0053  1.1476
   99OSM   C14F 9962   1.459   4.246   8.922  0.1233 -0.2802  0.1600
   99OSM   H14F 9963   1.424   4.351   8.920 -0.9615 -0.6331 -0.7155
   99OSM   H14G 9964   1.389   4.176   8.872  2.2158 -2.4035  0.0386
   99OSM   C15F 9965   1.595   4.247   8.841 -0.4204  0.3228 -0.1353
   99OSM   H15F 9966   1.571   4.262   8.733  1.7825  1.2347 -0.5667
   99OSM   H15G 9967   1.643   4.148   8.846 -0.0844  0.5680  2.5520
   99OSM   C16F 9968   1.691   4.365   8.873  0.1679  0.9963 -0.7032
   99OSM   H16F 9969   1.788   4.344   8.825  1.2833 -0.1786  1.8949
   99OSM   H16G 9970   1.708   4.355   8.983 -2.3678  5.2399  0.3112
   99OSM   C17F 9971   1.647   4.509   8.845  0.0741 -0.0947  0.5873
   99OSM   H17F 9972   1.577   4.536   8.928  0.4624  2.9473  0.0313
   99OSM   H17G 9973   1.601   4.521   8.745  0.7527  0.6034  0.3470
   99OSM   C18F 9974   1.768   4.609   8.854  0.0280 -0.0657  0.3165
   99OSM   H18F 9975   1.824   4.593   8.949  0.8038  0.0719 -0.1080
   99OSM   H18G 9976   1.738   4.712   8.824 -1.1914 -0.1414  1.2085
   99OSM   H18H 9977   1.827   4.577   8.766  0.1243 -1.5502  0.8932
  100OSM      N 9978   3.412   5.600  10.682 -0.4237 -0.8965 -0.0749
  100OSM    C15 9979   3.281   5.666  10.658  0.9580  0.6464  0.1267
  100OSM   H15A 9980   3.237   5.709  10.746 -0.5455  1.1167 -0.8040
  100OSM   H15B 9981   3.212   5.595  10.613  1.8927 -1.6819  2.1538
  100OSM   H15C 9982   3.290   5.750  10.591  1.1948 -0.0985 -0.7989
  100OSM    C14 9983   3.457   5.545  10.559  0.1281  0.1729  0.5945
  100OSM   H14A 9984   3.398   5.465  10.517  3.3446 -0.7390 -2.7495
  100OSM   H14B 9985   3.553   5.495  10.572 -0.1757 -1.6411 -2.9919
  100OSM   H14C 9986   3.475   5.616  10.480 -1.9269  0.8046  0.6357
  100OSM    C13 9987   3.510   5.699  10.728  0.1429 -0.1943 -0.2951
  100OSM   H13A 9988   3.523   5.789  10.670  0.7112 -0.5688 -0.7667
  100OSM   H13B 9989   3.606   5.650  10.744 -0.3753 -1.4323 -0.8739
  100OSM   H13C 9990   3.488   5.733  10.828 -0.2271 -0.1039 -0.4084
  100OSM    C12 9991   3.402   5.489  10.782  0.0728  0.2555  0.6621
  100OSM   H12A 9992   3.371   5.529  10.878  1.9576 -0.8289  1.7865
  100OSM   H12B 9993   3.499   5.449  10.809  0.4087  1.5410  1.4237
  100OSM    C11 9994   3.302   5.377  10.749  0.6543  0.6822 -0.2321
  100OSM   H11A 9995   3.313   5.308  10.835 -0.0039 -1.0919 -1.5055
  100OSM   H11B 9996   3.344   5.334  10.655  0.2222 -2.2905  0.8414
  100OSM      P 9997   3.056   5.344  10.653  0.1255 -0.1877  0.0875
  100OSM    O13 9998   3.061   5.200  10.689  0.5363  0.3873 -0.2194
  100OSM    O14 9999   2.927   5.416  10.664 -0.9671  0.3992 -0.1565
  100OSM    O1110000   3.107   5.372  10.502  0.2081  0.5340 -0.5875
  100OSM    O1210001   3.163   5.418  10.736 -0.0459  0.5940  0.8674
  100OSM    C1S10002   3.198   5.290  10.433 -0.3773  0.2331 -0.0242
  100OSM    H1S10003   3.170   5.184  10.451 -2.0672  0.9325  1.9467
  100OSM    H1T10004   3.302   5.321  10.460  0.8312 -1.6980 -2.1174
  100OSM     NF10005   3.244   5.216  10.196  0.0023 -0.1971 -0.6905
  100OSM    HNF10006   3.331   5.242  10.157 -0.3209  0.4950 -0.9645
  100OSM    C2S10007   3.177   5.319  10.277 -0.1014  0.4714  0.1609
  100OSM    H2S10008   3.069   5.296  10.265  0.3676 -1.8774 -0.0363
  100OSM    C3S10009   3.215   5.466  10.241  0.5148 -0.2395 -0.0355
  100OSM    H3S10010   3.321   5.472  10.272  0.5012  2.6899 -0.3193
  100OSM     O310011   3.146   5.564  10.314  0.1705 -0.2014  0.2864
  100OSM    HO310012   3.106   5.518  10.388  1.7145 -0.7191  0.8334
  100OSM    C4S10013   3.196   5.496  10.096 -0.4412 -0.1350  0.1369
  100OSM    H4S10014   3.100   5.462  10.054 -0.4666  0.6278 -0.4677
  100OSM    C5S10015   3.287   5.544  10.006 -0.1051  0.0880  0.6368
  100OSM    H5S10016   3.384   5.588  10.037  1.2341 -0.7740 -2.0589
  100OSM    C6S10017   3.253   5.571   9.863 -0.4923 -0.0898 -1.0527
  100OSM    H6S10018   3.342   5.599   9.804  0.2643  1.7099  0.7893
  100OSM    H6T10019   3.188   5.660   9.847 -2.5986 -1.4756 -0.6166
  100OSM    C7S10020   3.189   5.457   9.796 -0.5116  0.7587 -0.3893
  100OSM    H7S10021   3.090   5.433   9.841 -0.8428  1.3158 -0.8127
  100OSM    H7T10022   3.246   5.363   9.782 -0.2575  0.9560 -0.6954
  100OSM    C8S10023   3.140   5.478   9.655  0.2053 -0.3267  0.3918
  100OSM    H8S10024   3.118   5.585   9.634 -0.7057 -0.5710  0.0165
  100OSM    H8T10025   3.048   5.417   9.639  0.8735 -1.1208 -0.5687
  100OSM    C9S10026   3.242   5.437   9.546  0.2911  0.8930 -0.1245
  100OSM    H9S10027   3.242   5.326   9.554 -0.2676  1.0523  4.6200
  100OSM    H9T10028   3.340   5.475   9.583  1.2846 -1.7759  0.2017
  100OSM   C10S10029   3.208   5.483   9.405  1.2272  0.1563  0.4782
  100OSM   H10S10030   3.174   5.588   9.402  2.2820  0.4931 -2.0011
  100OSM   H10T10031   3.131   5.413   9.367  1.3131  1.5055 -2.4778
  100OSM   C11S10032   3.330   5.473   9.310 -0.7534 -1.0273 -0.2651
  100OSM   H11S10033   3.401   5.392   9.337  0.8463  0.1632 -0.7518
  100OSM   H11T10034   3.395   5.562   9.321 -1.1137 -0.8433  0.4493
  100OSM   C12S10035   3.289   5.454   9.163 -0.0922  0.3714 -0.4021
  100OSM   H12S10036   3.246   5.352   9.150  0.8693 -0.0724 -0.1913
  100OSM   H12T10037   3.384   5.458   9.106  0.2811  1.3495  0.2746
  100OSM   C13S10038   3.191   5.554   9.098 -0.4775  0.6307  0.5003
  100OSM   H13S10039   3.199   5.545   8.988 -0.2116  1.5840  0.4340
  100OSM   H13T10040   3.227   5.659   9.108  0.6305  0.8721 -4.0109
  100OSM   C14S10041   3.049   5.535   9.137  1.1108  0.1980 -0.0590
  100OSM   H14S10042   3.031   5.567   9.242  2.6125  0.1850  0.2309
  100OSM   H14T10043   3.013   5.430   9.132  0.7723  0.3442 -0.7739
  100OSM   C15S10044   2.956   5.622   9.052  0.5821  0.2313  0.1882
  100OSM   H15S10045   3.001   5.724   9.049  3.5712 -0.8244  2.9482
  100OSM   H15T10046   2.855   5.640   9.094 -0.0054 -2.3927  0.0872
  100OSM   C16S10047   2.912   5.571   8.912 -0.3409 -0.8503 -0.0320
  100OSM   H16S10048   2.857   5.475   8.923 -0.6965 -0.5911  0.5276
  100OSM   H16T10049   3.000   5.537   8.854  3.1804  1.9838  3.1394
  100OSM   C17S10050   2.835   5.675   8.830  0.7753 -0.5915 -0.3276
  100OSM   H17S10051   2.832   5.650   8.721 -1.9050 -2.1342 -0.0073
  100OSM   H17T10052   2.884   5.775   8.834  1.3038 -0.7961 -1.3783
  100OSM   C18S10053   2.686   5.679   8.863 -0.2762 -1.2245 -0.5126
  100OSM   H18S10054   2.634   5.597   8.809 -2.4548  0.6427 -1.4154
  100OSM   H18T10055   2.633   5.772   8.831 -1.5713 -2.3118 -1.6807
  100OSM   H18U10056   2.677   5.676   8.973  0.8502  3.0877 -0.1396
  100OSM    C1F10057   3.207   5.089  10.192  0.3235 -0.0143  0.0502
  100OSM     OF10058   3.106   5.044  10.249  0.5378 -0.5306 -0.3111
  100OSM    C2F10059   3.293   4.993  10.113 -0.1841  0.9099 -0.0242
  100OSM    H2F10060   3.388   4.992  10.170 -0.1742 -0.4732 -0.0314
  100OSM    H2G10061   3.326   5.019  10.010 -0.0027 -2.5371 -0.9593
  100OSM    C3F10062   3.230   4.852  10.104 -0.1376  0.0899 -0.4062
  100OSM    H3F10063   3.120   4.851  10.088 -0.1885  0.6983 -0.1462
  100OSM    H3G10064   3.254   4.805  10.202  1.7423 -2.8439 -2.1278
  100OSM    C4F10065   3.311   4.753  10.023 -0.3294 -0.1914  0.1618
  100OSM    H4F10066   3.276   4.649  10.038  0.8922 -0.5773  0.4850
  100OSM    H4G10067   3.421   4.759  10.041 -0.4094  0.4559  0.4546
  100OSM    C5F10068   3.287   4.763   9.868  0.2334 -0.4298 -0.3998
  100OSM    H5F10069   3.318   4.866   9.841 -0.8546 -0.0621 -0.3071
  100OSM    H5G10070   3.181   4.757   9.833  0.9260  2.2892 -3.5645
  100OSM    C6F10071   3.384   4.675   9.790 -0.0768  0.2048  0.9267
  100OSM    H6F10072   3.451   4.638   9.871  0.7897  0.8642  0.5305
  100OSM    H6G10073   3.457   4.731   9.729 -0.3786 -0.3560  0.0247
  100OSM    C7F10074   3.322   4.570   9.697  0.1132  0.2378 -0.2126
  100OSM    H7F10075   3.242   4.506   9.741  0.2486  0.3545  0.2041
  100OSM    H7G10076   3.391   4.493   9.655  1.4856  0.8679  0.8160
  100OSM    C8F10077   3.257   4.640   9.572  0.2904 -0.1782  0.2183
  100OSM    H8F10078   3.170   4.706   9.592 -0.8525 -1.1507 -1.3513
  100OSM    H8G10079   3.217   4.552   9.517  1.2555  0.5055 -1.6947
  100OSM    C9F10080   3.356   4.723   9.492  0.2504 -0.3399  0.5992
  100OSM    H9F10081   3.381   4.818   9.541 -0.5173  0.0070  0.3165
  100OSM   C10F10082   3.398   4.678   9.369 -0.7435 -0.4010 -0.6432
  100OSM   H10F10083   3.475   4.741   9.322 -1.6273  0.2576 -1.2320
  100OSM   C11F10084   3.371   4.555   9.291  0.3317  0.5648  0.4086
  100OSM   H11F10085   3.284   4.495   9.325 -0.7114  2.2938  0.8989
  100OSM   H11G10086   3.459   4.487   9.287  0.2611  0.5050 -0.5639
  100OSM   C12F10087   3.341   4.596   9.146 -0.4698  0.6925  0.1586
  100OSM   H12F10088   3.411   4.679   9.119 -0.8530  1.1826  0.6594
  100OSM   H12G10089   3.235   4.627   9.151 -1.0821 -1.2432 -0.0352
  100OSM   C13F10090   3.347   4.488   9.035 -0.1685  0.1069 -0.8372
  100OSM   H13F10091   3.289   4.399   9.067  1.8350 -0.1075  2.7417
  100OSM   H13G10092   3.446   4.442   9.014  0.5705  0.5949  1.3193
  100OSM   C14F10093   3.300   4.545   8.900 -0.1584 -0.5393 -0.5370
  100OSM   H14F10094   3.325   4.472   8.820 -1.1312 -1.3714 -0.1065
  100OSM   H14G10095   3.349   4.644   8.893  3.4677 -1.9425  1.7900
  100OSM   C15F10096   3.144   4.549   8.888 -0.5579 -0.4614 -0.7056
  100OSM   H15F10097   3.097   4.642   8.926  0.1802  0.2573 -1.5132
  100OSM   H15G10098   3.106   4.465   8.949 -0.6541 -0.3586 -0.6230
  100OSM   C16F10099   3.097   4.539   8.746  0.1213 -0.1890  0.2948
  100OSM   H16F10100   3.107   4.435   8.711  0.6171 -0.7456  1.9987
  100OSM   H16G10101   3.155   4.600   8.672  1.3726 -2.2338 -0.5031
  100OSM   C17F10102   2.950   4.577   8.727  0.1746  0.0577  0.0328
  100OSM   H17F10103   2.927   4.679   8.762 -2.0091  0.7002 -2.8584
  100OSM   H17G10104   2.898   4.497   8.783  0.1233  0.5701  0.7219
  100OSM   C18F10105   2.913   4.574   8.580  0.2660 -0.3364 -0.8238
  100OSM   H18F10106   2.809   4.608   8.560  0.6537  1.0249 -0.6798
  100OSM   H18G10107   2.932   4.473   8.539  0.9770 -1.1684  1.4172
  100OSM   H18H10108   2.971   4.651   8.524 -1.7922  1.0815 -1.1202
  101OSM      N10109   5.124   5.540  10.673  0.2038  0.4069 -0.2673
  101OSM    C1510110   5.155   5.581  10.531 -0.1042  0.0344 -0.2999
  101OSM   H15A10111   5.222   5.666  10.530 -0.8844  0.6590 -0.9998
  101OSM   H15B10112   5.064   5.599  10.476 -0.1011  0.9541 -0.0291
  101OSM   H15C10113   5.199   5.492  10.488 -0.3357 -0.7708  1.0787
  101OSM    C1410114   5.069   5.653  10.747 -0.4506 -0.3610  0.2132
  101OSM   H14A10115   5.009   5.627  10.833 -3.0695 -1.6799 -1.8732
  101OSM   H14B10116   5.003   5.698  10.674  1.4104 -0.2346 -1.4774
  101OSM   H14C10117   5.141   5.728  10.777  1.2936 -1.3010 -1.4384
  101OSM    C1310118   5.011   5.444  10.668  0.2697  0.2592 -0.5803
  101OSM   H13A10119   5.048   5.348  10.635 -0.9614 -0.4389 -0.0093
  101OSM   H13B10120   4.932   5.486  10.608  0.0596  1.1125  0.2706
  101OSM   H13C10121   4.975   5.438  10.770 -1.3923  0.0781 -1.1583
  101OSM    C1210122   5.249   5.500  10.751 -0.4146 -0.1220  0.0636
  101OSM   H12A10123   5.229   5.501  10.857 -2.7678 -1.3473 -0.2932
  101OSM   H12B10124   5.331   5.568  10.731  0.0564 -0.4902  0.7179
  101OSM    C1110125   5.318   5.364  10.716 -0.1909  0.1250  0.2072
  101OSM   H11A10126   5.419   5.363  10.762 -0.2061 -2.8043  0.3834
  101OSM   H11B10127   5.329   5.364  10.606  1.2375 -1.4457  0.3196
  101OSM      P10128   5.291   5.099  10.727 -0.4259 -0.4008 -0.5296
  101OSM    O1310129   5.260   5.013  10.842 -0.0794 -0.0794 -0.9896
  101OSM    O1410130   5.245   5.039  10.593 -0.0788 -0.2011 -0.4213
  101OSM    O1110131   5.450   5.111  10.734  0.6034 -0.8758  0.0535
  101OSM    O1210132   5.242   5.250  10.742  0.0871  0.3441  0.4596
  101OSM    C1S10133   5.529   4.991  10.751 -0.8742 -0.1024 -0.2190
  101OSM    H1S10134   5.486   4.902  10.800  0.9924 -1.2181 -0.5064
  101OSM    H1T10135   5.615   5.020  10.815 -2.5386  1.9751  1.2661
  101OSM     NF10136   5.639   4.821  10.607 -0.0199  0.4763  0.2062
  101OSM    HNF10137   5.738   4.824  10.593  0.1977  0.2949  1.5165
  101OSM    C2S10138   5.580   4.953  10.609 -0.4457 -0.1184 -0.0728
  101OSM    H2S10139   5.484   4.952  10.552 -2.7654  3.1252  3.2831
  101OSM    C3S10140   5.671   5.066  10.549 -0.1897 -0.3611  0.0586
  101OSM    H3S10141   5.770   5.059  10.599 -0.1031  0.8455  0.0652
  101OSM     O310142   5.622   5.199  10.584 -0.4380  0.0499  0.1965
  101OSM    HO310143   5.546   5.183  10.640 -1.5687  1.0321 -0.9880
  101OSM    C4S10144   5.689   5.061  10.404 -0.7443 -0.0829 -0.4948
  101OSM    H4S10145   5.790   5.019  10.387 -0.7656 -0.8065  0.9931
  101OSM    C5S10146   5.617   5.101  10.296  0.2489  0.1677 -0.1812
  101OSM    H5S10147   5.521   5.148  10.321  0.2413  0.1601 -0.1970
  101OSM    C6S10148   5.653   5.092  10.150 -0.2384  0.5351  0.3367
  101OSM    H6S10149   5.567   5.075  10.082  0.5786  2.2610 -1.1952
  101OSM    H6T10150   5.701   4.996  10.121  0.9897  2.0962 -3.3796
  101OSM    C7S10151   5.738   5.205  10.093 -0.0086 -0.2167 -0.0075
  101OSM    H7S10152   5.836   5.210  10.144 -0.5532 -0.7703  1.1360
  101OSM    H7T10153   5.703   5.308  10.112 -0.3208 -0.1303 -1.0230
  101OSM    C8S10154   5.768   5.195   9.943  0.0432  0.3563 -0.2644
  101OSM    H8S10155   5.821   5.099   9.926  0.8393  0.4938  1.2640
  101OSM    H8T10156   5.841   5.274   9.918 -1.1146  0.4327 -3.9298
  101OSM    C9S10157   5.643   5.201   9.851  0.2624  0.1507 -0.8970
  101OSM    H9S10158   5.572   5.270   9.902 -0.3894 -0.2723 -1.2152
  101OSM    H9T10159   5.600   5.099   9.848 -1.7423  0.7460  2.5567
  101OSM   C10S10160   5.673   5.256   9.709  0.4038  0.0876 -0.2347
  101OSM   H10S10161   5.759   5.325   9.720 -0.2597  0.7458  1.2045
  101OSM   H10T10162   5.584   5.308   9.667 -0.7215 -1.8337 -0.3716
  101OSM   C11S10163   5.708   5.135   9.623 -0.5962 -0.5605  0.1330
  101OSM   H11S10164   5.627   5.061   9.606  1.2394 -2.1774 -2.3966
  101OSM   H11T10165   5.793   5.077   9.664 -0.9089 -1.0011  0.1701
  101OSM   C12S10166   5.747   5.192   9.476 -0.1103  0.0386  0.0622
  101OSM   H12S10167   5.853   5.226   9.484  0.3729 -1.7707  2.7808
  101OSM   H12T10168   5.686   5.284   9.464  1.1216  1.4998  3.7369
  101OSM   C13S10169   5.743   5.086   9.359 -0.2524  0.1006 -0.0503
  101OSM   H13S10170   5.807   4.996   9.372 -0.6973 -0.2964 -0.5638
  101OSM   H13T10171   5.799   5.133   9.276  0.8254  0.5138  0.8870
  101OSM   C14S10172   5.600   5.044   9.322 -0.4262 -0.2865 -0.3104
  101OSM   H14S10173   5.550   5.139   9.294  2.1438  0.8683 -1.3240
  101OSM   H14T10174   5.559   4.994   9.412  1.5904 -1.7823 -0.1374
  101OSM   C15S10175   5.593   4.948   9.206 -0.3031  0.1069  0.8904
  101OSM   H15S10176   5.486   4.922   9.198 -0.2305  0.3732 -1.9887
  101OSM   H15T10177   5.648   4.854   9.227  0.5927  0.5818  0.7302
  101OSM   C16S10178   5.639   5.008   9.075 -0.0633 -0.1975  0.9822
  101OSM   H16S10179   5.744   5.044   9.084 -0.4649  1.6045 -0.7683
  101OSM   H16T10180   5.573   5.097   9.069 -0.8647 -0.7258  1.8122
  101OSM   C17S10181   5.620   4.910   8.964  0.3069 -0.1839  0.6003
  101OSM   H17S10182   5.517   4.867   8.958  0.3508 -0.1048 -1.4303
  101OSM   H17T10183   5.685   4.822   8.985 -0.3723 -0.8500 -0.0268
  101OSM   C18S10184   5.650   4.970   8.824 -0.0315 -0.9832 -0.0843
  101OSM   H18S10185   5.744   5.024   8.805 -1.0338  1.5088  1.5964
  101OSM   H18T10186   5.568   5.044   8.810 -1.3927 -2.4513 -0.2790
  101OSM   H18U10187   5.635   4.898   8.740  2.8458  0.8468 -2.3522
  101OSM    C1F10188   5.573   4.711  10.639 -0.7161 -0.3064 -0.0560
  101OSM     OF10189   5.450   4.709  10.653  0.1110  0.8957 -0.1221
  101OSM    C2F10190   5.655   4.592  10.665 -0.5167  0.9811  0.4660
  101OSM    H2F10191   5.673   4.585  10.775  2.4328 -2.8887 -0.0376
  101OSM    H2G10192   5.755   4.602  10.618 -1.2378  0.5060 -1.2287
  101OSM    C3F10193   5.609   4.458  10.612  0.2618  0.0456  0.7969
  101OSM    H3F10194   5.508   4.433  10.650 -1.1608  0.4017 -2.3804
  101OSM    H3G10195   5.692   4.393  10.647  1.9044  0.6890 -1.5968
  101OSM    C4F10196   5.598   4.451  10.457 -0.5680  0.5410  0.0162
  101OSM    H4F10197   5.699   4.463  10.412  0.3900  0.8148  2.1132
  101OSM    H4G10198   5.527   4.523  10.410 -1.3144 -0.7666 -0.9109
  101OSM    C5F10199   5.545   4.313  10.422  0.1164 -0.0104 -0.1285
  101OSM    H5F10200   5.435   4.304  10.435  0.1282 -0.3449 -0.2430
  101OSM    H5G10201   5.594   4.244  10.493 -1.3859 -0.0753  0.8941
  101OSM    C6F10202   5.573   4.275  10.276  0.1619 -0.0375 -0.3817
  101OSM    H6F10203   5.511   4.348  10.219 -1.6801 -1.6110 -0.4876
  101OSM    H6G10204   5.680   4.281  10.245 -0.2429  2.0545 -1.6344
  101OSM    C7F10205   5.513   4.141  10.231  0.0952 -0.0360 -0.6168
  101OSM    H7F10206   5.424   4.125  10.295  0.8131  0.7518  0.6103
  101OSM    H7G10207   5.586   4.060  10.251 -1.1003 -1.2118 -0.7966
  101OSM    C8F10208   5.495   4.122  10.079  0.2318  0.2931 -0.2667
  101OSM    H8F10209   5.590   4.126  10.022  0.5317  2.1452  0.3198
  101OSM    H8G10210   5.431   4.200  10.034 -1.4206 -0.8036  0.0657
  101OSM    C9F10211   5.428   3.984  10.055 -0.1366  0.2842  1.3715
  101OSM    H9F10212   5.442   3.915  10.140 -0.4962 -1.6315 -0.0667
  101OSM   C10F10213   5.365   3.938   9.944  0.8149  0.3740  0.1772
  101OSM   H10F10214   5.311   3.843   9.935  2.9431 -0.8775 -0.1018
  101OSM   C11F10215   5.359   4.006   9.809 -0.0339  0.1596 -0.2438
  101OSM   H11F10216   5.385   3.932   9.730 -1.9127  0.4404 -1.1796
  101OSM   H11G10217   5.420   4.098   9.810  2.4470 -1.3899 -0.7297
  101OSM   C12F10218   5.215   4.048   9.768 -0.1943  0.3261  0.4750
  101OSM   H12F10219   5.178   4.133   9.828  0.3824  1.2808 -0.4867
  101OSM   H12G10220   5.145   3.967   9.799  1.1786 -1.2667 -0.4078
  101OSM   C13F10221   5.199   4.075   9.617  0.0492  0.2398 -0.1657
  101OSM   H13F10222   5.282   4.137   9.578  1.5480 -1.2800  0.4683
  101OSM   H13G10223   5.094   4.108   9.597 -0.3988  0.9272  2.8051
  101OSM   C14F10224   5.192   3.940   9.539 -0.1763 -0.3943 -0.9389
  101OSM   H14F10225   5.117   3.874   9.587  1.5243 -0.4966  1.7882
  101OSM   H14G10226   5.285   3.884   9.560 -0.6610 -0.8753 -0.0211
  101OSM   C15F10227   5.173   3.955   9.386 -0.3458 -0.3347 -0.0460
  101OSM   H15F10228   5.079   4.012   9.373  0.0397  0.2936 -0.1549
  101OSM   H15G10229   5.164   3.854   9.340  0.3139 -0.3863 -0.0788
  101OSM   C16F10230   5.279   4.034   9.315  0.3923 -0.0030 -0.1912
  101OSM   H16F10231   5.379   3.996   9.346 -0.3964 -1.2228  0.9482
  101OSM   H16G10232   5.274   4.140   9.349 -0.4175  0.2404 -1.0181
  101OSM   C17F10233   5.275   4.037   9.156  0.4625 -0.3638 -0.5540
  101OSM   H17F10234   5.168   4.047   9.128  0.7447  1.0801 -1.1892
  101OSM   H17G10235   5.317   3.944   9.112  0.6312  0.0469 -1.2864
  101OSM   C18F10236   5.338   4.161   9.100 -0.2381  0.5472  0.2431
  101OSM   H18F10237   5.293   4.252   9.146  0.7628  0.3579  1.6605
  101OSM   H18G10238   5.304   4.161   8.995 -1.8629 -0.6006  0.7325
  101OSM   H18H10239   5.449   4.161   9.095 -0.2356 -1.0156 -0.0325
  102OSM      N10240   2.493   6.171  11.011  0.5425  0.8758 -0.8302
  102OSM    C1510241   2.372   6.161  11.104  0.0925  0.1922  0.8647
  102OSM   H15A10242   2.393   6.096  11.188  2.9249 -0.6484 -0.3755
  102OSM   H15B10243   2.286   6.121  11.052  0.7817 -0.8761  0.5092
  102OSM   H15C10244   2.335   6.255  11.143 -2.8806 -1.0866  1.4611
  102OSM    C1410245   2.602   6.245  11.081  0.4897 -0.0700 -0.1461
  102OSM   H14A10246   2.611   6.213  11.184  2.3543 -1.9015 -0.8334
  102OSM   H14B10247   2.586   6.352  11.081  0.3552  0.0653  3.8629
  102OSM   H14C10248   2.696   6.222  11.033 -0.4052 -1.0011 -1.5260
  102OSM    C1310249   2.542   6.031  10.988  0.1556 -0.7569  0.2159
  102OSM   H13A10250   2.619   6.037  10.913 -0.3013  1.7137 -0.1408
  102OSM   H13B10251   2.466   5.959  10.962  0.7946 -1.3146 -0.1388
  102OSM   H13C10252   2.592   5.988  11.074  0.8448 -0.3375  0.0314
  102OSM    C1210253   2.452   6.240  10.881 -0.4850 -0.3016 -0.1426
  102OSM   H12A10254   2.370   6.185  10.837  1.1194  0.1892 -4.2643
  102OSM   H12B10255   2.535   6.242  10.812  0.5421 -1.2015  1.0260
  102OSM    C1110256   2.392   6.382  10.883  0.2098  0.7979 -0.3737
  102OSM   H11A10257   2.302   6.382  10.948 -0.6645 -0.2287 -1.5259
  102OSM   H11B10258   2.354   6.390  10.778  0.8121  1.6141 -0.5384
  102OSM      P10259   2.597   6.528  10.829 -0.0201  0.1594  0.1550
  102OSM    O1310260   2.647   6.658  10.872 -0.5060  0.0308  0.3996
  102OSM    O1410261   2.700   6.424  10.818 -0.0326  0.2127  0.3371
  102OSM    O1110262   2.514   6.537  10.693 -0.3609  0.0166  0.3741
  102OSM    O1210263   2.486   6.482  10.928  0.1772 -0.2287 -0.0692
  102OSM    C1S10264   2.431   6.643  10.650  0.0372  0.4633 -0.8817
  102OSM    H1S10265   2.428   6.730  10.720  0.9648  0.9911 -1.4781
  102OSM    H1T10266   2.322   6.620  10.642  0.1434 -1.5945  1.8481
  102OSM     NF10267   2.373   6.784  10.473  0.4754  0.0509 -0.5902
  102OSM    HNF10268   2.301   6.744  10.418 -0.3903  0.5682  0.1260
  102OSM    C2S10269   2.472   6.685  10.505 -0.3974  0.2103 -0.2456
  102OSM    H2S10270   2.575   6.726  10.513  0.2022 -0.4701 -3.2278
  102OSM    C3S10271   2.474   6.560  10.407  0.3547  0.6490  0.1583
  102OSM    H3S10272   2.372   6.516  10.414 -0.0478  1.6945  1.3563
  102OSM     O310273   2.572   6.448  10.436  0.3714  0.3436 -0.3261
  102OSM    HO310274   2.588   6.448  10.531 -0.1545  1.1430 -0.2336
  102OSM    C4S10275   2.497   6.611  10.267 -0.6253 -0.6292  0.2858
  102OSM    H4S10276   2.403   6.619  10.210 -0.0083  1.0941 -0.5440
  102OSM    C5S10277   2.614   6.643  10.212  0.0678  0.2908 -0.4092
  102OSM    H5S10278   2.703   6.621  10.272  0.1702 -0.8845 -0.9588
  102OSM    C6S10279   2.645   6.708  10.081  1.2346 -0.1972  0.3575
  102OSM    H6S10280   2.726   6.648  10.035  1.3427  0.0695  0.2000
  102OSM    H6T10281   2.689   6.809  10.090  1.2235 -0.0419 -1.1165
  102OSM    C7S10282   2.528   6.712   9.978 -0.9342  0.2834  0.7750
  102OSM    H7S10283   2.450   6.774  10.028 -1.5524  0.6500 -0.6075
  102OSM    H7T10284   2.493   6.607   9.964  1.1194 -0.1986 -1.4442
  102OSM    C8S10285   2.562   6.756   9.838  0.1978 -0.3164 -0.0914
  102OSM    H8S10286   2.648   6.699   9.797  0.6836  0.1251  0.2906
  102OSM    H8T10287   2.590   6.864   9.831 -0.1520 -0.1861  0.4548
  102OSM    C9S10288   2.443   6.733   9.739 -0.1585  0.5802 -0.3556
  102OSM    H9S10289   2.359   6.797   9.774 -0.9436 -1.2722  1.3841
  102OSM    H9T10290   2.407   6.628   9.742  0.0023  0.4302 -2.4779
  102OSM   C10S10291   2.497   6.767   9.598 -0.5386  0.4927  0.3714
  102OSM   H10S10292   2.571   6.693   9.563 -1.3016 -0.6296  1.0429
  102OSM   H10T10293   2.546   6.866   9.592 -0.0435  0.1862 -0.8853
  102OSM   C11S10294   2.378   6.757   9.503  0.3778 -0.2979 -0.0143
  102OSM   H11S10295   2.326   6.854   9.519 -1.1815 -1.0593 -0.3677
  102OSM   H11T10296   2.317   6.668   9.528 -1.7529  1.1311  0.1716
  102OSM   C12S10297   2.420   6.736   9.354  0.1086  0.1420 -0.1184
  102OSM   H12S10298   2.485   6.825   9.341  1.4727 -0.6547  0.9592
  102OSM   H12T10299   2.338   6.751   9.280  0.3269  0.5902 -0.2768
  102OSM   C13S10300   2.504   6.605   9.328  0.3183 -0.0158  0.4607
  102OSM   H13S10301   2.445   6.526   9.378  1.8320 -1.3014  0.3066
  102OSM   H13T10302   2.604   6.615   9.376  0.0520 -1.0795  1.2661
  102OSM   C14S10303   2.520   6.572   9.181 -0.0538 -0.3004 -0.6528
  102OSM   H14S10304   2.419   6.553   9.137 -1.0967  1.0161  1.0364
  102OSM   H14T10305   2.591   6.486   9.177 -0.4745 -0.6278 -3.2873
  102OSM   C15S10306   2.571   6.691   9.097 -0.3901  0.0600  0.7532
  102OSM   H15S10307   2.678   6.702   9.128 -0.8670  1.0062  2.1960
  102OSM   H15T10308   2.537   6.796   9.109  0.7654  0.5323  0.0573
  102OSM   C16S10309   2.570   6.653   8.946  0.3920  0.3113 -0.1010
  102OSM   H16S10310   2.633   6.562   8.936 -0.0796 -0.0039 -0.2691
  102OSM   H16T10311   2.631   6.727   8.890  2.0642  0.6133  1.9967
  102OSM   C17S10312   2.425   6.631   8.888 -0.0618 -0.4887 -0.0110
  102OSM   H17S10313   2.353   6.709   8.919  0.2700  0.3034 -1.2058
  102OSM   H17T10314   2.375   6.544   8.937 -1.2938  0.1850 -0.0436
  102OSM   C18S10315   2.417   6.595   8.739  1.0342  0.1206  0.2794
  102OSM   H18S10316   2.480   6.666   8.681  2.4012  0.6765  2.3260
  102OSM   H18T10317   2.309   6.580   8.721  1.0864 -1.7495  1.2859
  102OSM   H18U10318   2.459   6.494   8.717 -0.3175 -0.5380  0.5862
  102OSM    C1F10319   2.358   6.905  10.536 -0.6585 -0.0927 -0.7217
  102OSM     OF10320   2.436   6.944  10.623  0.2260 -0.1507  0.0592
  102OSM    C2F10321   2.232   6.979  10.485  0.1604 -0.1099 -0.0609
  102OSM    H2F10322   2.148   6.914  10.516 -0.3210  0.8916  0.7832
  102OSM    H2G10323   2.238   6.962  10.376  0.3125 -0.4904  0.0018
  102OSM    C3F10324   2.211   7.124  10.533 -0.7097 -0.2947  0.0450
  102OSM    H3F10325   2.303   7.186  10.527  0.2121 -0.9409  4.1853
  102OSM    H3G10326   2.187   7.120  10.642 -1.7543 -2.0464 -0.2282
  102OSM    C4F10327   2.084   7.190  10.472 -0.1139  0.1216  0.0108
  102OSM    H4F10328   1.999   7.133  10.516  1.0344 -1.1604  0.6531
  102OSM    H4G10329   2.070   7.190  10.362 -2.4783 -1.2753  0.2207
  102OSM    C5F10330   2.065   7.335  10.532  0.0233  0.3691  0.1701
  102OSM    H5F10331   2.146   7.396  10.486 -0.7289  1.2898  0.0472
  102OSM    H5G10332   2.069   7.339  10.643  3.0113  2.8492  0.1288
  102OSM    C6F10333   1.933   7.405  10.497 -0.4863 -0.2645 -0.6068
  102OSM    H6F10334   1.941   7.500  10.555  1.7783 -1.5244  1.3269
  102OSM    H6G10335   1.848   7.339  10.527 -0.8309  0.9552  1.2647
  102OSM    C7F10336   1.935   7.446  10.346 -0.3693 -0.2040 -0.5465
  102OSM    H7F10337   1.921   7.359  10.279  1.1575 -1.3207  0.5151
  102OSM    H7G10338   2.038   7.483  10.328 -0.5008  1.0593  1.0723
  102OSM    C8F10339   1.838   7.548  10.295  0.3127 -0.3632 -0.7441
  102OSM    H8F10340   1.823   7.613  10.384 -1.6679 -2.3370  0.4769
  102OSM    H8G10341   1.745   7.493  10.273  0.4829 -0.9879  0.0469
  102OSM    C9F10342   1.868   7.630  10.177 -0.0160 -0.2073  0.3723
  102OSM    H9F10343   1.828   7.730  10.200 -3.2388 -1.3340  0.2198
  102OSM   C10F10344   1.914   7.598  10.060 -0.3968  0.3197  0.1964
  102OSM   H10F10345   1.926   7.683   9.991  1.4740 -1.4321 -1.7970
  102OSM   C11F10346   1.951   7.466  10.002  0.7083  0.4363 -0.6953
  102OSM   H11F10347   1.911   7.384  10.065  1.3633  0.1296 -0.6722
  102OSM   H11G10348   2.062   7.463   9.998  1.0726  2.8073  2.7865
  102OSM   C12F10349   1.892   7.432   9.866 -0.1856 -0.0345  0.0815
  102OSM   H12F10350   1.782   7.451   9.864 -0.3269 -0.5710 -3.5156
  102OSM   H12G10351   1.888   7.323   9.844 -1.3235 -0.0973  0.4933
  102OSM   C13F10352   1.967   7.515   9.758 -0.0991 -0.4677 -0.1508
  102OSM   H13F10353   2.076   7.492   9.767  0.1235  0.6452  0.0943
  102OSM   H13G10354   1.951   7.622   9.780  0.6968 -0.6349  1.3825
  102OSM   C14F10355   1.906   7.490   9.615 -0.7081 -0.0260 -0.5559
  102OSM   H14F10356   1.797   7.511   9.612 -0.3955  1.8767 -0.2455
  102OSM   H14G10357   1.918   7.382   9.593  1.2643 -0.2605  1.3506
  102OSM   C15F10358   1.972   7.570   9.505 -0.0202  0.1180 -0.0669
  102OSM   H15F10359   2.082   7.568   9.519 -0.1996 -0.9481  1.6091
  102OSM   H15G10360   1.949   7.676   9.530 -1.9305 -0.0098 -1.0569
  102OSM   C16F10361   1.930   7.526   9.367  0.0116 -0.0665  0.5436
  102OSM   H16F10362   1.819   7.537   9.359 -0.1812 -2.3804 -1.0349
  102OSM   H16G10363   1.931   7.418   9.340 -3.0856  0.7563 -3.9012
  102OSM   C17F10364   1.998   7.611   9.255  0.1729  0.4529 -0.1922
  102OSM   H17F10365   2.106   7.589   9.264 -0.0926 -0.4203  0.9629
  102OSM   H17G10366   1.987   7.717   9.288  1.5574 -0.1319  2.3452
  102OSM   C18F10367   1.939   7.586   9.114 -0.9264  0.4899 -0.2250
  102OSM   H18F10368   1.998   7.623   9.028  2.9122 -1.3917  1.3514
  102OSM   H18G10369   1.829   7.602   9.113 -1.0640 -0.1573  1.4557
  102OSM   H18H10370   1.942   7.476   9.098 -1.1814  0.7375 -2.1196
  103OSM      N10371   0.999   3.511  11.078 -0.0985 -0.4058 -0.4290
  103OSM    C1510372   1.008   3.664  11.073 -0.3210  0.3579  0.5091
  103OSM   H15A10373   1.070   3.687  10.988  1.1051 -0.2600  1.3460
  103OSM   H15B10374   1.045   3.700  11.168  1.4022 -1.6233  0.6510
  103OSM   H15C10375   0.914   3.713  11.049  0.2699  1.6802  0.8239
  103OSM    C1410376   1.111   3.451  11.151 -0.6625  0.2904 -0.0921
  103OSM   H14A10377   1.207   3.455  11.101  0.0249 -0.4962  1.1272
  103OSM   H14B10378   1.086   3.348  11.167 -1.1914  0.4241 -0.0354
  103OSM   H14C10379   1.128   3.506  11.242  0.8724 -0.3133  0.0185
  103OSM    C1310380   0.881   3.472  11.155 -0.0704 -0.0303 -0.1278
  103OSM   H13A10381   0.895   3.367  11.175  1.7370  0.1224 -0.4216
  103OSM   H13B10382   0.791   3.489  11.097  0.5509  1.2016 -0.7670
  103OSM   H13C10383   0.884   3.529  11.247 -0.7415 -1.7486  1.0023
  103OSM    C1210384   0.984   3.446  10.934  0.3223 -0.6802  0.1904
  103OSM   H12A10385   0.897   3.485  10.884  0.6927 -0.4259 -0.2556
  103OSM   H12B10386   0.966   3.340  10.946  1.0601 -0.9240 -0.7811
  103OSM    C1110387   1.103   3.473  10.836 -0.3474  0.3159 -0.1631
  103OSM   H11A10388   1.141   3.577  10.842 -0.6459  0.4865 -1.0674
  103OSM   H11B10389   1.068   3.456  10.732  0.2415 -0.3479 -0.2627
  103OSM      P10390   1.226   3.242  10.809 -0.0422  0.5498 -0.1406
  103OSM    O1310391   1.362   3.191  10.825 -0.5159 -0.1717  0.1803
  103OSM    O1410392   1.115   3.161  10.862 -0.3180 -0.0298 -0.3262
  103OSM    O1110393   1.202   3.260  10.652  0.4457  0.6054  0.0195
  103OSM    O1210394   1.215   3.385  10.863  0.0613  0.2516 -0.6623
  103OSM    C1S10395   1.275   3.352  10.574  0.0465 -0.0543  0.4188
  103OSM    H1S10396   1.377   3.310  10.562 -0.5463 -1.1427 -1.1572
  103OSM    H1T10397   1.286   3.451  10.623  0.4364  1.3575 -2.3215
  103OSM     NF10398   1.292   3.482  10.365  0.3596  0.9965  0.4451
  103OSM    HNF10399   1.276   3.579  10.382 -1.8163  1.1888 -1.9299
  103OSM    C2S10400   1.210   3.386  10.438 -0.2481  0.2018  0.6939
  103OSM    H2S10401   1.206   3.285  10.392  0.0347 -0.2567  1.6476
  103OSM    C3S10402   1.064   3.449  10.452 -0.2457 -0.0445  0.6030
  103OSM    H3S10403   1.069   3.534  10.524  0.0576 -0.4407  1.0577
  103OSM     O310404   0.972   3.356  10.511  0.2454 -0.2562  0.0083
  103OSM    HO310405   1.018   3.301  10.574  1.6378 -0.6649 -1.3037
  103OSM    C4S10406   1.013   3.507  10.322  0.0612 -0.4928 -0.3515
  103OSM    H4S10407   1.041   3.610  10.298 -0.5446 -0.4047 -0.7129
  103OSM    C5S10408   0.913   3.468  10.240  1.2438 -0.2727 -0.1134
  103OSM    H5S10409   0.842   3.391  10.273  0.5695  0.6156  0.5649
  103OSM    C6S10410   0.860   3.522  10.113  0.4375 -0.1689  0.7197
  103OSM    H6S10411   0.788   3.605  10.124 -0.8733 -1.2528  0.4998
  103OSM    H6T10412   0.799   3.440  10.071  0.9423 -0.3473  0.3311
  103OSM    C7S10413   0.970   3.560  10.015  0.6474 -0.0018  0.1589
  103OSM    H7S10414   1.025   3.467   9.989  1.8451  0.1408  1.9802
  103OSM    H7T10415   1.047   3.620  10.068 -0.6597 -0.2322  2.4360
  103OSM    C8S10416   0.918   3.647   9.901 -0.0491  0.1539 -0.3321
  103OSM    H8S10417   0.834   3.592   9.853 -1.3553  1.3327  0.5283
  103OSM    H8T10418   0.995   3.639   9.822 -1.1176 -3.4064 -1.1850
  103OSM    C9S10419   0.874   3.797   9.933 -0.4644 -0.3643  0.2637
  103OSM    H9S10420   0.923   3.826  10.028  0.4694 -1.0619  0.0103
  103OSM    H9T10421   0.768   3.806   9.965 -0.4999  0.8436 -0.1490
  103OSM   C10S10422   0.916   3.889   9.827 -0.1986 -0.0387  0.1481
  103OSM   H10S10423   1.010   3.854   9.779 -0.0295 -0.5471  0.8359
  103OSM   H10T10424   0.931   3.989   9.873  0.8749  0.9010 -2.1058
  103OSM   C11S10425   0.815   3.902   9.715 -0.9148  0.5375 -0.2458
  103OSM   H11S10426   0.715   3.930   9.755 -0.6518 -0.9732  1.5862
  103OSM   H11T10427   0.824   3.811   9.651  3.7890  0.2410  0.4703
  103OSM   C12S10428   0.859   4.024   9.628 -0.0025 -0.0699  0.1552
  103OSM   H12S10429   0.814   4.024   9.527  0.1728  0.3437  0.0771
  103OSM   H12T10430   0.970   4.026   9.626 -0.0104  0.0438 -0.1083
  103OSM   C13S10431   0.824   4.163   9.692  0.0111  0.7817  0.5828
  103OSM   H13S10432   0.839   4.140   9.800  1.6599  0.9567  0.4161
  103OSM   H13T10433   0.721   4.185   9.659  0.0339  0.3843  0.2374
  103OSM   C14S10434   0.920   4.271   9.655 -0.3265  0.5493 -0.8848
  103OSM   H14S10435   1.024   4.241   9.681 -0.1814  0.7354 -1.2476
  103OSM   H14T10436   0.910   4.359   9.724  2.5855 -0.9282  1.7224
  103OSM   C15S10437   0.907   4.311   9.503  0.0426  0.3823 -0.2713
  103OSM   H15S10438   0.805   4.354   9.493  0.7530  2.1345 -0.2789
  103OSM   H15T10439   0.917   4.220   9.440 -0.2289 -1.0411  1.6357
  103OSM   C16S10440   0.997   4.429   9.467  0.2488  0.3560 -0.9973
  103OSM   H16S10441   1.100   4.404   9.500 -0.5845  0.1376  1.6721
  103OSM   H16T10442   0.957   4.514   9.526 -0.2521 -0.4971 -0.0793
  103OSM   C17S10443   0.999   4.477   9.321  0.0952  0.3239  0.0260
  103OSM   H17S10444   0.977   4.390   9.256  1.5217  1.3732 -1.9626
  103OSM   H17T10445   1.101   4.511   9.292  0.8616 -2.1651 -0.4930
  103OSM   C18S10446   0.889   4.578   9.296 -0.2383  0.3485  0.5202
  103OSM   H18S10447   0.877   4.608   9.190  0.8782  1.3727  0.6692
  103OSM   H18T10448   0.919   4.673   9.345 -1.3796  1.4459 -0.8337
  103OSM   H18U10449   0.792   4.540   9.334 -0.1654  0.3019  0.6641
  103OSM    C1F10450   1.408   3.436  10.314  0.2150  0.3032 -0.0845
  103OSM     OF10451   1.438   3.317  10.333 -0.5582 -0.1538  0.0220
  103OSM    C2F10452   1.499   3.536  10.256 -0.2537  0.0214  0.0052
  103OSM    H2F10453   1.602   3.532  10.299  0.2339  1.0038 -1.0218
  103OSM    H2G10454   1.453   3.632  10.288 -2.0330 -0.9267  0.4010
  103OSM    C3F10455   1.506   3.517  10.099  0.2722 -0.3678 -0.8193
  103OSM    H3F10456   1.538   3.415  10.069 -2.0526 -0.5795 -2.9071
  103OSM    H3G10457   1.581   3.591  10.066  0.3740  0.1350  0.4908
  103OSM    C4F10458   1.377   3.563  10.029  0.2996  0.7134  0.2243
  103OSM    H4F10459   1.376   3.672  10.052  2.0114  0.5258  1.4189
  103OSM    H4G10460   1.288   3.528  10.087  1.3850  2.1406  2.9433
  103OSM    C5F10461   1.364   3.551   9.881 -0.2711 -0.0094  0.4789
  103OSM    H5F10462   1.270   3.608   9.867 -1.5818 -1.9074  1.2196
  103OSM    H5G10463   1.357   3.445   9.849  0.8002  0.6881 -2.3679
  103OSM    C6F10464   1.484   3.624   9.806  0.2739  0.8126 -0.1406
  103OSM    H6F10465   1.586   3.588   9.832 -0.2968  0.4490  1.7904
  103OSM    H6G10466   1.470   3.730   9.836 -0.3056  0.2974  1.5016
  103OSM    C7F10467   1.487   3.612   9.649 -0.0535 -0.0750  0.3672
  103OSM    H7F10468   1.519   3.512   9.612 -0.2610  0.4008 -1.1901
  103OSM    H7G10469   1.566   3.683   9.615  0.0675 -0.2049  0.3746
  103OSM    C8F10470   1.353   3.656   9.590 -0.2498 -0.3910 -0.5114
  103OSM    H8F10471   1.266   3.609   9.640 -0.8087  0.7496 -0.3763
  103OSM    H8G10472   1.347   3.607   9.490  0.5807 -0.2447 -0.6404
  103OSM    C9F10473   1.338   3.806   9.570 -1.0890  0.0522 -0.3711
  103OSM    H9F10474   1.431   3.863   9.582 -1.0528 -0.4221  2.4542
  103OSM   C10F10475   1.228   3.864   9.522 -0.2380 -0.7416 -0.4132
  103OSM   H10F10476   1.226   3.973   9.519  0.1282 -0.7125  0.1691
  103OSM   C11F10477   1.104   3.793   9.472  0.1302  0.3285 -0.2689
  103OSM   H11F10478   1.024   3.800   9.549 -0.8462 -2.4606 -0.9223
  103OSM   H11G10479   1.130   3.689   9.443 -1.0305  0.4788 -2.0071
  103OSM   C12F10480   1.053   3.868   9.347 -0.1514 -0.1508 -0.8738
  103OSM   H12F10481   1.123   3.842   9.265 -0.6892 -4.4381 -0.2185
  103OSM   H12G10482   1.028   3.976   9.356 -1.1947 -0.5454  1.8858
  103OSM   C13F10483   0.924   3.791   9.299  0.1580 -0.9816 -0.4642
  103OSM   H13F10484   0.845   3.806   9.375  0.1137 -0.8979 -0.5269
  103OSM   H13G10485   0.964   3.688   9.289  1.5951 -0.6695  1.4139
  103OSM   C14F10486   0.856   3.846   9.174 -1.0084  0.2220 -1.1115
  103OSM   H14F10487   0.758   3.794   9.177 -0.4481 -0.9255  2.9040
  103OSM   H14G10488   0.923   3.816   9.091 -0.2944  0.0554 -0.4858
  103OSM   C15F10489   0.838   3.994   9.148 -0.3849  0.5088  0.7386
  103OSM   H15F10490   0.935   4.047   9.133  0.9087 -2.0207 -0.5628
  103OSM   H15G10491   0.788   4.038   9.236  3.2633  0.5404  3.0335
  103OSM   C16F10492   0.771   4.012   9.005  0.2328  0.3042 -0.4498
  103OSM   H16F10493   0.689   3.939   8.987 -0.4181  1.4734 -2.5391
  103OSM   H16G10494   0.839   3.982   8.922  0.7512  0.7137 -0.1771
  103OSM   C17F10495   0.714   4.148   8.979  0.3936  0.4504  0.3429
  103OSM   H17F10496   0.791   4.228   8.985  1.6037 -0.7966  3.4422
  103OSM   H17G10497   0.644   4.165   9.064  0.9750 -3.4646  1.7949
  103OSM   C18F10498   0.624   4.157   8.858  0.3858  0.4936 -0.7820
  103OSM   H18F10499   0.578   4.257   8.848 -0.2264  0.3750  0.5987
  103OSM   H18G10500   0.540   4.085   8.870  1.1764 -0.1976  0.9918
  103OSM   H18H10501   0.674   4.129   8.762  1.2385 -0.2080 -0.1491
  104OSM      N10502   2.032   0.823  10.928  0.4021  0.0500 -0.0984
  104OSM    C1510503   2.019   0.769  11.067 -0.0735  0.2618 -0.1972
  104OSM   H15A10504   2.101   0.792  11.133  0.3373 -1.5995 -0.0073
  104OSM   H15B10505   2.009   0.661  11.061 -1.0426  0.2630  1.0301
  104OSM   H15C10506   1.928   0.807  11.112  1.6577  2.6621  1.5356
  104OSM    C1410507   2.074   0.968  10.939  0.3523 -0.3638 -0.1709
  104OSM   H14A10508   2.039   1.017  10.850 -3.2249 -2.4134 -0.1002
  104OSM   H14B10509   2.181   0.986  10.942  0.3130  0.1378 -1.2382
  104OSM   H14C10510   2.026   1.020  11.019  3.1905 -0.0520  1.4622
  104OSM    C1310511   2.149   0.753  10.859  0.2811 -0.0253  0.5463
  104OSM   H13A10512   2.174   0.801  10.766  2.2423 -0.2600  0.9001
  104OSM   H13B10513   2.130   0.648  10.840 -0.1036 -0.1480  1.5703
  104OSM   H13C10514   2.232   0.761  10.928 -0.6373  3.4031  1.4124
  104OSM    C1210515   1.911   0.802  10.845 -0.0056 -0.0237 -0.4414
  104OSM   H12A10516   1.828   0.803  10.913  0.1199 -1.9592 -0.1995
  104OSM   H12B10517   1.910   0.696  10.820 -0.0815 -0.0116 -0.4910
  104OSM    C1110518   1.888   0.888  10.718 -0.3369 -0.2831  0.5730
  104OSM   H11A10519   1.809   0.836  10.660 -1.5472  0.9752  1.0234
  104OSM   H11B10520   1.975   0.882  10.649 -0.9637 -0.0946 -0.2530
  104OSM      P10521   1.713   1.046  10.818 -0.0271 -0.0738  0.4941
  104OSM    O1310522   1.667   0.945  10.913 -0.7371  0.0913  0.0898
  104OSM    O1410523   1.715   1.184  10.859  0.0585  0.3519 -0.6828
  104OSM    O1110524   1.615   1.036  10.696 -0.1898  0.1583 -0.4412
  104OSM    O1210525   1.848   1.022  10.753 -0.5468 -0.1787 -0.2572
  104OSM    C1S10526   1.611   1.134  10.589 -0.0771  0.0586 -0.2509
  104OSM    H1S10527   1.704   1.194  10.586  0.4837 -0.8340 -3.1614
  104OSM    H1T10528   1.520   1.194  10.615 -0.7720 -1.6947  1.6512
  104OSM     NF10529   1.605   1.155  10.342  0.1151  0.5045 -0.5151
  104OSM    HNF10530   1.525   1.180  10.289  0.0630  2.1298  0.2501
  104OSM    C2S10531   1.585   1.065  10.451  0.0081  0.0775  0.3623
  104OSM    H2S10532   1.651   0.977  10.437  0.2335  0.7033 -3.4161
  104OSM    C3S10533   1.437   1.008  10.461  0.6905  1.0150  0.5159
  104OSM    H3S10534   1.368   1.095  10.454 -0.0831  0.5514  2.0205
  104OSM     O310535   1.397   0.944  10.584  0.3792 -0.3962  0.0920
  104OSM    HO310536   1.474   0.964  10.638 -0.2800  1.4783  0.3926
  104OSM    C4S10537   1.411   0.926  10.337  0.1397 -0.2943  0.2740
  104OSM    H4S10538   1.381   0.986  10.250  0.0674 -0.1511  0.3963
  104OSM    C5S10539   1.420   0.790  10.331 -0.5409 -0.4696 -0.0853
  104OSM    H5S10540   1.444   0.732  10.421 -0.6147  1.1263  1.0010
  104OSM    C6S10541   1.400   0.704  10.208  0.8562  0.3394 -0.1243
  104OSM    H6S10542   1.291   0.702  10.185  0.8582  1.8815 -0.4014
  104OSM    H6T10543   1.421   0.596  10.220 -4.0009 -0.8278 -0.1110
  104OSM    C7S10544   1.495   0.764  10.101 -0.2785  0.4036  0.3960
  104OSM    H7S10545   1.604   0.755  10.121  0.1405  0.4846 -1.6677
  104OSM    H7T10546   1.475   0.872  10.085  2.5061  0.9766  0.3649
  104OSM    C8S10547   1.474   0.686   9.967  0.5378  0.3475 -0.3662
  104OSM    H8S10548   1.379   0.629   9.956  1.8929 -2.0857 -0.0551
  104OSM    H8T10549   1.552   0.608   9.956 -1.2718 -1.4099 -1.6190
  104OSM    C9S10550   1.494   0.781   9.850 -0.0699 -0.2731  0.3950
  104OSM    H9S10551   1.592   0.831   9.864  0.3230 -0.3934 -1.5870
  104OSM    H9T10552   1.409   0.851   9.845 -0.9533 -1.0970  2.6360
  104OSM   C10S10553   1.496   0.712   9.717  1.5969  0.0151 -0.9102
  104OSM   H10S10554   1.400   0.661   9.696  0.4027  2.1264 -0.8299
  104OSM   H10T10555   1.579   0.639   9.703  4.4056  2.9898 -1.1452
  104OSM   C11S10556   1.511   0.822   9.610  0.3172  0.3441 -0.3049
  104OSM   H11S10557   1.620   0.844   9.603  0.7891 -1.6845 -0.0250
  104OSM   H11T10558   1.445   0.910   9.622  0.4886  0.4610 -0.2162
  104OSM   C12S10559   1.465   0.763   9.464  0.0653  0.0890 -0.0897
  104OSM   H12S10560   1.365   0.719   9.481  0.1364 -0.4201 -0.9501
  104OSM   H12T10561   1.539   0.689   9.426  1.5226  1.9739 -1.0645
  104OSM   C13S10562   1.444   0.871   9.354 -0.5550  0.5664  0.1901
  104OSM   H13S10563   1.546   0.872   9.311 -0.6377 -0.0381 -0.0185
  104OSM   H13T10564   1.416   0.970   9.398  1.6231  2.5534 -2.5492
  104OSM   C14S10565   1.338   0.821   9.260 -0.7819  0.1356  0.1568
  104OSM   H14S10566   1.242   0.781   9.300  0.0685 -1.5773  0.6243
  104OSM   H14T10567   1.385   0.724   9.232  0.0088  0.4259  0.4735
  104OSM   C15S10568   1.313   0.911   9.139  0.3752 -0.7195  0.1650
  104OSM   H15S10569   1.405   0.968   9.114  0.1273 -0.0123  0.8275
  104OSM   H15T10570   1.237   0.990   9.161  0.5597 -0.6896  0.7060
  104OSM   C16S10571   1.273   0.839   9.016  0.2530  0.6965 -0.0117
  104OSM   H16S10572   1.166   0.809   9.016  0.0904  1.2501 -0.2499
  104OSM   H16T10573   1.336   0.751   8.991  0.6659  1.0945 -0.3884
  104OSM   C17S10574   1.295   0.919   8.887 -0.0364 -0.0910  0.3003
  104OSM   H17S10575   1.259   0.865   8.797  2.1017  0.1335 -0.7361
  104OSM   H17T10576   1.404   0.901   8.879  0.2124  1.3584  0.3154
  104OSM   C18S10577   1.256   1.066   8.892  0.5412 -0.4171 -0.2317
  104OSM   H18S10578   1.308   1.115   8.978  1.0021  0.3247 -0.9128
  104OSM   H18T10579   1.150   1.072   8.924  0.4684 -2.0827 -0.0939
  104OSM   H18U10580   1.271   1.132   8.804 -3.2841  0.8064 -0.1205
  104OSM    C1F10581   1.724   1.195  10.306  0.0099  0.7190 -0.4633
  104OSM     OF10582   1.824   1.194  10.377 -0.1792  0.2130  0.0252
  104OSM    C2F10583   1.736   1.246  10.166  0.5832 -0.1779 -0.2949
  104OSM    H2F10584   1.748   1.356  10.163 -1.1056  0.0164 -3.2535
  104OSM    H2G10585   1.640   1.225  10.115  0.5659 -2.9622  0.7234
  104OSM    C3F10586   1.856   1.173  10.096  0.2856 -0.8225  0.2139
  104OSM    H3F10587   1.817   1.070  10.089 -2.6054  0.2097  0.0483
  104OSM    H3G10588   1.952   1.176  10.154  0.4060 -0.9779  0.0227
  104OSM    C4F10589   1.874   1.251   9.963 -0.0467  0.1920  1.0139
  104OSM    H4F10590   1.969   1.211   9.920 -0.4282  0.5868 -0.2309
  104OSM    H4G10591   1.900   1.357   9.982 -2.5827  1.1509 -0.3907
  104OSM    C5F10592   1.755   1.242   9.865 -0.0287 -0.1368 -0.2525
  104OSM    H5F10593   1.674   1.316   9.886  1.0449 -0.0051  4.4678
  104OSM    H5G10594   1.723   1.136   9.865 -1.5031  0.2880 -0.0535
  104OSM    C6F10595   1.777   1.272   9.703 -0.3171 -0.7194  0.0383
  104OSM    H6F10596   1.848   1.192   9.673  1.2537  0.2898  0.9284
  104OSM    H6G10597   1.818   1.373   9.680  1.7105 -0.9975  2.1185
  104OSM    C7F10598   1.652   1.267   9.624  0.0828  0.2442  0.3898
  104OSM    H7F10599   1.578   1.340   9.664  0.8959  0.9441  0.6349
  104OSM    H7G10600   1.598   1.170   9.628 -1.6129  1.0492 -1.2125
  104OSM    C8F10601   1.687   1.297   9.473 -0.2793  0.2717  0.8906
  104OSM    H8F10602   1.757   1.383   9.461  1.2240 -1.1154 -0.8574
  104OSM    H8G10603   1.593   1.329   9.423  0.8265  0.8625 -0.9131
  104OSM    C9F10604   1.742   1.172   9.405 -0.3709 -1.0767 -0.4323
  104OSM    H9F10605   1.746   1.086   9.473 -0.9185 -0.3589  0.5243
  104OSM   C10F10606   1.770   1.150   9.272 -0.6605 -0.6446 -0.0792
  104OSM   H10F10607   1.822   1.060   9.234  1.3781  0.4269  0.0021
  104OSM   C11F10608   1.739   1.251   9.164 -0.6185 -0.4073 -0.3589
  104OSM   H11F10609   1.832   1.308   9.141  0.1256 -1.7641 -0.8544
  104OSM   H11G10610   1.665   1.325   9.201 -1.2758 -1.4928  0.5290
  104OSM   C12F10611   1.675   1.189   9.037 -0.1204  0.9879  0.2306
  104OSM   H12F10612   1.573   1.148   9.056 -0.0912 -1.1034 -3.2039
  104OSM   H12G10613   1.733   1.100   9.005 -0.8893  0.7057 -0.4148
  104OSM   C13F10614   1.680   1.283   8.918 -0.4439  0.1158  0.1289
  104OSM   H13F10615   1.786   1.303   8.892 -0.9079  2.7673 -0.0756
  104OSM   H13G10616   1.631   1.380   8.943 -0.2955  0.6351 -1.4613
  104OSM   C14F10617   1.606   1.231   8.792 -0.0406  0.2951  0.5920
  104OSM   H14F10618   1.501   1.204   8.815  0.7552 -2.8449  1.0086
  104OSM   H14G10619   1.655   1.143   8.745  1.7631  1.8407 -0.5767
  104OSM   C15F10620   1.611   1.327   8.674 -0.0343 -0.6057  0.2902
  104OSM   H15F10621   1.716   1.360   8.658 -0.4681  0.0545 -1.4332
  104OSM   H15G10622   1.551   1.414   8.706 -0.3481  0.4688 -2.8417
  104OSM   C16F10623   1.558   1.280   8.542  0.5371  0.4385 -0.1285
  104OSM   H16F10624   1.619   1.193   8.509  0.0091  0.6913 -1.8515
  104OSM   H16G10625   1.555   1.347   8.453 -2.2565  1.6767  0.7708
  104OSM   C17F10626   1.412   1.223   8.556 -0.5179 -0.1409 -0.1810
  104OSM   H17F10627   1.351   1.310   8.590  0.7710  0.4618  0.6624
  104OSM   H17G10628   1.414   1.136   8.625 -3.7828 -0.8950 -0.8681
  104OSM   C18F10629   1.352   1.162   8.428  0.0839  0.3101 -0.7635
  104OSM   H18F10630   1.250   1.131   8.456 -0.3129  0.6275 -1.8144
  104OSM   H18G10631   1.419   1.076   8.405 -1.2038 -1.5365  1.9225
  104OSM   H18H10632   1.361   1.224   8.336  0.5980 -0.0905 -0.9888
  105OSM      N10633   4.834   4.984  10.822  0.0364  0.1265  0.4277
  105OSM    C1510634   4.720   4.910  10.885 -0.6550  0.3655  0.1420
  105OSM   H15A10635   4.748   4.859  10.976 -3.1685  0.1389  0.8687
  105OSM   H15B10636   4.685   4.835  10.815  1.1974 -1.3561  0.9573
  105OSM   H15C10637   4.641   4.981  10.905 -0.7587  0.5748 -0.9506
  105OSM    C1410638   4.877   5.088  10.926 -0.6396 -0.4858 -0.1067
  105OSM   H14A10639   4.811   5.173  10.934  1.0423  0.7969  0.9010
  105OSM   H14B10640   4.970   5.131  10.891  0.6797 -2.6021  0.6282
  105OSM   H14C10641   4.906   5.032  11.014  1.8452 -0.2280 -0.6788
  105OSM    C1310642   4.949   4.894  10.791 -0.2665  0.0499 -0.1231
  105OSM   H13A10643   5.015   4.941  10.721 -2.4838  0.7998 -1.8492
  105OSM   H13B10644   4.904   4.812  10.738 -1.1606 -0.2562  1.0518
  105OSM   H13C10645   4.997   4.873  10.885 -0.8417 -0.0995  0.1448
  105OSM    C1210646   4.781   5.049  10.694 -0.2861  0.1847 -0.2080
  105OSM   H12A10647   4.760   4.970  10.623 -0.0627 -1.1785  1.1885
  105OSM   H12B10648   4.860   5.107  10.649  0.2984 -0.7545 -0.4344
  105OSM    C1110649   4.669   5.147  10.696 -0.3205 -0.3712 -0.0058
  105OSM   H11A10650   4.575   5.108  10.742  1.8331 -2.3623  3.0689
  105OSM   H11B10651   4.637   5.168  10.592 -1.7350  0.3366  0.5336
  105OSM      P10652   4.598   5.372  10.808  0.6033  0.1601  0.1615
  105OSM    O1310653   4.520   5.304  10.911  0.2451 -0.1733 -0.1429
  105OSM    O1410654   4.668   5.498  10.840 -0.1507  0.1406  0.2802
  105OSM    O1110655   4.509   5.390  10.681 -0.0967 -0.0758  0.4486
  105OSM    O1210656   4.702   5.271  10.758 -0.3911  0.1695 -0.3091
  105OSM    C1S10657   4.535   5.493  10.583 -0.0764  0.0051 -0.3345
  105OSM    H1S10658   4.615   5.562  10.617 -0.4923 -0.1226  0.9251
  105OSM    H1T10659   4.450   5.564  10.574  1.0931  1.4596 -0.3307
  105OSM     NF10660   4.615   5.547  10.361  0.0327  0.1362  0.4156
  105OSM    HNF10661   4.556   5.603  10.304  1.6327  0.7241 -0.7350
  105OSM    C2S10662   4.566   5.432  10.443 -0.3737  0.2931  0.1217
  105OSM    H2S10663   4.641   5.351  10.453 -0.2661  0.1834 -1.3723
  105OSM    C3S10664   4.448   5.357  10.383  0.6011 -0.3405  0.4570
  105OSM    H3S10665   4.361   5.423  10.363  0.7080 -1.0552 -3.0146
  105OSM     O310666   4.389   5.258  10.471  0.3787 -0.1963 -0.5312
  105OSM    HO310667   4.445   5.257  10.549 -0.7080 -1.3854  0.2726
  105OSM    C4S10668   4.488   5.313  10.245 -0.3023 -0.6674 -0.3569
  105OSM    H4S10669   4.489   5.396  10.173  2.3536  1.2800  1.6853
  105OSM    C5S10670   4.554   5.200  10.213  0.3798 -0.9021 -0.1930
  105OSM    H5S10671   4.574   5.123  10.289  0.5430  0.5282  1.2622
  105OSM    C6S10672   4.604   5.167  10.068 -0.1953  0.8213 -0.8087
  105OSM    H6S10673   4.590   5.057  10.057  1.3682  0.2043  2.2964
  105OSM    H6T10674   4.714   5.171  10.053 -0.3947 -0.7590 -3.4111
  105OSM    C7S10675   4.532   5.243   9.950 -0.3043  0.0867 -0.2646
  105OSM    H7S10676   4.554   5.351   9.938 -3.2557  0.6125 -2.0258
  105OSM    H7T10677   4.424   5.224   9.964  0.0300 -1.5490  0.2767
  105OSM    C8S10678   4.551   5.184   9.807  0.0307 -0.1478 -0.4635
  105OSM    H8S10679   4.490   5.251   9.742 -1.0520 -0.4207  0.2450
  105OSM    H8T10680   4.516   5.079   9.804  0.6248 -0.3672  0.0207
  105OSM    C9S10681   4.700   5.188   9.756  0.1033  0.1752 -0.4623
  105OSM    H9S10682   4.770   5.124   9.815  0.9627  2.0111  0.5999
  105OSM    H9T10683   4.745   5.288   9.773  0.6688 -0.1698  0.1104
  105OSM   C10S10684   4.712   5.132   9.614  0.3904 -0.0521 -0.4501
  105OSM   H10S10685   4.674   5.028   9.610 -0.9782  0.3789  0.5000
  105OSM   H10T10686   4.822   5.121   9.605  0.4285 -0.6099  0.5673
  105OSM   C11S10687   4.665   5.226   9.500  0.1731  0.5556  0.8395
  105OSM   H11S10688   4.733   5.313   9.513  0.0855  0.3704  2.8465
  105OSM   H11T10689   4.556   5.242   9.513 -0.4266 -0.6041 -1.9249
  105OSM   C12S10690   4.678   5.158   9.362  0.0048  0.6845 -0.4632
  105OSM   H12S10691   4.593   5.088   9.347  0.0322  0.2770  1.1124
  105OSM   H12T10692   4.768   5.095   9.348 -2.0592 -2.5341 -0.2700
  105OSM   C13S10693   4.690   5.256   9.244 -0.0765  0.8553 -0.5092
  105OSM   H13S10694   4.778   5.323   9.251 -0.1701  0.7983  2.2077
  105OSM   H13T10695   4.604   5.327   9.246 -1.6962 -0.9923 -1.2233
  105OSM   C14S10696   4.695   5.173   9.120 -0.1425  0.4083 -0.5045
  105OSM   H14S10697   4.601   5.116   9.107  0.7670 -2.0503  2.5778
  105OSM   H14T10698   4.782   5.105   9.131 -0.6353 -0.2080 -0.4059
  105OSM   C15S10699   4.727   5.241   8.989  0.1219 -0.0453  0.4948
  105OSM   H15S10700   4.833   5.276   8.990  0.2425 -0.3797 -0.1360
  105OSM   H15T10701   4.647   5.318   8.986 -0.9784 -1.1793 -1.0196
  105OSM   C16S10702   4.699   5.149   8.868 -0.5988  0.6660  0.1476
  105OSM   H16S10703   4.612   5.081   8.879  0.5270 -1.2168 -1.8159
  105OSM   H16T10704   4.794   5.093   8.866 -0.1769  1.3267 -2.9278
  105OSM   C17S10705   4.672   5.212   8.732 -0.8776  0.5909 -0.3736
  105OSM   H17S10706   4.574   5.265   8.740 -0.5786  0.9791  0.7977
  105OSM   H17T10707   4.660   5.130   8.657 -1.8500  0.2022  0.1928
  105OSM   C18S10708   4.777   5.312   8.681 -0.1527 -0.3701 -0.4685
  105OSM   H18S10709   4.742   5.378   8.599  1.1621 -1.5175 -2.0203
  105OSM   H18T10710   4.869   5.254   8.655  1.2758  0.1755  2.8035
  105OSM   H18U10711   4.796   5.370   8.774 -2.3404 -2.4784  1.4327
  105OSM    C1F10712   4.739   5.599  10.374  0.2077  0.3916  0.0210
  105OSM     OF10713   4.823   5.565  10.457 -0.1221  0.3259  0.7030
  105OSM    C2F10714   4.767   5.707  10.273  0.3415  0.3196 -0.5286
  105OSM    H2F10715   4.724   5.797  10.321  1.2419  0.0466  0.8420
  105OSM    H2G10716   4.704   5.683  10.184 -0.0879 -0.5484 -0.0024
  105OSM    C3F10717   4.912   5.709  10.232  0.2166 -0.0297 -0.6411
  105OSM    H3F10718   4.982   5.724  10.317 -0.3430 -0.6747 -0.0552
  105OSM    H3G10719   4.931   5.802  10.174  1.1712  0.6028  0.6255
  105OSM    C4F10720   4.952   5.589  10.145  0.5054 -0.1757  0.0776
  105OSM    H4F10721   4.889   5.503  10.178  0.9231  0.3087  2.2694
  105OSM    H4G10722   5.058   5.561  10.160  1.0080  0.5500 -1.8140
  105OSM    C5F10723   4.922   5.632  10.003  0.7217 -0.0330 -0.3474
  105OSM    H5F10724   5.003   5.703   9.978  0.8999 -0.6193 -1.4854
  105OSM    H5G10725   4.821   5.678   9.997  1.1237  0.6839 -2.7999
  105OSM    C6F10726   4.929   5.513   9.899  0.3178  0.1256  0.5182
  105OSM    H6F10727   4.885   5.424   9.948  0.1414  0.8173  1.6654
  105OSM    H6G10728   5.031   5.480   9.868  0.5328 -1.3978  2.6456
  105OSM    C7F10729   4.849   5.548   9.771 -0.0047 -1.1727  0.4265
  105OSM    H7F10730   4.740   5.563   9.790 -0.3322  0.2379 -2.1097
  105OSM    H7G10731   4.844   5.461   9.702 -0.1935  0.0411 -1.1491
  105OSM    C8F10732   4.918   5.651   9.683  0.2304 -0.6853 -0.0083
  105OSM    H8F10733   4.934   5.747   9.738 -0.6592 -0.7637  0.4096
  105OSM    H8G10734   4.850   5.677   9.599 -1.1591 -0.6580  1.0970
  105OSM    C9F10735   5.055   5.609   9.627 -0.4219  0.2947  0.8688
  105OSM    H9F10736   5.141   5.652   9.680 -1.0158  1.6902  0.7689
  105OSM   C10F10737   5.069   5.534   9.515 -0.3662  0.2884 -0.1339
  105OSM   H10F10738   5.171   5.517   9.479 -0.1636 -0.9971  0.9755
  105OSM   C11F10739   4.959   5.484   9.425  0.1099  0.3731 -0.2421
  105OSM   H11F10740   4.868   5.457   9.483  1.4667 -0.2531  1.7180
  105OSM   H11G10741   4.994   5.389   9.379  0.8135 -0.4414  1.8308
  105OSM   C12F10742   4.920   5.589   9.319  0.6153 -0.1908  0.2503
  105OSM   H12F10743   4.890   5.675   9.383 -1.8091 -1.9206  1.5775
  105OSM   H12G10744   4.821   5.561   9.278  0.9106 -2.2188  0.8212
  105OSM   C13F10745   5.015   5.630   9.210 -0.9024  0.1198 -0.2027
  105OSM   H13F10746   5.111   5.664   9.254 -2.3650  1.3267  2.2620
  105OSM   H13G10747   4.967   5.705   9.143 -4.3961  0.3274  2.2485
  105OSM   C14F10748   5.037   5.508   9.116 -0.3324  0.2689 -0.4481
  105OSM   H14F10749   4.937   5.486   9.072 -0.1396 -0.2516 -0.6301
  105OSM   H14G10750   5.070   5.419   9.173  0.5154  0.3425 -0.8058
  105OSM   C15F10751   5.123   5.548   8.994 -0.0161 -0.3941  0.3914
  105OSM   H15F10752   5.225   5.577   9.028 -1.1842  1.4308  2.6023
  105OSM   H15G10753   5.071   5.642   8.966 -0.6178 -1.2971 -1.6694
  105OSM   C16F10754   5.120   5.436   8.894 -0.6687 -0.4906  0.4223
  105OSM   H16F10755   5.012   5.429   8.866 -0.8124  2.2878 -0.0003
  105OSM   H16G10756   5.157   5.350   8.954  0.7180 -0.6947 -0.6991
  105OSM   C17F10757   5.201   5.456   8.770 -0.4097 -0.1998  0.1351
  105OSM   H17F10758   5.307   5.475   8.798 -1.0288  2.0675  1.1741
  105OSM   H17G10759   5.167   5.540   8.706  0.2888 -0.3670 -0.4612
  105OSM   C18F10760   5.197   5.317   8.698 -0.2375 -0.0457 -0.2421
  105OSM   H18F10761   5.221   5.235   8.768  0.2116  1.9208  2.0444
  105OSM   H18G10762   5.277   5.328   8.621 -0.5590  2.1678 -0.3474
  105OSM   H18H10763   5.093   5.315   8.660 -0.1851  0.1697 -0.4013
  106OSM      N10764   4.514   4.137  10.888 -0.3667  0.1391 -0.9366
  106OSM    C1510765   4.520   4.282  10.847  0.5912  0.6347 -0.7060
  106OSM   H15A10766   4.440   4.333  10.898 -0.5859 -2.1859  0.4110
  106OSM   H15B10767   4.506   4.293  10.740 -1.1426  0.4330 -0.5167
  106OSM   H15C10768   4.619   4.311  10.880  0.6925  0.1408 -0.5705
  106OSM    C1410769   4.624   4.078  10.811 -0.3925  0.4257  0.4469
  106OSM   H14A10770   4.608   4.079  10.705 -0.4594 -3.7782  0.2247
  106OSM   H14B10771   4.647   3.975  10.837  1.7666  0.6149 -0.5258
  106OSM   H14C10772   4.718   4.128  10.827 -0.0044 -0.1286 -0.0889
  106OSM    C1310773   4.542   4.135  11.037 -0.3717 -0.3804 -0.7366
  106OSM   H13A10774   4.539   4.034  11.075 -1.5590 -0.1309 -0.0940
  106OSM   H13B10775   4.491   4.205  11.102  1.7590 -0.6738  1.4212
  106OSM   H13C10776   4.644   4.154  11.068 -0.3834 -0.6014 -0.5620
  106OSM    C1210777   4.383   4.067  10.858  0.0916 -0.6282 -0.5556
  106OSM   H12A10778   4.390   3.965  10.895  3.2546  0.1104  1.2688
  106OSM   H12B10779   4.372   4.066  10.751  0.4904 -1.2963 -0.5984
  106OSM    C1110780   4.252   4.125  10.910 -0.2898 -0.6849 -0.1110
  106OSM   H11A10781   4.256   4.137  11.021  0.8006  1.5630 -0.3509
  106OSM   H11B10782   4.178   4.044  10.893  0.8623 -1.7995  0.0487
  106OSM      P10783   4.149   4.240  10.696 -0.0725  0.2309 -0.0821
  106OSM    O1310784   4.025   4.160  10.692 -0.1561 -0.4143  0.1377
  106OSM    O1410785   4.143   4.382  10.652  0.5871  0.4926  0.2974
  106OSM    O1110786   4.258   4.164  10.616  0.0544  0.3446 -0.4478
  106OSM    O1210787   4.210   4.246  10.847  0.0721  0.7647  0.1049
  106OSM    C1S10788   4.224   4.074  10.513  0.3185  0.0766  0.3148
  106OSM    H1S10789   4.114   4.069  10.499  0.4466  0.3688 -0.8830
  106OSM    H1T10790   4.272   3.978  10.543 -1.5713 -0.3936  2.1237
  106OSM     NF10791   4.224   4.033  10.274  0.3444  0.4343  0.2298
  106OSM    HNF10792   4.273   3.951  10.244  1.5110  1.2137 -0.0754
  106OSM    C2S10793   4.288   4.119  10.373 -0.7909  0.7250 -0.3672
  106OSM    H2S10794   4.259   4.226  10.369 -2.7453  0.2128 -1.1884
  106OSM    C3S10795   4.443   4.103  10.382  0.2012  0.2557 -0.0573
  106OSM    H3S10796   4.458   3.994  10.396 -1.4791  0.0455  0.3303
  106OSM     O310797   4.516   4.169  10.491  0.3792 -0.4337  0.2064
  106OSM    HO310798   4.446   4.209  10.542  0.4369 -2.1196  1.6938
  106OSM    C4S10799   4.504   4.143  10.246 -0.3753  0.1371 -0.0574
  106OSM    H4S10800   4.506   4.065  10.169 -0.1570  1.4256 -1.4120
  106OSM    C5S10801   4.548   4.266  10.216  0.8450  0.0074 -0.1693
  106OSM    H5S10802   4.531   4.350  10.285 -1.2040  0.1870 -0.8497
  106OSM    C6S10803   4.586   4.306  10.083  1.0453  0.3934  0.3727
  106OSM    H6S10804   4.511   4.375  10.039  0.8203  0.9864  1.6288
  106OSM    H6T10805   4.575   4.213  10.022 -1.1844  1.2403 -0.6179
  106OSM    C7S10806   4.721   4.363  10.064  0.0554 -0.2625 -0.3480
  106OSM    H7S10807   4.795   4.297  10.114  1.6222  1.2833 -0.5181
  106OSM    H7T10808   4.733   4.459  10.119  2.2215  0.3146 -1.6888
  106OSM    C8S10809   4.755   4.395   9.915  0.6769 -0.5900 -0.1293
  106OSM    H8S10810   4.700   4.488   9.890  0.0691 -0.7174  0.6956
  106OSM    H8T10811   4.716   4.313   9.851 -2.7669  1.3299 -0.7448
  106OSM    C9S10812   4.905   4.419   9.872  0.0763 -0.3669  0.2744
  106OSM    H9S10813   4.967   4.349   9.931 -1.9964 -1.8666  0.8211
  106OSM    H9T10814   4.930   4.520   9.910 -0.9708  0.0291 -0.0378
  106OSM   C10S10815   4.910   4.412   9.724  0.0240 -0.8622  0.5713
  106OSM   H10S10816   4.860   4.502   9.683 -0.5566 -0.5864  1.8259
  106OSM   H10T10817   4.855   4.326   9.681 -0.7436  1.1479 -2.8402
  106OSM   C11S10818   5.060   4.436   9.681  0.9469  0.4422  0.2695
  106OSM   H11S10819   5.133   4.367   9.729  1.9400  1.5754  0.4413
  106OSM   H11T10820   5.089   4.539   9.708  0.0541  0.7179  0.1938
  106OSM   C12S10821   5.099   4.427   9.532 -0.5333 -0.3047 -0.1796
  106OSM   H12S10822   5.022   4.471   9.465 -0.0547 -0.7858 -1.0574
  106OSM   H12T10823   5.119   4.321   9.503 -0.9882 -0.6174  0.5995
  106OSM   C13S10824   5.226   4.505   9.498  0.4383  0.2763 -0.0841
  106OSM   H13S10825   5.309   4.467   9.562 -0.2868  0.3359  0.9144
  106OSM   H13T10826   5.210   4.612   9.521 -2.1294  0.0895 -0.7124
  106OSM   C14S10827   5.263   4.490   9.353  0.6524  0.0533  0.4581
  106OSM   H14S10828   5.168   4.527   9.308  0.3280 -0.4809  0.6964
  106OSM   H14T10829   5.272   4.381   9.337 -0.0268 -0.0453  0.6931
  106OSM   C15S10830   5.374   4.584   9.307 -0.4253 -0.3584 -0.2211
  106OSM   H15S10831   5.463   4.590   9.373  0.1281  1.1071 -1.0750
  106OSM   H15T10832   5.344   4.690   9.312  2.3297  0.4623  0.9720
  106OSM   C16S10833   5.428   4.566   9.172  0.5519  0.2039  0.3100
  106OSM   H16S10834   5.485   4.652   9.131  0.4665  0.1672  0.1151
  106OSM   H16T10835   5.339   4.548   9.107  0.0803  0.1237  0.9659
  106OSM   C17S10836   5.521   4.440   9.164  0.1023 -0.0777  0.0462
  106OSM   H17S10837   5.466   4.351   9.203 -2.1820  0.2791 -2.0985
  106OSM   H17T10838   5.593   4.463   9.245  1.7780  0.7267 -1.5841
  106OSM   C18S10839   5.582   4.415   9.028 -0.1255 -0.1578 -0.6175
  106OSM   H18S10840   5.629   4.315   9.015  0.2424  0.0131 -0.6032
  106OSM   H18T10841   5.656   4.497   9.016 -1.5009  1.1301 -0.5932
  106OSM   H18U10842   5.509   4.430   8.946 -1.6417 -1.6832  0.3781
  106OSM    C1F10843   4.100   4.053  10.237 -0.0663 -1.1307 -0.2229
  106OSM     OF10844   4.043   4.161  10.270 -0.0936 -0.1425 -0.1007
  106OSM    C2F10845   4.025   3.943  10.174  0.0688  0.0173  0.3128
  106OSM    H2F10846   3.954   3.899  10.247  0.6094 -4.2736 -1.4518
  106OSM    H2G10847   4.106   3.871  10.152  0.7535  1.3423 -1.7857
  106OSM    C3F10848   3.971   3.982  10.036 -0.3997 -0.1337 -0.4175
  106OSM    H3F10849   4.054   3.969   9.963 -1.0779  1.3407 -1.5072
  106OSM    H3G10850   3.940   4.088  10.047 -0.4299 -0.1022 -0.7826
  106OSM    C4F10851   3.855   3.896   9.997 -0.2776 -0.3459 -0.2420
  106OSM    H4F10852   3.783   3.901  10.082  2.6414 -0.2194  2.3943
  106OSM    H4G10853   3.896   3.793   9.994  0.7342 -0.0998  2.4364
  106OSM    C5F10854   3.790   3.941   9.867 -0.1984  0.1585 -0.0878
  106OSM    H5F10855   3.761   4.047   9.855  0.4261  0.2231 -1.1843
  106OSM    H5G10856   3.694   3.885   9.860 -0.2440  0.2484 -0.1834
  106OSM    C6F10857   3.888   3.920   9.746 -0.4394  0.5532 -0.9811
  106OSM    H6F10858   3.930   3.817   9.751 -0.8891  0.3129 -2.0237
  106OSM    H6G10859   3.976   3.986   9.760  0.4944 -0.9380  0.4594
  106OSM    C7F10860   3.828   3.955   9.609 -0.4005  0.6748 -0.2972
  106OSM    H7F10861   3.919   3.977   9.548 -0.0532 -0.1792 -0.1003
  106OSM    H7G10862   3.766   4.047   9.620 -1.8182 -0.5208  3.0789
  106OSM    C8F10863   3.747   3.842   9.542 -0.8117 -0.3234  1.5593
  106OSM    H8F10864   3.662   3.811   9.607 -1.7068 -1.8587 -0.2479
  106OSM    H8G10865   3.823   3.761   9.533 -0.5829  0.0550 -0.3503
  106OSM    C9F10866   3.699   3.892   9.405  1.1037  0.0098 -0.8303
  106OSM    H9F10867   3.591   3.913   9.398  0.9045 -1.1734 -1.6563
  106OSM   C10F10868   3.769   3.883   9.288  0.5875 -0.6528 -0.6429
  106OSM   H10F10869   3.722   3.909   9.192  0.6945 -0.8258 -0.7432
  106OSM   C11F10870   3.898   3.814   9.261  0.1961 -0.1522 -0.4166
  106OSM   H11F10871   3.963   3.806   9.351 -1.1080 -2.1267  0.3976
  106OSM   H11G10872   3.954   3.871   9.184 -0.7935 -2.1742 -2.7373
  106OSM   C12F10873   3.889   3.671   9.207  0.3616  0.3928  0.4503
  106OSM   H12F10874   3.851   3.617   9.296 -3.1032  2.6375  0.5565
  106OSM   H12G10875   3.995   3.641   9.193  0.4217 -0.2932  2.1273
  106OSM   C13F10876   3.813   3.655   9.068 -0.4870 -0.6977  0.4308
  106OSM   H13F10877   3.852   3.728   8.994  3.7557 -1.1070  2.0033
  106OSM   H13G10878   3.707   3.679   9.093 -0.4889  1.3105 -1.2186
  106OSM   C14F10879   3.835   3.521   8.995  0.0824 -0.0215  0.1034
  106OSM   H14F10880   3.787   3.442   9.058  0.7814 -0.0792  0.5696
  106OSM   H14G10881   3.944   3.504   8.999 -0.0442 -1.2723 -0.8313
  106OSM   C15F10882   3.770   3.508   8.857  0.2660 -0.6539 -0.6778
  106OSM   H15F10883   3.818   3.584   8.792 -0.3868 -0.7398 -1.2711
  106OSM   H15G10884   3.661   3.526   8.865  0.0460 -0.7541 -2.7565
  106OSM   C16F10885   3.802   3.376   8.786  0.1145  0.2302  0.4931
  106OSM   H16F10886   3.770   3.290   8.848  2.1056 -1.7912 -1.0888
  106OSM   H16G10887   3.910   3.358   8.764  0.0008 -1.5364  1.2297
  106OSM   C17F10888   3.723   3.353   8.656  0.2159 -0.2878  0.0478
  106OSM   H17F10889   3.616   3.372   8.680  0.1112 -2.3131  1.5175
  106OSM   H17G10890   3.731   3.248   8.621  0.3361  0.0211 -0.8604
  106OSM   C18F10891   3.782   3.441   8.548  0.2248  0.4629  0.2271
  106OSM   H18F10892   3.720   3.436   8.456 -1.3385  1.0731  1.2052
  106OSM   H18G10893   3.887   3.418   8.522 -0.2436 -1.1656 -0.3429
  106OSM   H18H10894   3.781   3.549   8.574 -0.8676  0.7648 -0.9709
  107OSM      N10895   6.611   3.143  11.234  0.3526  0.3708 -0.5392
  107OSM    C1510896   6.640   3.079  11.365 -0.2742 -0.3242 -0.2784
  107OSM   H15A10897   6.548   3.036  11.403 -0.7126  0.9444  0.1708
  107OSM   H15B10898   6.656   3.156  11.439 -0.0012 -2.1214  1.6315
  107OSM   H15C10899   6.716   3.003  11.358  1.3498  1.1857  0.1728
  107OSM    C1410900   6.484   3.222  11.232 -0.9337  0.2283 -0.0541
  107OSM   H14A10901   6.484   3.288  11.147  0.6003 -1.9611 -1.8481
  107OSM   H14B10902   6.460   3.280  11.321  0.0183 -1.4909  1.3973
  107OSM   H14C10903   6.399   3.161  11.208 -0.5637 -0.5293  0.5171
  107OSM    C1310904   6.723   3.236  11.206  0.1028 -0.3735  0.5028
  107OSM   H13A10905   6.818   3.185  11.214  0.0742 -0.3211  1.2534
  107OSM   H13B10906   6.720   3.314  11.281  0.4200 -2.4368  2.8019
  107OSM   H13C10907   6.718   3.279  11.107  0.9759 -0.9183  0.2061
  107OSM    C1210908   6.590   3.043  11.127 -0.8509  0.2866 -0.1170
  107OSM   H12A10909   6.566   3.093  11.034  0.7445  0.4057 -0.4960
  107OSM   H12B10910   6.503   2.985  11.153  0.2078 -1.2545  0.1396
  107OSM    C1110911   6.698   2.947  11.100  0.1207  0.1954 -0.0740
  107OSM   H11A10912   6.700   2.878  11.187  0.0357 -1.2097 -1.1556
  107OSM   H11B10913   6.795   2.999  11.090 -0.8593  1.5904 -3.6196
  107OSM      P10914   6.559   2.753  10.995  0.5944  0.2763 -0.3307
  107OSM    O1310915   6.603   2.648  11.093 -0.6976  0.4476  0.3312
  107OSM    O1410916   6.427   2.807  11.030 -0.2137 -0.0621  0.8724
  107OSM    O1110917   6.566   2.694  10.851 -0.7523  0.0772  0.6349
  107OSM    O1210918   6.666   2.874  10.980 -0.7228  0.1433 -0.3197
  107OSM    C1S10919   6.505   2.765  10.736 -0.1654 -0.6466 -0.2649
  107OSM    H1S10920   6.521   2.875  10.745  1.1841 -0.4871 -3.3667
  107OSM    H1T10921   6.395   2.752  10.739 -0.2206 -0.4885  3.6460
  107OSM     NF10922   6.512   2.808  10.504  0.5775 -0.4898 -0.6295
  107OSM    HNF10923   6.425   2.792  10.458 -1.9708  0.2802  3.4255
  107OSM    C2S10924   6.553   2.714  10.602 -0.4638 -0.1300  0.3973
  107OSM    H2S10925   6.664   2.712  10.597 -0.5212 -1.1498 -0.8188
  107OSM    C3S10926   6.488   2.573  10.589 -0.0578  0.4673 -0.5410
  107OSM    H3S10927   6.379   2.588  10.603 -0.0252 -0.8533  1.3745
  107OSM     O310928   6.528   2.491  10.691 -0.5654  0.3834  0.4563
  107OSM    HO310929   6.538   2.554  10.762 -0.2901  1.2214 -0.3093
  107OSM    C4S10930   6.518   2.503  10.457 -0.1176  0.1741 -0.3558
  107OSM    H4S10931   6.434   2.440  10.424 -0.2613  0.2691 -0.1714
  107OSM    C5S10932   6.640   2.502  10.395  0.1210 -0.2106 -0.1368
  107OSM    H5S10933   6.730   2.550  10.437 -0.3267  0.3972  0.1431
  107OSM    C6S10934   6.670   2.432  10.266  0.0603  0.1769 -0.1324
  107OSM    H6S10935   6.730   2.338  10.262  0.0821  0.2255 -1.1802
  107OSM    H6T10936   6.736   2.498  10.207  0.3465  1.6583  1.7615
  107OSM    C7S10937   6.558   2.391  10.166  0.2293 -0.0232 -0.1897
  107OSM    H7S10938   6.515   2.489  10.138 -0.3564  1.1325  4.0623
  107OSM    H7T10939   6.471   2.341  10.215 -0.0204 -1.2709 -1.8145
  107OSM    C8S10940   6.600   2.303  10.041  0.8832 -0.4293  0.1723
  107OSM    H8S10941   6.637   2.201  10.067  0.8896 -0.2558  0.8444
  107OSM    H8T10942   6.685   2.354   9.992  0.4575  0.3680  0.2498
  107OSM    C9S10943   6.491   2.286   9.932 -0.3233  0.8875 -0.8615
  107OSM    H9S10944   6.429   2.379   9.936  1.2615  1.9467  2.1586
  107OSM    H9T10945   6.414   2.213   9.966  1.0878 -2.6360 -4.4309
  107OSM   C10S10946   6.547   2.241   9.795  0.4773  0.5883  0.6984
  107OSM   H10S10947   6.604   2.147   9.810 -1.5880 -0.9540 -0.5241
  107OSM   H10T10948   6.613   2.322   9.759  1.0866 -0.1215  0.1864
  107OSM   C11S10949   6.422   2.204   9.708  0.2448 -0.8739  0.6546
  107OSM   H11S10950   6.356   2.291   9.722  0.6745 -0.7456  2.0115
  107OSM   H11T10951   6.368   2.115   9.747 -2.1456  0.3474  0.2602
  107OSM   C12S10952   6.460   2.201   9.561 -0.3156  0.1802 -0.2142
  107OSM   H12S10953   6.548   2.136   9.547  1.0022  2.3517 -2.9295
  107OSM   H12T10954   6.493   2.304   9.535  1.2040 -0.4035 -0.7167
  107OSM   C13S10955   6.342   2.170   9.464  0.1362 -0.5186  0.2467
  107OSM   H13S10956   6.274   2.258   9.468 -0.9448 -1.3669  0.8510
  107OSM   H13T10957   6.278   2.084   9.494 -1.0764 -0.9160 -3.0940
  107OSM   C14S10958   6.389   2.148   9.310 -0.5804  0.2245 -0.1537
  107OSM   H14S10959   6.466   2.068   9.308  0.9217  1.6272 -1.2368
  107OSM   H14T10960   6.447   2.238   9.282 -0.3643  0.5418  1.2327
  107OSM   C15S10961   6.272   2.137   9.214  0.0767  0.1871 -0.3889
  107OSM   H15S10962   6.188   2.204   9.240  0.7647  1.5365 -1.5101
  107OSM   H15T10963   6.229   2.034   9.208  1.8639 -0.5437 -1.6216
  107OSM   C16S10964   6.305   2.181   9.060  0.0733  0.1370 -0.3066
  107OSM   H16S10965   6.379   2.107   9.024 -0.7605 -0.2606 -1.2391
  107OSM   H16T10966   6.338   2.286   9.073 -0.2975  0.3697 -1.1740
  107OSM   C17S10967   6.185   2.180   8.969  0.0587 -0.0902 -0.2449
  107OSM   H17S10968   6.092   2.202   9.025  0.3590 -0.8465  0.5818
  107OSM   H17T10969   6.171   2.075   8.935  0.0723 -0.0617 -0.3370
  107OSM   C18S10970   6.193   2.265   8.844 -0.7363  0.4341 -0.0113
  107OSM   H18S10971   6.248   2.208   8.765  0.6690 -0.1528  1.3278
  107OSM   H18T10972   6.224   2.370   8.863 -0.8031  1.3066 -3.8129
  107OSM   H18U10973   6.092   2.266   8.798 -0.3361 -0.9384 -1.0122
  107OSM    C1F10974   6.574   2.928  10.494  0.5069  0.2694  0.4382
  107OSM     OF10975   6.678   2.946  10.554  0.5396 -0.3752 -0.1356
  107OSM    C2F10976   6.506   3.034  10.408 -0.1853  1.0239  0.1531
  107OSM    H2F10977   6.512   3.133  10.458 -0.1350  2.2213 -2.0591
  107OSM    H2G10978   6.398   3.014  10.394  0.0634  0.3928 -1.0440
  107OSM    C3F10979   6.581   3.050  10.268  0.4304  0.0355  0.1486
  107OSM    H3F10980   6.687   3.069  10.295  0.2171 -0.3413  1.3133
  107OSM    H3G10981   6.537   3.140  10.220 -0.5108 -1.4605 -1.9783
  107OSM    C4F10982   6.564   2.930  10.163 -0.2186  0.0101 -0.3266
  107OSM    H4F10983   6.458   2.906  10.142 -0.5286  0.3904  0.7282
  107OSM    H4G10984   6.604   2.844  10.222 -1.3993 -0.0490  0.4219
  107OSM    C5F10985   6.636   2.949  10.029  0.2624 -0.0747 -0.3444
  107OSM    H5F10986   6.742   2.971  10.054  0.1860 -0.7304  0.6255
  107OSM    H5G10987   6.583   3.041   9.997 -2.7862 -0.7301  2.3644
  107OSM    C6F10988   6.625   2.826   9.933 -0.5786  0.2712 -0.7144
  107OSM    H6F10989   6.521   2.816   9.894 -0.0488  1.3275 -2.5453
  107OSM    H6G10990   6.667   2.731   9.973  2.0644  1.2973 -0.8635
  107OSM    C7F10991   6.699   2.860   9.793  0.5447 -0.3843 -0.3662
  107OSM    H7F10992   6.772   2.943   9.798  0.5805 -0.4702  0.7793
  107OSM    H7G10993   6.623   2.894   9.719  1.6773  3.1220 -0.1225
  107OSM    C8F10994   6.768   2.732   9.743  0.1660 -0.7444  0.8457
  107OSM    H8F10995   6.832   2.685   9.821  1.5275  1.0125  0.8512
  107OSM    H8G10996   6.841   2.758   9.664 -1.6427 -0.7569 -0.9147
  107OSM    C9F10997   6.675   2.624   9.691  0.4856 -1.0635 -0.3306
  107OSM    H9F10998   6.609   2.585   9.770 -1.0882  1.5376 -0.2423
  107OSM   C10F10999   6.656   2.591   9.563 -0.4303 -0.1218  1.0748
  107OSM   H10F11000   6.572   2.523   9.538 -0.2765 -1.1505  3.1385
  107OSM   C11F11001   6.732   2.648   9.443  0.0630  0.5135  0.0650
  107OSM   H11F11002   6.822   2.708   9.468  1.9260 -1.2145 -2.1014
  107OSM   H11G11003   6.673   2.705   9.368  0.4765 -2.5201 -2.7912
  107OSM   C12F11004   6.781   2.530   9.351 -0.3270 -0.8193  0.0477
  107OSM   H12F11005   6.834   2.459   9.418 -0.4312  0.4199  1.4950
  107OSM   H12G11006   6.849   2.561   9.269  1.1887 -0.2404  1.4799
  107OSM   C13F11007   6.672   2.468   9.262 -0.2837 -0.1388  0.0625
  107OSM   H13F11008   6.632   2.544   9.192  0.0314  0.3116  0.3720
  107OSM   H13G11009   6.589   2.432   9.327 -0.6121 -0.4368 -0.5126
  107OSM   C14F11010   6.722   2.358   9.173 -0.5568 -0.0635 -0.3482
  107OSM   H14F11011   6.792   2.402   9.099  0.8193  0.7767  1.3558
  107OSM   H14G11012   6.634   2.314   9.123 -0.6762 -2.9356  2.0959
  107OSM   C15F11013   6.791   2.239   9.237  0.1108 -0.3088 -0.8699
  107OSM   H15F11014   6.770   2.240   9.346  1.5728 -1.2173 -0.5509
  107OSM   H15G11015   6.899   2.258   9.218  0.2498  0.6788  0.6575
  107OSM   C16F11016   6.744   2.103   9.183  0.2228 -0.5226  0.0341
  107OSM   H16F11017   6.776   2.111   9.077  0.1966 -1.3385 -0.0391
  107OSM   H16G11018   6.634   2.089   9.178  0.4797 -3.8403  1.4304
  107OSM   C17F11019   6.816   1.985   9.254 -0.1251 -0.5324 -0.2595
  107OSM   H17F11020   6.924   1.997   9.233 -0.6205 -1.5993 -4.1730
  107OSM   H17G11021   6.791   1.896   9.193  0.4703  1.0281 -2.9605
  107OSM   C18F11022   6.779   1.967   9.398  0.6117  0.1279  0.1221
  107OSM   H18F11023   6.670   1.946   9.409  0.4664  0.6867 -0.1818
  107OSM   H18G11024   6.799   2.058   9.458  2.0056 -0.3187  0.3650
  107OSM   H18H11025   6.828   1.883   9.451 -0.0713  0.4395  1.2859
  108OSM      N11026   3.990   2.781  10.910  0.5384 -0.1659 -0.4436
  108OSM    C1511027   3.915   2.731  11.032  0.4477  0.3923  0.0799
  108OSM   H15A11028   3.871   2.821  11.074 -3.2928 -1.1810 -0.0330
  108OSM   H15B11029   3.975   2.678  11.104  0.8054 -0.6465 -0.9533
  108OSM   H15C11030   3.831   2.668  11.006  1.7008 -2.0069  1.5493
  108OSM    C1411031   4.068   2.897  10.958  0.6045  0.6517  0.0463
  108OSM   H14A11032   4.136   2.929  10.880  3.3837 -2.7766  0.8413
  108OSM   H14B11033   4.128   2.862  11.040  0.1855  0.4155  0.2581
  108OSM   H14C11034   4.013   2.986  10.986 -0.2030 -0.0657  0.7899
  108OSM    C1311035   4.087   2.682  10.852  0.3719 -0.0002  0.9365
  108OSM   H13A11036   4.166   2.658  10.922  0.6372 -0.4875  0.4762
  108OSM   H13B11037   4.120   2.708  10.753 -0.6944  0.7939  0.7800
  108OSM   H13C11038   4.042   2.587  10.826  1.2871  0.2422 -1.8675
  108OSM    C1211039   3.880   2.814  10.804 -0.4629 -0.1011  0.1917
  108OSM   H12A11040   3.819   2.889  10.850 -2.1715 -1.9275  1.0586
  108OSM   H12B11041   3.820   2.728  10.778 -0.0902 -1.1785  2.5747
  108OSM    C1111042   3.933   2.870  10.669  0.4713  0.5733  0.5676
  108OSM   H11A11043   3.842   2.881  10.605 -0.4080 -1.7297  1.3335
  108OSM   H11B11044   3.999   2.799  10.615 -0.6920  0.8102 -1.2874
  108OSM      P11045   3.921   3.136  10.692  0.0792  0.3649  0.1167
  108OSM    O1311046   3.842   3.149  10.821 -0.7816 -0.3411 -0.2411
  108OSM    O1411047   4.016   3.245  10.664  0.4864 -0.4075  0.3943
  108OSM    O1111048   3.821   3.118  10.567  0.1222  0.5252 -0.1988
  108OSM    O1211049   3.996   2.993  10.691  0.3011 -0.9424  0.0540
  108OSM    C1S11050   3.764   3.226  10.491 -0.6401  0.6944  0.2589
  108OSM    H1S11051   3.835   3.311  10.490 -0.7945  0.8220  0.0235
  108OSM    H1T11052   3.674   3.267  10.541 -1.2030  0.9715 -0.9456
  108OSM     NF11053   3.712   3.297  10.260 -0.0769  0.2052 -0.0167
  108OSM    HNF11054   3.622   3.306  10.218 -0.6201  1.1522  1.2948
  108OSM    C2S11055   3.735   3.180  10.347  0.1610  0.1936  0.1578
  108OSM    H2S11056   3.817   3.114  10.312  0.7025  1.1522 -0.4516
  108OSM    C3S11057   3.605   3.095  10.345  0.3277 -0.0407 -0.6987
  108OSM    H3S11058   3.522   3.161  10.378  0.5973 -0.0967  0.1170
  108OSM     O311059   3.621   2.991  10.441  0.3713 -0.2743  0.1158
  108OSM    HO311060   3.689   3.015  10.504  1.6357 -0.5577 -1.0921
  108OSM    C4S11061   3.570   3.040  10.212  0.1894 -0.1187  0.1412
  108OSM    H4S11062   3.477   3.086  10.175 -0.3968 -1.1045  0.3480
  108OSM    C5S11063   3.630   2.934  10.148 -0.0313  0.2742  0.0511
  108OSM    H5S11064   3.707   2.887  10.212 -1.3345  0.5940  1.9304
  108OSM    C6S11065   3.590   2.881  10.011 -0.0036  0.1844 -1.2034
  108OSM    H6S11066   3.492   2.918   9.975  1.2158  1.6452 -3.1994
  108OSM    H6T11067   3.570   2.772  10.020  1.2800  0.0256 -0.0737
  108OSM    C7S11068   3.704   2.907   9.913  0.2760  0.0333  0.8363
  108OSM    H7S11069   3.797   2.853   9.940  1.1891  1.0533 -0.1958
  108OSM    H7T11070   3.719   3.017   9.911 -0.4154  0.1235  0.2475
  108OSM    C8S11071   3.666   2.865   9.769 -0.0074 -1.0367 -0.0620
  108OSM    H8S11072   3.573   2.921   9.746 -0.2722 -2.1071 -1.7426
  108OSM    H8T11073   3.627   2.762   9.760 -0.5949 -1.0465  2.0562
  108OSM    C9S11074   3.772   2.886   9.659  0.6251  0.6089  0.5885
  108OSM    H9S11075   3.840   2.799   9.654 -0.3913 -0.1313 -2.2486
  108OSM    H9T11076   3.837   2.974   9.676  2.0665 -0.2595 -0.2603
  108OSM   C10S11077   3.714   2.872   9.517  0.1509  0.0763  0.1664
  108OSM   H10S11078   3.799   2.893   9.448 -0.6799 -0.8750 -1.2142
  108OSM   H10T11079   3.635   2.948   9.500  0.2722 -0.4049 -3.2867
  108OSM   C11S11080   3.653   2.734   9.480 -0.2638 -0.3750 -0.4400
  108OSM   H11S11081   3.566   2.722   9.548  0.9964 -1.3758  1.0863
  108OSM   H11T11082   3.718   2.647   9.501  1.1352  0.3650 -1.4963
  108OSM   C12S11083   3.609   2.738   9.334 -0.1792 -0.1840 -0.2166
  108OSM   H12S11084   3.694   2.790   9.285 -2.4457  1.9883 -2.1104
  108OSM   H12T11085   3.523   2.808   9.325 -0.2664 -0.1028  1.0597
  108OSM   C13S11086   3.585   2.600   9.272 -0.0289  0.0925  0.8831
  108OSM   H13S11087   3.503   2.547   9.325  0.5901 -0.2756  1.4882
  108OSM   H13T11088   3.669   2.528   9.285  0.0393 -0.2762 -1.3256
  108OSM   C14S11089   3.558   2.597   9.117  0.4332 -0.5048 -0.4844
  108OSM   H14S11090   3.622   2.675   9.071  0.0106 -0.1401 -0.4518
  108OSM   H14T11091   3.454   2.625   9.094  1.2710  2.1902 -1.3264
  108OSM   C15S11092   3.581   2.450   9.059  0.5336 -0.6336  0.2851
  108OSM   H15S11093   3.511   2.383   9.112 -1.9212 -0.4702 -2.5243
  108OSM   H15T11094   3.686   2.420   9.082  0.3873 -0.6774  0.9324
  108OSM   C16S11095   3.558   2.470   8.910 -0.0369 -0.3902  0.4742
  108OSM   H16S11096   3.633   2.539   8.865 -1.0043 -0.4379 -1.3084
  108OSM   H16T11097   3.461   2.524   8.900 -0.2819 -0.7430  0.9267
  108OSM   C17S11098   3.561   2.333   8.836 -0.1074 -0.2134  0.3292
  108OSM   H17S11099   3.529   2.357   8.732 -3.8521 -0.4444  1.2928
  108OSM   H17T11100   3.503   2.253   8.885  1.9447 -1.7640  0.3323
  108OSM   C18S11101   3.703   2.280   8.830 -0.0072 -0.2000 -0.3465
  108OSM   H18S11102   3.708   2.186   8.771 -1.1326  0.5556 -1.7001
  108OSM   H18T11103   3.726   2.253   8.935  2.2285  0.9817 -0.4790
  108OSM   H18U11104   3.772   2.361   8.797  0.2182 -0.6225 -0.9292
  108OSM    C1F11105   3.812   3.385  10.240 -0.3887  0.2238  0.3870
  108OSM     OF11106   3.928   3.353  10.268  0.1495 -0.5188 -0.3830
  108OSM    C2F11107   3.770   3.515  10.180 -0.5614 -0.6719  0.1687
  108OSM    H2F11108   3.848   3.593  10.195 -0.9639 -0.2688  0.1828
  108OSM    H2G11109   3.692   3.545  10.253  0.3167 -1.5312  1.4940
  108OSM    C3F11110   3.734   3.509  10.026 -0.0879 -0.9347 -0.1640
  108OSM    H3F11111   3.699   3.612  10.001 -0.3193 -0.7101  0.9834
  108OSM    H3G11112   3.650   3.440  10.008 -2.1593  1.4627 -0.3081
  108OSM    C4F11113   3.852   3.471   9.935  0.5178 -0.1371  0.3199
  108OSM    H4F11114   3.901   3.373   9.954  1.3344  0.1187 -0.4324
  108OSM    H4G11115   3.921   3.555   9.955 -0.5776  1.0570 -0.7472
  108OSM    C5F11116   3.822   3.474   9.780  0.6295 -0.0717 -1.0573
  108OSM    H5F11117   3.916   3.486   9.723  0.9825  0.4480 -0.3781
  108OSM    H5G11118   3.770   3.569   9.757 -0.2412 -0.6137 -1.3928
  108OSM    C6F11119   3.740   3.349   9.734 -0.1902  0.9150  0.6148
  108OSM    H6F11120   3.650   3.340   9.798 -1.7637  1.3471 -1.4526
  108OSM    H6G11121   3.811   3.263   9.734  0.0290  1.0864  0.0068
  108OSM    C7F11122   3.676   3.366   9.593  0.1218  0.1241 -0.2325
  108OSM    H7F11123   3.614   3.458   9.591  1.8436  1.3356 -0.5864
  108OSM    H7G11124   3.608   3.282   9.572 -0.0519  0.7729 -2.5323
  108OSM    C8F11125   3.771   3.399   9.474 -0.3607 -0.4189 -0.0672
  108OSM    H8F11126   3.820   3.493   9.508 -0.1065 -1.0376  1.3322
  108OSM    H8G11127   3.722   3.431   9.379 -0.8439  0.6698  0.5297
  108OSM    C9F11128   3.869   3.286   9.462 -0.2724  0.5176 -0.8199
  108OSM    H9F11129   3.942   3.281   9.544 -0.2591 -2.2991 -0.9235
  108OSM   C10F11130   3.882   3.193   9.356 -0.5373 -0.8387  0.4689
  108OSM   H10F11131   3.964   3.119   9.354 -1.3209 -1.7465  1.0785
  108OSM   C11F11132   3.795   3.188   9.229  0.2217 -0.3513 -0.2349
  108OSM   H11F11133   3.857   3.223   9.144 -0.0217 -0.0644 -0.2962
  108OSM   H11G11134   3.717   3.266   9.218  0.8084  0.3116  0.2464
  108OSM   C12F11135   3.737   3.050   9.186  0.4509 -0.0440 -0.7573
  108OSM   H12F11136   3.654   3.033   9.258 -0.3067  2.7808 -0.8576
  108OSM   H12G11137   3.819   2.975   9.194  1.7591  1.3744 -0.3361
  108OSM   C13F11138   3.681   3.056   9.042  0.4079 -0.2354  0.0238
  108OSM   H13F11139   3.751   3.110   8.974  0.3969 -1.0496 -0.6476
  108OSM   H13G11140   3.594   3.125   9.048 -0.7291 -1.6309 -0.1160
  108OSM   C14F11141   3.652   2.929   8.959  0.2572 -0.2776 -0.1795
  108OSM   H14F11142   3.571   2.872   9.009 -0.7195  1.6718  0.5523
  108OSM   H14G11143   3.741   2.862   8.948 -1.0006 -1.7730 -2.1037
  108OSM   C15F11144   3.614   2.961   8.815 -0.1049  0.5877 -0.1821
  108OSM   H15F11145   3.706   3.008   8.773  0.8723 -0.5309  0.6397
  108OSM   H15G11146   3.527   3.030   8.819  0.9962  1.9916  0.5976
  108OSM   C16F11147   3.577   2.824   8.751 -0.0142  0.4259  0.6038
  108OSM   H16F11148   3.499   2.772   8.811  0.7530  0.1354  1.3832
  108OSM   H16G11149   3.669   2.762   8.764 -0.5611 -0.3414  0.9559
  108OSM   C17F11150   3.552   2.834   8.603  0.1107 -0.6211  0.0393
  108OSM   H17F11151   3.443   2.841   8.583  0.3350 -2.4135 -2.2222
  108OSM   H17G11152   3.568   2.741   8.545  0.6864 -0.8995  0.6340
  108OSM   C18F11153   3.630   2.948   8.528 -0.0569 -0.2757 -0.3251
  108OSM   H18F11154   3.592   2.967   8.426 -0.2599  0.4118 -0.1234
  108OSM   H18G11155   3.735   2.915   8.514 -0.0003 -0.0308 -0.4804
  108OSM   H18H11156   3.609   3.047   8.573 -0.0825 -0.5914  0.3752
  109OSM      N11157   1.642   1.682  10.676  0.4346  0.0303 -0.2368
  109OSM    C1511158   1.665   1.718  10.531  0.3411 -0.3440  0.2402
  109OSM   H15A11159   1.569   1.727  10.483  0.8395  0.8466 -0.5824
  109OSM   H15B11160   1.722   1.645  10.475 -0.0708 -0.5060  0.0334
  109OSM   H15C11161   1.714   1.814  10.520  2.0402 -1.1715  0.1334
  109OSM    C1411162   1.775   1.693  10.752 -0.0642  0.0806 -0.7797
  109OSM   H14A11163   1.851   1.629  10.708  1.0252  0.5706  0.3335
  109OSM   H14B11164   1.763   1.672  10.857  1.7216 -1.0534 -0.7615
  109OSM   H14C11165   1.811   1.792  10.731 -2.1966  1.2257  0.6251
  109OSM    C1311166   1.535   1.779  10.729  0.0716  0.5892  0.1903
  109OSM   H13A11167   1.441   1.770  10.676 -0.7188  0.1174  1.6033
  109OSM   H13B11168   1.574   1.879  10.724  1.5453  0.1355  1.7483
  109OSM   H13C11169   1.528   1.763  10.836 -0.5592 -3.6223 -0.3168
  109OSM    C1211170   1.584   1.538  10.678  0.1760 -0.0023 -0.2774
  109OSM   H12A11171   1.583   1.507  10.781 -0.7303  0.9213  0.0133
  109OSM   H12B11172   1.649   1.471  10.624  2.9120  1.7910  0.6359
  109OSM    C1111173   1.434   1.514  10.634 -0.6555 -0.9206 -0.3673
  109OSM   H11A11174   1.427   1.403  10.629 -1.3318 -0.8959 -0.1068
  109OSM   H11B11175   1.429   1.556  10.531  1.1378 -0.5586 -0.3501
  109OSM      P11176   1.262   1.492  10.828  0.1681  0.2303  0.3219
  109OSM    O1311177   1.357   1.390  10.883 -0.5918  0.2105 -1.0210
  109OSM    O1411178   1.209   1.595  10.927 -0.0923  1.1480 -0.1624
  109OSM    O1111179   1.136   1.417  10.751 -0.0884 -0.0611 -0.2097
  109OSM    O1211180   1.331   1.575  10.713  0.6300 -0.5661  0.6132
  109OSM    C1S11181   1.073   1.486  10.645 -0.4096 -1.0481 -0.2000
  109OSM    H1S11182   1.092   1.594  10.632 -2.6957 -0.8684 -3.2987
  109OSM    H1T11183   0.963   1.482  10.665 -0.4716 -0.7034 -0.4652
  109OSM     NF11184   1.003   1.479  10.404 -0.3077  0.2869 -0.5920
  109OSM    HNF11185   0.919   1.436  10.374  0.5136  1.0045 -4.3544
  109OSM    C2S11186   1.090   1.422  10.506 -0.2136 -0.1784  0.0466
  109OSM    H2S11187   1.195   1.445  10.475 -0.5033  2.3078  0.6727
  109OSM    C3S11188   1.067   1.267  10.524 -0.1373 -0.2847 -0.4580
  109OSM    H3S11189   0.967   1.254  10.571  1.0671 -1.9723  1.8119
  109OSM     O311190   1.146   1.202  10.623 -0.3925  0.4661 -0.4270
  109OSM    HO311191   1.167   1.276  10.681 -0.6987 -0.7214  1.2548
  109OSM    C4S11192   1.091   1.201  10.394  0.8827  0.2367  0.0733
  109OSM    H4S11193   1.188   1.215  10.344 -0.4163 -0.6737 -2.9537
  109OSM    C5S11194   0.995   1.122  10.340  0.4546  0.0690 -0.0275
  109OSM    H5S11195   0.909   1.102  10.406  1.4310  3.4688  2.5808
  109OSM    C6S11196   0.990   1.060  10.207  0.8986  0.0664  0.0033
  109OSM    H6S11197   0.945   0.959  10.216 -1.9088  1.4182  2.6956
  109OSM    H6T11198   1.092   1.035  10.171  0.5108  0.0294 -1.1229
  109OSM    C7S11199   0.891   1.129  10.124  0.8442 -0.5506  0.1305
  109OSM    H7S11200   0.923   1.236  10.120  1.1322 -0.6067  0.7693
  109OSM    H7T11201   0.790   1.126  10.169 -1.5020  0.3364 -4.4238
  109OSM    C8S11202   0.887   1.085   9.976 -0.8394  0.0992  0.2669
  109OSM    H8S11203   0.872   0.978   9.952 -1.2094 -0.0010  0.9139
  109OSM    H8T11204   0.986   1.120   9.941 -0.6037  0.1114  0.9187
  109OSM    C9S11205   0.783   1.163   9.898  0.6573  0.2288  0.1250
  109OSM    H9S11206   0.831   1.264   9.895 -2.1220  1.6475 -0.0835
  109OSM    H9T11207   0.695   1.178   9.964  3.0762  3.5983  2.9978
  109OSM   C10S11208   0.756   1.108   9.757  0.3315 -0.1173  1.0907
  109OSM   H10S11209   0.722   1.003   9.769  0.6180 -0.0192  3.0632
  109OSM   H10T11210   0.846   1.098   9.693  0.1552  0.2848  0.7762
  109OSM   C11S11211   0.658   1.189   9.677  0.4197 -0.3709 -0.4104
  109OSM   H11S11212   0.666   1.296   9.705 -1.0519 -1.0117  3.0875
  109OSM   H11T11213   0.559   1.171   9.725 -0.3337  0.4331 -1.5816
  109OSM   C12S11214   0.664   1.172   9.528  0.0113  0.2234  1.0434
  109OSM   H12S11215   0.618   1.074   9.503  0.7319 -0.2830  1.6413
  109OSM   H12T11216   0.768   1.169   9.489 -0.7538  1.5413 -1.2913
  109OSM   C13S11217   0.583   1.280   9.458  0.5355 -0.6050  0.1461
  109OSM   H13S11218   0.647   1.370   9.457 -0.1652 -0.0903  0.3633
  109OSM   H13T11219   0.494   1.305   9.520  0.5751  2.3037 -0.8081
  109OSM   C14S11220   0.535   1.239   9.311  0.1956 -0.5716  0.6318
  109OSM   H14S11221   0.501   1.134   9.320  2.2027 -1.2079  1.2476
  109OSM   H14T11222   0.620   1.250   9.241 -0.6089  1.3144 -0.1266
  109OSM   C15S11223   0.416   1.329   9.263 -0.2520  0.0846 -0.1215
  109OSM   H15S11224   0.428   1.437   9.289 -0.2253  0.0625 -0.0416
  109OSM   H15T11225   0.329   1.294   9.324  1.6890 -2.0105  1.6297
  109OSM   C16S11226   0.389   1.315   9.117  0.0883 -0.1187 -0.1094
  109OSM   H16S11227   0.284   1.350   9.112 -1.2174 -2.9770  3.5046
  109OSM   H16T11228   0.383   1.207   9.092  0.8354  0.2543 -2.0867
  109OSM   C17S11229   0.480   1.389   9.021 -0.4624  0.5289 -0.3073
  109OSM   H17S11230   0.584   1.349   9.029 -0.3518  1.0308  0.9342
  109OSM   H17T11231   0.469   1.494   9.054 -2.4511  0.2210  0.1363
  109OSM   C18S11232   0.421   1.372   8.883 -0.0265  0.3951  0.4812
  109OSM   H18S11233   0.310   1.360   8.877  0.0792 -0.7527  0.7316
  109OSM   H18T11234   0.467   1.278   8.848 -0.2477  0.6874 -0.6404
  109OSM   H18U11235   0.463   1.435   8.802  2.7606  1.3785  2.5430
  109OSM    C1F11236   1.015   1.604  10.361 -0.4394  1.3318  0.1349
  109OSM     OF11237   1.109   1.664  10.404 -0.1138 -0.2753  0.1867
  109OSM    C2F11238   0.907   1.661  10.273  0.1566  0.1192 -0.0151
  109OSM    H2F11239   0.828   1.672  10.350  2.9067  0.1365  3.0110
  109OSM    H2G11240   0.886   1.591  10.189 -1.5554  3.1732 -2.3101
  109OSM    C3F11241   0.944   1.793  10.197  0.1697  0.3235  0.0032
  109OSM    H3F11242   1.005   1.859  10.262  1.7649 -0.5258 -0.5830
  109OSM    H3G11243   0.852   1.850  10.170 -0.4157 -0.4098  0.4194
  109OSM    C4F11244   1.019   1.760  10.070 -0.2912  0.0228 -0.2377
  109OSM    H4F11245   0.985   1.670  10.016  1.3035 -0.6379 -0.2069
  109OSM    H4G11246   1.120   1.723  10.097 -0.2214 -0.0422 -0.5866
  109OSM    C5F11247   1.037   1.868   9.961 -0.5404  0.3180  1.4407
  109OSM    H5F11248   1.117   1.934  10.002  2.5784 -1.1623 -1.8075
  109OSM    H5G11249   0.944   1.927   9.946 -0.0261  0.7013 -0.4305
  109OSM    C6F11250   1.078   1.823   9.817 -0.4598  0.0374  0.1612
  109OSM    H6F11251   1.033   1.721   9.814 -0.0431 -0.3446  3.2991
  109OSM    H6G11252   1.189   1.814   9.822 -0.5139 -0.1432  4.0036
  109OSM    C7F11253   1.037   1.918   9.701 -0.2047  0.7950 -0.4565
  109OSM    H7F11254   1.087   2.014   9.725  0.0112  0.4105  0.6899
  109OSM    H7G11255   0.928   1.936   9.711 -0.7518 -1.6026 -1.3203
  109OSM    C8F11256   1.063   1.860   9.561 -0.1780  0.3139 -0.4454
  109OSM    H8F11257   0.991   1.906   9.490 -0.2882 -1.6969 -1.7092
  109OSM    H8G11258   1.022   1.757   9.557 -0.7397  0.5315 -0.2505
  109OSM    C9F11259   1.202   1.879   9.509  0.2214  0.5633 -0.3641
  109OSM    H9F11260   1.278   1.834   9.574 -1.0121 -0.1416  0.6324
  109OSM   C10F11261   1.235   1.934   9.386  1.1579  0.9377  0.0356
  109OSM   H10F11262   1.336   1.940   9.343  1.3541  1.8451  0.6094
  109OSM   C11F11263   1.135   1.992   9.287 -0.0933 -0.2541  0.1189
  109OSM   H11F11264   1.189   2.081   9.247  0.0333  0.2730  1.4116
  109OSM   H11G11265   1.042   2.037   9.328  0.0738 -0.1516  0.3875
  109OSM   C12F11266   1.095   1.884   9.184 -0.2894 -0.8007 -0.1841
  109OSM   H12F11267   1.019   1.812   9.220  0.1007 -0.9846  0.2863
  109OSM   H12G11268   1.183   1.831   9.140 -0.3614 -2.1887  1.2526
  109OSM   C13F11269   1.013   1.957   9.068  0.4535 -0.2652 -0.5519
  109OSM   H13F11270   1.087   2.031   9.030  1.6415 -0.3344  1.4537
  109OSM   H13G11271   0.935   2.018   9.118  0.1537  0.8385 -2.2769
  109OSM   C14F11272   0.955   1.859   8.962 -0.3032 -0.6066  0.3488
  109OSM   H14F11273   0.901   1.779   9.016 -1.0438  0.6219  1.4772
  109OSM   H14G11274   1.035   1.811   8.901  0.1537 -0.9359  1.1869
  109OSM   C15F11275   0.850   1.924   8.868  0.3637  0.5800 -0.3070
  109OSM   H15F11276   0.907   1.996   8.805 -0.4096  1.2141 -0.3014
  109OSM   H15G11277   0.768   1.982   8.917 -0.4643  0.6674 -1.7414
  109OSM   C16F11278   0.781   1.821   8.775  0.1202 -0.7604  0.2543
  109OSM   H16F11279   0.711   1.766   8.842  0.2856  0.6994  1.6740
  109OSM   H16G11280   0.849   1.749   8.725  1.9280  0.7181  0.4724
  109OSM   C17F11281   0.702   1.886   8.659  0.0535  0.4850 -0.5448
  109OSM   H17F11282   0.777   1.927   8.589 -0.4050  0.8461 -0.8238
  109OSM   H17G11283   0.649   1.969   8.710  0.1744 -0.2432  0.8134
  109OSM   C18F11284   0.602   1.798   8.580  0.6540 -0.2074  0.5614
  109OSM   H18F11285   0.539   1.736   8.647  0.6356 -0.9949 -0.1679
  109OSM   H18G11286   0.659   1.732   8.511  2.5885  1.6826  0.2801
  109OSM   H18H11287   0.533   1.858   8.517  1.2965  1.3637  1.3250
  110OSM      N11288   2.853   0.888  10.980 -0.2050  0.5068  0.1106
  110OSM    C1511289   2.768   0.793  11.062 -0.0340  0.2116  0.1149
  110OSM   H15A11290   2.708   0.727  11.001  0.1705  0.8510 -0.8080
  110OSM   H15B11291   2.694   0.845  11.121  1.6244  1.1096  1.4897
  110OSM   H15C11292   2.835   0.735  11.124  1.4181 -0.6311 -2.1205
  110OSM    C1411293   2.758   0.955  10.877 -0.3449  0.7315 -0.1854
  110OSM   H14A11294   2.691   1.025  10.923 -0.0844  1.9746 -1.6159
  110OSM   H14B11295   2.708   0.877  10.821  0.1759  1.1569 -1.2715
  110OSM   H14C11296   2.818   1.007  10.804 -0.0034  1.1975  0.4213
  110OSM    C1311297   2.918   1.000  11.056  0.3352 -0.0134 -0.0470
  110OSM   H13A11298   2.849   1.057  11.117 -0.1183  0.5789 -1.0669
  110OSM   H13B11299   2.961   1.066  10.982  1.9623 -1.8097 -0.7776
  110OSM   H13C11300   2.992   0.963  11.124 -0.1645 -2.0564 -0.5420
  110OSM    C1211301   2.955   0.804  10.911  0.1360  0.3275  0.1711
  110OSM   H12A11302   3.019   0.847  10.836  1.0176 -2.4645 -0.7801
  110OSM   H12B11303   2.904   0.722  10.864  0.3146 -0.7887  1.8287
  110OSM    C1111304   3.058   0.731  11.001 -0.8106  0.1919 -0.7841
  110OSM   H11A11305   3.127   0.657  10.956 -0.4386 -1.2897  1.9631
  110OSM   H11B11306   2.999   0.681  11.081  1.2471 -1.0723  0.0158
  110OSM      P11307   3.273   0.883  10.999 -0.0282  0.4516 -0.2982
  110OSM    O1311308   3.314   1.012  11.065  0.0512  0.1812  0.0054
  110OSM    O1411309   3.375   0.777  10.998  0.1876 -0.3968  0.5248
  110OSM    O1111310   3.229   0.908  10.850  0.3710 -0.3749 -0.2378
  110OSM    O1211311   3.145   0.827  11.070 -0.0078  0.2239  0.5843
  110OSM    C1S11312   3.314   0.896  10.737  0.8380 -0.1102 -0.4131
  110OSM    H1S11313   3.306   0.793  10.695  1.8971 -1.0709  1.6343
  110OSM    H1T11314   3.420   0.926  10.752  0.8866  0.6097 -1.9840
  110OSM     NF11315   3.352   0.964  10.505  0.1579 -0.1298 -0.2990
  110OSM    HNF11316   3.436   1.018  10.499 -0.0453  0.4851  1.6465
  110OSM    C2S11317   3.264   0.986  10.624  0.3034  0.5929  0.3577
  110OSM    H2S11318   3.165   0.951  10.587  1.0822 -1.9762  0.4940
  110OSM    C3S11319   3.258   1.131  10.665  0.0911 -0.9970 -0.2071
  110OSM    H3S11320   3.355   1.177  10.690 -0.2569 -0.4175  0.0823
  110OSM     O311321   3.176   1.157  10.777  0.0552 -0.3141 -0.5284
  110OSM    HO311322   3.165   1.068  10.809 -1.6274  1.3016  4.3135
  110OSM    C4S11323   3.205   1.220  10.549 -0.3650  0.0746  0.5781
  110OSM    H4S11324   3.104   1.205  10.509 -0.4608  1.1423  0.3811
  110OSM    C5S11325   3.273   1.327  10.494  0.0050  0.1717  0.0910
  110OSM    H5S11326   3.374   1.350  10.532 -0.0408  1.8618 -0.7002
  110OSM    C6S11327   3.233   1.413  10.373  0.1679  0.0965  0.3082
  110OSM    H6S11328   3.244   1.522  10.395 -0.0726  0.1210  0.3155
  110OSM    H6T11329   3.131   1.393  10.333  0.1618 -0.2031  0.4673
  110OSM    C7S11330   3.335   1.396  10.262  0.2125 -0.0377  0.3086
  110OSM    H7S11331   3.356   1.288  10.244  1.5092 -0.0376  1.6006
  110OSM    H7T11332   3.433   1.432  10.301 -0.2012  1.6296 -0.1453
  110OSM    C8S11333   3.311   1.466  10.127  0.2446 -0.9133 -0.3554
  110OSM    H8S11334   3.308   1.575  10.149  0.5439 -1.1899  1.1776
  110OSM    H8T11335   3.215   1.445  10.076 -1.2638 -0.4526  2.1163
  110OSM    C9S11336   3.420   1.448  10.017 -0.2188  0.7986  0.0649
  110OSM    H9S11337   3.448   1.340  10.008  1.4877  1.0677  1.5194
  110OSM    H9T11338   3.509   1.500  10.059  0.4653  0.5103 -0.9687
  110OSM   C10S11339   3.374   1.506   9.885  0.4435 -0.7405  0.4510
  110OSM   H10S11340   3.462   1.541   9.826 -0.1183 -0.2705 -0.1258
  110OSM   H10T11341   3.310   1.597   9.891  1.2780 -0.0056 -1.0928
  110OSM   C11S11342   3.298   1.406   9.801 -0.0348  0.2253  0.5351
  110OSM   H11S11343   3.215   1.378   9.870  1.4472 -0.5439  2.0822
  110OSM   H11T11344   3.355   1.312   9.783  1.6317  1.3054 -0.0553
  110OSM   C12S11345   3.253   1.462   9.660  0.2536  0.5827 -0.1834
  110OSM   H12S11346   3.330   1.517   9.603  1.1790 -2.5110 -2.1168
  110OSM   H12T11347   3.157   1.519   9.662  0.5720  1.1866 -1.5224
  110OSM   C13S11348   3.233   1.346   9.554 -0.1650  0.0894  0.6180
  110OSM   H13S11349   3.157   1.272   9.585 -0.6366  0.4612  0.3654
  110OSM   H13T11350   3.331   1.296   9.541 -1.8036 -2.7824 -1.9847
  110OSM   C14S11351   3.189   1.405   9.417  0.1293 -0.0406 -0.3598
  110OSM   H14S11352   3.262   1.479   9.378  1.6449 -0.0755  2.1595
  110OSM   H14T11353   3.095   1.464   9.429  0.7573  1.4732 -2.3095
  110OSM   C15S11354   3.153   1.299   9.317 -0.0114  0.1481  0.3093
  110OSM   H15S11355   3.131   1.354   9.223  1.1066 -3.1567 -2.0810
  110OSM   H15T11356   3.054   1.257   9.345 -0.5418  1.4966  0.5488
  110OSM   C16S11357   3.261   1.185   9.306 -0.3936  0.2358  0.2824
  110OSM   H16S11358   3.273   1.140   9.407 -0.2205 -0.1387  0.0970
  110OSM   H16T11359   3.363   1.226   9.291  0.0221 -0.9163 -0.1072
  110OSM   C17S11360   3.220   1.083   9.198 -0.2962 -0.1980  0.0485
  110OSM   H17S11361   3.202   1.137   9.103  0.2335 -0.8341 -0.4288
  110OSM   H17T11362   3.119   1.049   9.231 -1.2681  2.4901  0.0957
  110OSM   C18S11363   3.312   0.960   9.174  1.1011 -0.6968  0.6072
  110OSM   H18S11364   3.320   0.900   9.267 -0.1517  0.1126  1.2709
  110OSM   H18T11365   3.416   0.991   9.150  0.8860  0.9079  1.6538
  110OSM   H18U11366   3.255   0.917   9.089 -3.8035  2.3502  1.9601
  110OSM    C1F11367   3.344   0.852  10.427  0.4449  0.2649  0.5275
  110OSM     OF11368   3.270   0.757  10.455 -0.2119 -0.2419 -0.8698
  110OSM    C2F11369   3.434   0.838  10.302  0.4127  0.2174  0.4342
  110OSM    H2F11370   3.514   0.762  10.319  1.6419  0.9205 -1.8591
  110OSM    H2G11371   3.473   0.939  10.275 -0.2117  0.5469  0.7545
  110OSM    C3F11372   3.355   0.795  10.179 -0.3225  0.1737 -0.2412
  110OSM    H3F11373   3.261   0.854  10.177  0.2831  1.1388 -1.7089
  110OSM    H3G11374   3.325   0.688  10.185 -1.7533  0.5235 -0.8630
  110OSM    C4F11375   3.438   0.803  10.049 -0.3964 -0.3940  0.2465
  110OSM    H4F11376   3.531   0.744  10.060 -0.3517 -0.8932 -2.2568
  110OSM    H4G11377   3.474   0.907  10.031  1.0234 -0.6861  1.2258
  110OSM    C5F11378   3.373   0.763   9.922  0.0228  0.6024  0.3088
  110OSM    H5F11379   3.322   0.665   9.931 -1.7335  1.4466 -0.0481
  110OSM    H5G11380   3.463   0.757   9.856  0.4409 -0.4268  0.9349
  110OSM    C6F11381   3.284   0.872   9.856  0.4501  0.4218  0.7953
  110OSM    H6F11382   3.322   0.976   9.864  0.8449  0.3279  0.1495
  110OSM    H6G11383   3.191   0.885   9.916 -0.6318  0.2950 -0.7726
  110OSM    C7F11384   3.233   0.847   9.709  0.1400  0.2907  0.0009
  110OSM    H7F11385   3.171   0.755   9.704  0.0035  0.4346 -1.5081
  110OSM    H7G11386   3.322   0.813   9.651  0.3046 -1.6762  1.3379
  110OSM    C8F11387   3.164   0.964   9.643  0.0056 -0.1935  0.5302
  110OSM    H8F11388   3.184   0.966   9.533 -3.2428  2.3275 -0.1753
  110OSM    H8G11389   3.215   1.058   9.673  2.7903 -1.7819  1.1361
  110OSM    C9F11390   3.015   0.973   9.662 -0.0864 -0.1925 -0.1930
  110OSM    H9F11391   2.992   1.018   9.760  0.0652 -1.1718  0.3117
  110OSM   C10F11392   2.912   0.945   9.583  0.0868  0.4995  0.1743
  110OSM   H10F11393   2.812   0.944   9.629  0.6195  1.9392  1.4577
  110OSM   C11F11394   2.915   0.882   9.444  0.4088  0.8131 -0.3263
  110OSM   H11F11395   2.878   0.778   9.457 -0.6471  1.1806 -0.2752
  110OSM   H11G11396   3.021   0.868   9.413 -0.4582 -1.8320 -2.5783
  110OSM   C12F11397   2.833   0.950   9.333  0.2194 -0.1211 -0.1878
  110OSM   H12F11398   2.877   1.050   9.312 -1.2534  0.3380 -1.2597
  110OSM   H12G11399   2.727   0.969   9.358  0.2005  0.5049 -0.7293
  110OSM   C13F11400   2.844   0.879   9.202 -0.0973  0.7056  0.5729
  110OSM   H13F11401   2.793   0.781   9.211 -1.4161  1.2404 -0.7031
  110OSM   H13G11402   2.953   0.864   9.186 -0.1579 -0.7741  1.3827
  110OSM   C14F11403   2.778   0.963   9.085  0.5963  0.2518  0.3460
  110OSM   H14F11404   2.775   1.071   9.112 -2.0007  0.3097  0.1309
  110OSM   H14G11405   2.670   0.937   9.072  0.4949 -1.2453  3.2182
  110OSM   C15F11406   2.856   0.962   8.951 -0.0856  0.9277 -0.1808
  110OSM   H15F11407   2.839   0.865   8.900  0.8248  1.2685 -1.1697
  110OSM   H15G11408   2.964   0.971   8.975  0.0888  0.3285 -0.7122
  110OSM   C16F11409   2.827   1.084   8.867 -0.1148 -0.3276  0.0549
  110OSM   H16F11410   2.917   1.124   8.816 -1.3728 -1.7016 -3.5624
  110OSM   H16G11411   2.798   1.167   8.935 -0.5867 -1.1676  0.8991
  110OSM   C17F11412   2.716   1.072   8.757 -0.3547 -0.4224 -0.7538
  110OSM   H17F11413   2.612   1.086   8.792  0.4505  1.4824  1.0872
  110OSM   H17G11414   2.717   0.963   8.735 -0.7762 -1.6604  4.1870
  110OSM   C18F11415   2.737   1.157   8.632 -0.2877 -0.8111  0.2360
  110OSM   H18F11416   2.648   1.137   8.568 -0.2527  0.4547 -0.2327
  110OSM   H18G11417   2.832   1.137   8.578  2.4376  1.8518  3.6101
  110OSM   H18H11418   2.736   1.265   8.659 -1.6927 -0.7976  0.1838
  111OSM      N11419   5.722   5.995  10.865  0.5544 -0.5236  0.3515
  111OSM    C1511420   5.663   5.879  10.946 -0.6944 -0.2608  0.5792
  111OSM   H15A11421   5.741   5.823  10.996 -0.2649 -0.1939 -0.0090
  111OSM   H15B11422   5.614   5.805  10.885 -0.9985 -0.8889  1.5674
  111OSM   H15C11423   5.588   5.911  11.017 -2.8546  0.4284 -1.8805
  111OSM    C1411424   5.774   6.092  10.965 -0.4488  0.2917  0.6098
  111OSM   H14A11425   5.810   6.181  10.915  1.3098  1.0570  3.0280
  111OSM   H14B11426   5.852   6.036  11.015  1.8670  1.4255 -1.5277
  111OSM   H14C11427   5.701   6.111  11.042 -1.7810 -2.0105  0.0013
  111OSM    C1311428   5.833   5.950  10.775 -0.3402  0.5707 -0.7793
  111OSM   H13A11429   5.906   5.884  10.822 -1.1543 -0.3452 -0.7661
  111OSM   H13B11430   5.884   6.034  10.730 -1.4949  1.2264 -0.8828
  111OSM   H13C11431   5.788   5.886  10.700 -2.4109  2.5206 -1.2850
  111OSM    C1211432   5.610   6.070  10.790 -0.2415  0.0326  0.5888
  111OSM   H12A11433   5.660   6.153  10.741  0.2408 -2.1425 -3.0055
  111OSM   H12B11434   5.543   6.117  10.861 -0.3457  0.1493  0.4155
  111OSM    C1111435   5.526   5.995  10.689  1.0182  0.6276 -0.4236
  111OSM   H11A11436   5.582   5.927  10.622 -1.2446 -0.7176 -1.0568
  111OSM   H11B11437   5.477   6.070  10.624 -0.7131  0.8324  1.0244
  111OSM      P11438   5.291   5.998  10.800  0.7924 -0.1956 -0.0925
  111OSM    O1311439   5.197   5.916  10.877 -0.4285  0.5420  0.8170
  111OSM    O1411440   5.342   6.123  10.862  0.4459 -0.2988 -0.3390
  111OSM    O1111441   5.242   6.029  10.654  0.1599  0.3707 -0.4782
  111OSM    O1211442   5.422   5.918  10.759 -0.0037  0.1159  0.2745
  111OSM    C1S11443   5.139   6.115  10.599  0.7487  0.4068 -0.3730
  111OSM    H1S11444   5.169   6.208  10.652  2.8210 -1.5410  2.0952
  111OSM    H1T11445   5.034   6.094  10.630  0.2141  1.1554 -1.5750
  111OSM     NF11446   5.079   6.241  10.401 -0.3570 -0.5368 -0.2091
  111OSM    HNF11447   4.994   6.201  10.369  1.1711 -3.7364 -0.6525
  111OSM    C2S11448   5.155   6.124  10.452 -0.4802 -0.2917  0.2274
  111OSM    H2S11449   5.262   6.142  10.428 -0.9763  0.0640 -2.0000
  111OSM    C3S11450   5.120   5.986  10.382  0.4787 -0.3365 -0.1114
  111OSM    H3S11451   5.013   5.961  10.400  0.2195  0.8498  0.1097
  111OSM     O311452   5.183   5.871  10.429  0.5042  0.5774  0.3533
  111OSM    HO311453   5.226   5.905  10.508 -0.0089  0.2582  0.7764
  111OSM    C4S11454   5.137   6.006  10.234  0.1242 -0.1698  0.4463
  111OSM    H4S11455   5.042   6.014  10.180 -0.3503 -1.0058  1.1308
  111OSM    C5S11456   5.239   5.995  10.155 -0.6887  0.4466  0.4651
  111OSM    H5S11457   5.339   5.970  10.195 -0.5366  0.7562  0.2773
  111OSM    C6S11458   5.244   6.019  10.006 -0.0897 -0.0494 -0.1757
  111OSM    H6S11459   5.294   5.929   9.965  3.0786  0.8446  1.3238
  111OSM    H6T11460   5.297   6.112   9.973  0.1279  0.6705  2.0281
  111OSM    C7S11461   5.110   6.006   9.939  0.4522  0.3779  0.1794
  111OSM    H7S11462   5.036   6.077   9.982 -1.6372 -1.1650 -0.7204
  111OSM    H7T11463   5.059   5.909   9.957  2.8543 -0.9704  0.1241
  111OSM    C8S11464   5.115   6.036   9.783 -0.3999 -0.2481 -0.5292
  111OSM    H8S11465   5.120   6.147   9.772  0.8545 -0.2180  0.1515
  111OSM    H8T11466   5.019   6.007   9.735 -1.3039 -1.0095  1.6383
  111OSM    C9S11467   5.229   5.957   9.717  0.3416 -0.4649  0.7183
  111OSM    H9S11468   5.216   5.855   9.759  1.6245 -0.7400  0.4723
  111OSM    H9T11469   5.331   5.990   9.747  0.0949 -0.7910  2.0023
  111OSM   C10S11470   5.218   5.942   9.561 -0.0348 -0.5278 -0.1047
  111OSM   H10S11471   5.129   5.880   9.537 -0.9695  0.2278  1.2861
  111OSM   H10T11472   5.305   5.883   9.526 -0.6360 -2.2439  1.1765
  111OSM   C11S11473   5.201   6.082   9.497  0.2814  0.3898 -0.5505
  111OSM   H11S11474   5.306   6.118   9.495  0.0844  1.3051  2.0811
  111OSM   H11T11475   5.136   6.147   9.559  1.6677  2.2534 -0.9734
  111OSM   C12S11476   5.127   6.071   9.364 -0.2794  0.6329 -0.5804
  111OSM   H12S11477   5.087   6.172   9.341 -1.2360  0.2018 -0.8790
  111OSM   H12T11478   5.036   6.009   9.378  0.4795 -0.3742  0.0655
  111OSM   C13S11479   5.214   5.998   9.252  0.2544 -0.7565  0.0929
  111OSM   H13S11480   5.234   5.897   9.295  1.3886 -1.4605 -1.9208
  111OSM   H13T11481   5.312   6.048   9.241  0.3923 -1.0005  0.2150
  111OSM   C14S11482   5.138   5.995   9.115 -0.2236 -0.4782  0.5759
  111OSM   H14S11483   5.042   5.947   9.144 -0.5136  0.6561  1.5461
  111OSM   H14T11484   5.193   5.923   9.051 -0.6933 -0.9194  0.6608
  111OSM   C15S11485   5.120   6.134   9.047  0.0506  0.0783  0.4176
  111OSM   H15S11486   5.226   6.165   9.032  0.4417 -1.6555 -0.6068
  111OSM   H15T11487   5.062   6.188   9.125 -1.6868  0.6417 -1.2130
  111OSM   C16S11488   5.034   6.139   8.917 -1.0016  0.1010  0.2759
  111OSM   H16S11489   4.926   6.126   8.940 -1.4078 -1.1332 -2.0123
  111OSM   H16T11490   5.069   6.059   8.849 -1.8292  0.7448 -0.9427
  111OSM   C17S11491   5.038   6.268   8.843 -0.3438 -0.1191 -0.6781
  111OSM   H17S11492   5.139   6.291   8.803  1.1272 -2.7325  1.1990
  111OSM   H17T11493   5.012   6.352   8.910 -0.0011  0.4690 -1.2655
  111OSM   C18S11494   4.948   6.261   8.718  0.0092  0.2539 -0.4163
  111OSM   H18S11495   4.994   6.195   8.641  0.8876 -0.6342  0.8305
  111OSM   H18T11496   4.931   6.366   8.687  1.6077  0.4388 -0.7311
  111OSM   H18U11497   4.852   6.212   8.747  1.3232 -0.6259  2.9067
  111OSM    C1F11498   5.118   6.370  10.426  0.0824  0.1173 -0.5293
  111OSM     OF11499   5.223   6.387  10.480 -0.9152  0.3778 -0.3187
  111OSM    C2F11500   5.022   6.477  10.391  0.7274  0.0716  0.0050
  111OSM    H2F11501   4.990   6.532  10.483  0.6064 -1.9335  1.2339
  111OSM    H2G11502   4.925   6.436  10.356 -0.4514  1.3411  1.5701
  111OSM    C3F11503   5.083   6.582  10.289  1.1859 -0.3365 -0.1677
  111OSM    H3F11504   5.147   6.656  10.341  1.0179  0.5273 -1.1651
  111OSM    H3G11505   4.999   6.635  10.240  0.9456 -1.5096 -1.0900
  111OSM    C4F11506   5.147   6.528  10.165  0.5064  0.4163 -0.3063
  111OSM    H4F11507   5.245   6.480  10.188 -0.1658 -0.8120  0.0791
  111OSM    H4G11508   5.174   6.614  10.099  0.8046 -0.8001 -1.8096
  111OSM    C5F11509   5.069   6.420  10.087 -0.3962 -0.6249 -0.1320
  111OSM    H5F11510   4.968   6.397  10.126 -0.3389 -0.0607  0.3717
  111OSM    H5G11511   5.124   6.323  10.089 -0.5263 -0.7083  2.1827
  111OSM    C6F11512   5.067   6.448   9.940 -0.8056 -0.4111 -0.7500
  111OSM    H6F11513   5.023   6.548   9.919  0.7660  0.7513  1.1156
  111OSM    H6G11514   5.000   6.378   9.887 -1.2218 -0.1114 -0.6287
  111OSM    C7F11515   5.204   6.434   9.881  0.5283 -0.4040  0.2944
  111OSM    H7F11516   5.248   6.338   9.914  2.5566  0.5091  0.3833
  111OSM    H7G11517   5.270   6.517   9.916  0.1922  0.0355 -0.1103
  111OSM    C8F11518   5.208   6.428   9.723 -0.0612  0.0595 -0.1862
  111OSM    H8F11519   5.188   6.532   9.688  1.0432  0.6839  0.9246
  111OSM    H8G11520   5.129   6.354   9.698  0.1772  0.0286 -0.8680
  111OSM    C9F11521   5.332   6.376   9.668  0.0143  0.4566  0.4416
  111OSM    H9F11522   5.374   6.293   9.726 -1.8779 -0.8818 -0.0122
  111OSM   C10F11523   5.394   6.414   9.556  0.2809 -0.3127 -0.0564
  111OSM   H10F11524   5.480   6.357   9.518 -1.0491 -0.3146 -3.4100
  111OSM   C11F11525   5.342   6.514   9.457  0.6135  0.2040  0.8947
  111OSM   H11F11526   5.424   6.581   9.424 -0.6086  0.4056 -1.9787
  111OSM   H11G11527   5.270   6.584   9.506  1.1449  0.9277  0.6628
  111OSM   C12F11528   5.273   6.448   9.338 -0.0424 -0.1505  0.6202
  111OSM   H12F11529   5.222   6.514   9.265 -1.1154 -1.2243  0.3614
  111OSM   H12G11530   5.181   6.392   9.366 -2.0032  0.8052 -3.2505
  111OSM   C13F11531   5.351   6.352   9.249 -0.3922 -0.9450 -0.1373
  111OSM   H13F11532   5.275   6.292   9.194  0.5978 -1.3933 -1.0500
  111OSM   H13G11533   5.407   6.275   9.306  3.0185  1.3146 -0.1514
  111OSM   C14F11534   5.454   6.408   9.156 -0.1736 -0.3711 -0.2831
  111OSM   H14F11535   5.539   6.456   9.208 -0.4625  0.6778 -0.7577
  111OSM   H14G11536   5.400   6.487   9.100 -0.4584 -2.5946 -3.4560
  111OSM   C15F11537   5.509   6.306   9.051 -0.2176 -0.6354  0.1944
  111OSM   H15F11538   5.427   6.246   9.008 -1.7237  1.1454  0.4523
  111OSM   H15G11539   5.568   6.245   9.123  2.4841  0.4688 -0.9189
  111OSM   C16F11540   5.600   6.367   8.946 -0.4196 -0.1678 -0.3678
  111OSM   H16F11541   5.695   6.403   8.989 -0.7221 -1.0669  1.1187
  111OSM   H16G11542   5.550   6.452   8.895 -0.9084 -0.5568 -0.5504
  111OSM   C17F11543   5.616   6.258   8.833  0.2047 -0.9052 -0.5790
  111OSM   H17F11544   5.691   6.295   8.760 -1.3402  0.0629 -1.7613
  111OSM   H17G11545   5.520   6.227   8.785 -0.3515  0.2115 -0.2260
  111OSM   C18F11546   5.671   6.126   8.890 -0.0526  0.1425 -0.0932
  111OSM   H18F11547   5.690   6.056   8.806  1.1951  1.7649 -1.2183
  111OSM   H18G11548   5.603   6.075   8.962 -2.6808  2.9415 -0.4024
  111OSM   H18H11549   5.775   6.139   8.928 -0.4574  0.1003  1.0697
  112OSM      N11550   3.270   2.782  11.058 -0.8953  0.2509  0.4895
  112OSM    C1511551   3.140   2.733  11.111 -0.5648 -0.3375  0.4895
  112OSM   H15A11552   3.055   2.793  11.086 -0.0771  0.4778  0.7553
  112OSM   H15B11553   3.140   2.743  11.219 -0.1059  0.6471  0.4050
  112OSM   H15C11554   3.117   2.629  11.094  2.5336 -0.7185 -2.4569
  112OSM    C1411555   3.292   2.925  11.106 -0.3890  0.0640 -0.6326
  112OSM   H14A11556   3.216   2.997  11.078 -0.6179  0.0434 -0.0728
  112OSM   H14B11557   3.384   2.965  11.069 -0.3319  0.2127 -0.3317
  112OSM   H14C11558   3.308   2.927  11.213 -0.2950  0.2724 -0.6500
  112OSM    C1311559   3.386   2.701  11.112 -0.6937 -0.1395  0.1131
  112OSM   H13A11560   3.391   2.696  11.220 -1.4819 -1.5149  0.1064
  112OSM   H13B11561   3.480   2.748  11.087 -0.6421  0.1491  0.8110
  112OSM   H13C11562   3.387   2.601  11.072  0.8365  0.3650 -1.2326
  112OSM    C1211563   3.272   2.764  10.904 -0.4220  0.5953 -0.0546
  112OSM   H12A11564   3.272   2.660  10.875  1.2480  0.4482  0.3374
  112OSM   H12B11565   3.367   2.805  10.871  1.1042 -2.5672  0.0216
  112OSM    C1111566   3.156   2.823  10.827  0.2772 -0.1041 -0.2427
  112OSM   H11A11567   3.062   2.798  10.880 -0.1196 -0.1592 -0.9697
  112OSM   H11B11568   3.147   2.783  10.724  0.5210  2.5125 -1.3549
  112OSM      P11569   3.271   3.027  10.732 -0.2845  0.1035 -0.4827
  112OSM    O1311570   3.237   3.165  10.703 -0.3170 -0.0527 -0.1354
  112OSM    O1411571   3.412   3.000  10.781 -0.0111  0.0739 -0.3754
  112OSM    O1111572   3.272   2.946  10.591  0.9468  0.5041  0.4163
  112OSM    O1211573   3.162   2.966  10.832  0.6148  0.6714  0.3405
  112OSM    C1S11574   3.176   2.967  10.491 -0.0357 -0.1594 -0.0709
  112OSM    H1S11575   3.137   3.071  10.493  2.0486  0.6635  0.5782
  112OSM    H1T11576   3.084   2.904  10.497 -0.9298  0.8185 -2.4417
  112OSM     NF11577   3.140   3.004  10.243  0.2656 -0.1385 -0.9626
  112OSM    HNF11578   3.071   2.941  10.207  0.6454 -1.2597  0.1997
  112OSM    C2S11579   3.227   2.939  10.344 -0.6634  0.5892 -0.9442
  112OSM    H2S11580   3.324   2.994  10.343 -1.1296  1.5760  1.7420
  112OSM    C3S11581   3.248   2.784  10.332 -0.0051 -0.2734 -0.1656
  112OSM    H3S11582   3.161   2.725  10.367  1.8917 -2.3286  1.4236
  112OSM     O311583   3.349   2.742  10.429  0.2177 -0.2378  0.4402
  112OSM    HO311584   3.350   2.820  10.485  4.3874  1.8505 -2.0803
  112OSM    C4S11585   3.288   2.748  10.195 -0.4885  0.0174  0.3157
  112OSM    H4S11586   3.387   2.791  10.172 -1.2751  1.0024 -1.4588
  112OSM    C5S11587   3.235   2.664  10.114 -0.0980  0.1692 -0.3423
  112OSM    H5S11588   3.144   2.611  10.144 -0.8315  0.3362 -2.1314
  112OSM    C6S11589   3.291   2.625   9.986 -0.9059  0.0197  0.3995
  112OSM    H6S11590   3.328   2.520   9.993 -0.8732 -0.0567 -0.6388
  112OSM    H6T11591   3.381   2.686   9.964  1.5137 -3.7088 -1.1881
  112OSM    C7S11592   3.185   2.650   9.871 -1.3447 -0.1224 -0.4886
  112OSM    H7S11593   3.169   2.759   9.885 -1.7304 -0.4609  2.0854
  112OSM    H7T11594   3.090   2.599   9.895 -0.6705 -0.8604  0.7117
  112OSM    C8S11595   3.246   2.614   9.729  0.0873  0.6972  0.1675
  112OSM    H8S11596   3.239   2.503   9.719  1.3650  0.6209 -0.0295
  112OSM    H8T11597   3.354   2.639   9.735  0.5058 -1.0662  0.5748
  112OSM    C9S11598   3.169   2.667   9.616 -0.5486  0.3662 -0.3942
  112OSM    H9S11599   3.188   2.777   9.612 -0.2518  0.4482  2.0033
  112OSM    H9T11600   3.060   2.654   9.628 -0.5853 -0.3697 -1.4278
  112OSM   C10S11601   3.212   2.591   9.493 -0.4590 -0.4383  0.2813
  112OSM   H10S11602   3.227   2.483   9.514  1.3962 -0.2929 -0.1534
  112OSM   H10T11603   3.313   2.624   9.459  0.5227 -1.6760  1.8614
  112OSM   C11S11604   3.108   2.611   9.379  0.4608 -1.0666  0.7114
  112OSM   H11S11605   3.104   2.720   9.356 -0.0355 -1.2422 -0.0612
  112OSM   H11T11606   3.004   2.586   9.408 -0.4978  2.2193  0.4828
  112OSM   C12S11607   3.142   2.539   9.252  0.4897  0.2882  0.4015
  112OSM   H12S11608   3.090   2.442   9.235  1.7750 -0.1746 -1.1802
  112OSM   H12T11609   3.251   2.533   9.231  0.3975  2.0375 -0.7279
  112OSM   C13S11610   3.091   2.613   9.127  0.0705  0.5516 -0.7233
  112OSM   H13S11611   3.148   2.708   9.125 -2.0142  2.0388  2.6021
  112OSM   H13T11612   2.983   2.639   9.134 -0.0894  0.0365 -1.2032
  112OSM   C14S11613   3.122   2.533   9.004 -0.1358 -0.4146  0.4049
  112OSM   H14S11614   3.103   2.424   9.007  1.7161 -0.7997 -0.2815
  112OSM   H14T11615   3.230   2.538   8.980  0.3930  0.3866  2.6551
  112OSM   C15S11616   3.042   2.581   8.875  0.1671  0.0551  0.9756
  112OSM   H15S11617   3.062   2.689   8.856  0.4368 -0.2834 -0.8383
  112OSM   H15T11618   2.934   2.564   8.896 -0.4885 -2.2078 -3.1385
  112OSM   C16S11619   3.079   2.504   8.748 -0.6714 -0.0327 -0.8871
  112OSM   H16S11620   2.990   2.519   8.683 -2.4868 -0.7805  1.2730
  112OSM   H16T11621   3.094   2.397   8.773  2.9089  0.3271 -0.9962
  112OSM   C17S11622   3.207   2.540   8.688 -0.1405 -0.6366  0.4358
  112OSM   H17S11623   3.291   2.516   8.756 -0.7511 -0.4551  1.2579
  112OSM   H17T11624   3.211   2.649   8.666 -2.5510 -0.2622  1.5271
  112OSM   C18S11625   3.220   2.454   8.556 -0.3912 -0.3934 -0.1472
  112OSM   H18S11626   3.131   2.478   8.494 -0.6254 -2.7079 -0.7756
  112OSM   H18T11627   3.222   2.343   8.562 -0.0246 -0.3239  3.0815
  112OSM   H18U11628   3.310   2.488   8.501  0.1206  0.3331  1.0901
  112OSM    C1F11629   3.141   3.138  10.217  0.0064  0.1988  0.7527
  112OSM     OF11630   3.224   3.212  10.269 -0.9072  0.2350 -0.4483
  112OSM    C2F11631   3.031   3.196  10.128 -0.1943  0.4399  0.2752
  112OSM    H2F11632   3.007   3.300  10.160  4.0278  1.4176  0.8478
  112OSM    H2G11633   2.941   3.131  10.131 -0.7100  0.9310 -2.0467
  112OSM    C3F11634   3.090   3.209   9.988 -0.0500  0.4071  0.1380
  112OSM    H3F11635   3.161   3.293   9.993 -0.6729  0.9753 -0.3546
  112OSM    H3G11636   3.005   3.225   9.917 -0.6083 -0.8982  0.4726
  112OSM    C4F11637   3.158   3.080   9.941 -0.0177  0.5582  0.2707
  112OSM    H4F11638   3.088   2.997   9.964  1.2313 -0.5007  0.3144
  112OSM    H4G11639   3.245   3.059  10.006 -0.0181 -0.5192 -0.0631
  112OSM    C5F11640   3.191   3.087   9.790  0.1788  0.4806 -0.2214
  112OSM    H5F11641   3.114   3.141   9.731  0.7893 -1.0546 -2.5473
  112OSM    H5G11642   3.217   2.986   9.751 -2.7098 -1.0964  1.5396
  112OSM    C6F11643   3.312   3.178   9.777  0.0002  0.8129  0.2620
  112OSM    H6F11644   3.401   3.140   9.832  0.9818 -0.4293 -2.0393
  112OSM    H6G11645   3.286   3.273   9.827  0.5621  0.2224  1.7422
  112OSM    C7F11646   3.343   3.216   9.628  0.6652 -0.1844  0.1635
  112OSM    H7F11647   3.411   3.305   9.629  0.2218  0.2170 -1.4875
  112OSM    H7G11648   3.248   3.254   9.585  1.0826 -0.5999 -1.2063
  112OSM    C8F11649   3.391   3.095   9.546 -0.0466 -0.4344 -0.2865
  112OSM    H8F11650   3.322   3.008   9.546  1.4688 -1.7398 -2.4631
  112OSM    H8G11651   3.490   3.069   9.590  2.5944  0.2227 -5.0470
  112OSM    C9F11652   3.416   3.138   9.399  0.5470  0.3848 -0.5259
  112OSM    H9F11653   3.489   3.220   9.393  0.1924  0.9677  2.0354
  112OSM   C10F11654   3.354   3.105   9.287 -0.6176 -0.1547 -0.6909
  112OSM   H10F11655   3.383   3.173   9.206 -1.6524  1.5372  0.2718
  112OSM   C11F11656   3.242   3.001   9.271 -0.4260 -0.7307 -0.6081
  112OSM   H11F11657   3.169   3.000   9.355  0.4114 -0.1863  0.1429
  112OSM   H11G11658   3.292   2.901   9.272  2.0658  0.4003  2.2833
  112OSM   C12F11659   3.152   3.018   9.138 -0.3741  0.3784 -0.5133
  112OSM   H12F11660   3.110   3.121   9.128  2.7456  1.6191 -2.3254
  112OSM   H12G11661   3.061   2.955   9.150 -2.1496  2.9004  0.2128
  112OSM   C13F11662   3.222   2.983   9.011  0.2086 -0.0927 -1.4177
  112OSM   H13F11663   3.266   2.882   9.024  0.0437 -0.1109 -0.9886
  112OSM   H13G11664   3.291   3.065   8.985 -0.1591  0.3901 -0.8969
  112OSM   C14F11665   3.141   2.972   8.888  0.5103 -0.2492 -0.3212
  112OSM   H14F11666   3.092   3.071   8.880 -0.0107 -0.3967  0.8426
  112OSM   H14G11667   3.062   2.893   8.885 -1.3788  1.5183 -3.3771
  112OSM   C15F11668   3.213   2.957   8.754 -0.2635  0.8656 -0.0679
  112OSM   H15F11669   3.261   2.858   8.739 -1.8862 -0.2666  1.6796
  112OSM   H15G11670   3.290   3.036   8.740 -1.0839  1.2278 -3.5171
  112OSM   C16F11671   3.109   2.967   8.634 -0.0715 -0.2917 -0.0158
  112OSM   H16F11672   3.058   3.064   8.620  1.2825  0.4311 -0.0967
  112OSM   H16G11673   3.033   2.886   8.635 -0.5879  0.1885 -0.1471
  112OSM   C17F11674   3.178   2.940   8.497  0.8028 -0.5906 -0.4638
  112OSM   H17F11675   3.225   2.839   8.502  0.1911 -0.8288  1.0178
  112OSM   H17G11676   3.254   3.021   8.489  0.2942 -0.2298 -1.8936
  112OSM   C18F11677   3.087   2.958   8.370  0.5535 -0.5322 -0.1608
  112OSM   H18F11678   3.051   3.063   8.362  1.0227 -0.4519 -1.5910
  112OSM   H18G11679   2.994   2.898   8.380  0.2763 -0.3372 -1.4205
  112OSM   H18H11680   3.139   2.921   8.279  1.5002  0.0653  0.1171
  113OSM      N11681   2.369   3.146  10.748 -0.4436  0.9247 -0.5559
  113OSM    C1511682   2.455   3.258  10.702 -0.0268  0.7946  0.2760
  113OSM   H15A11683   2.549   3.240  10.751 -0.4807 -2.3225  0.2164
  113OSM   H15B11684   2.403   3.350  10.722  1.3882  1.2930  1.8765
  113OSM   H15C11685   2.477   3.254  10.596  1.6332 -0.2516  0.6189
  113OSM    C1411686   2.324   3.178  10.888  0.0960 -0.3842 -0.0385
  113OSM   H14A11687   2.246   3.253  10.898  1.7711  1.7208 -1.8558
  113OSM   H14B11688   2.409   3.209  10.947 -0.2142 -0.8317  0.6575
  113OSM   H14C11689   2.279   3.088  10.925  0.0636 -1.4597 -2.5228
  113OSM    C1311690   2.250   3.140  10.661  0.2308 -0.1387  0.0132
  113OSM   H13A11691   2.190   3.229  10.674 -0.1236 -0.3727 -0.0104
  113OSM   H13B11692   2.194   3.057  10.703 -1.0117  1.0875  0.9048
  113OSM   H13C11693   2.278   3.128  10.558  0.2170  0.5617 -0.0830
  113OSM    C1211694   2.439   3.009  10.743  0.7333  1.0871  0.5265
  113OSM   H12A11695   2.366   2.934  10.771  0.7210  0.8650 -0.0990
  113OSM   H12B11696   2.515   3.017  10.820  0.3893  2.8066  0.7112
  113OSM    C1111697   2.515   2.971  10.609  0.2953  0.1118 -0.2412
  113OSM   H11A11698   2.435   2.994  10.536 -0.3868  0.7147  0.6714
  113OSM   H11B11699   2.534   2.861  10.603 -0.6286 -0.0271 -0.7718
  113OSM      P11700   2.749   3.053  10.658  0.1104 -0.5027  0.0338
  113OSM    O1311701   2.816   3.188  10.661  0.1979  0.0374  0.3142
  113OSM    O1411702   2.727   2.992  10.785  0.5184  0.0886 -0.5810
  113OSM    O1111703   2.826   2.954  10.568 -0.9101 -0.2507 -0.3940
  113OSM    O1211704   2.622   3.060  10.577  0.3587  0.0264 -0.6448
  113OSM    C1S11705   2.800   2.926  10.431 -0.2655 -0.4360  0.4103
  113OSM    H1S11706   2.855   3.006  10.376  0.6833 -1.5787 -0.3454
  113OSM    H1T11707   2.696   2.938  10.395 -0.4643 -1.3530  0.6603
  113OSM     NF11708   2.777   2.751  10.264 -0.4654 -0.3193 -0.7124
  113OSM    HNF11709   2.685   2.711  10.263 -1.2431  1.3175  0.4204
  113OSM    C2S11710   2.839   2.780  10.394 -0.0734 -0.0353  0.1520
  113OSM    H2S11711   2.950   2.774  10.389 -0.0487 -1.2091  1.4502
  113OSM    C3S11712   2.807   2.664  10.492 -0.6339  0.3154 -0.4302
  113OSM    H3S11713   2.696   2.656  10.492 -0.6474  0.3522 -1.7078
  113OSM     O311714   2.844   2.692  10.634  0.2008 -0.1555  0.8264
  113OSM    HO311715   2.878   2.782  10.632 -0.8445  0.2410 -1.1171
  113OSM    C4S11716   2.876   2.530  10.453  0.0400  0.0081 -0.6120
  113OSM    H4S11717   2.816   2.473  10.380 -0.6843  1.3881 -1.1291
  113OSM    C5S11718   2.996   2.477  10.490  0.6257 -0.4319 -0.3379
  113OSM    H5S11719   3.064   2.537  10.553 -1.4587 -0.8807  2.5493
  113OSM    C6S11720   3.045   2.349  10.437  0.8172  0.4374 -0.4193
  113OSM    H6S11721   2.955   2.285  10.423  1.0134  0.1537 -0.4027
  113OSM    H6T11722   3.119   2.297  10.503 -2.8379 -1.2190  2.7694
  113OSM    C7S11723   3.098   2.363  10.298 -0.3100 -0.1553  0.4368
  113OSM    H7S11724   3.175   2.443  10.294 -0.5608  0.1228  1.1347
  113OSM    H7T11725   3.006   2.380  10.237 -0.7403 -1.3942  0.7014
  113OSM    C8S11726   3.173   2.237  10.252  0.4471  0.7563 -0.1757
  113OSM    H8S11727   3.098   2.155  10.244  0.4650  0.7335 -0.1045
  113OSM    H8T11728   3.241   2.197  10.330  1.8411 -2.0166 -2.5780
  113OSM    C9S11729   3.245   2.237  10.111 -0.2082  0.2212  0.0955
  113OSM    H9S11730   3.307   2.146  10.099  0.6408  0.9498 -1.3288
  113OSM    H9T11731   3.313   2.325  10.114  1.3324 -0.9372  0.2843
  113OSM   C10S11732   3.144   2.228   9.999 -0.5430 -0.2732 -1.0339
  113OSM   H10S11733   3.087   2.323  10.006  1.8365  1.2397 -0.8115
  113OSM   H10T11734   3.087   2.136  10.024 -3.0964  1.5797  0.5238
  113OSM   C11S11735   3.200   2.228   9.863  0.6430 -0.0774 -0.9181
  113OSM   H11S11736   3.296   2.172   9.865  0.7635  0.1504  0.4093
  113OSM   H11T11737   3.220   2.333   9.833 -4.1669  1.2144 -0.4760
  113OSM   C12S11738   3.113   2.173   9.752 -0.1074 -0.3051 -0.4141
  113OSM   H12S11739   3.033   2.246   9.727  0.1127  1.0396  2.3895
  113OSM   H12T11740   3.060   2.082   9.786  1.8393 -0.9310  1.1408
  113OSM   C13S11741   3.193   2.140   9.626 -0.2043  0.5440  0.5677
  113OSM   H13S11742   3.267   2.061   9.649  0.1000  0.7113  0.1835
  113OSM   H13T11743   3.244   2.236   9.601  1.4487 -1.0169 -2.6690
  113OSM   C14S11744   3.109   2.091   9.512 -0.2129  0.0702  0.0912
  113OSM   H14S11745   3.035   2.171   9.488 -1.1397 -0.4800  1.0463
  113OSM   H14T11746   3.056   1.998   9.542 -1.5816  0.5311 -0.7857
  113OSM   C15S11747   3.188   2.065   9.385  0.5025  0.2294  0.7199
  113OSM   H15S11748   3.285   2.014   9.408  0.1530 -1.2402 -0.8340
  113OSM   H15T11749   3.215   2.160   9.334 -1.6783  0.8967  0.7006
  113OSM   C16S11750   3.112   1.970   9.293  0.9137 -0.3871  0.6594
  113OSM   H16S11751   3.135   1.994   9.187 -3.0382 -1.1837 -0.5747
  113OSM   H16T11752   3.004   1.991   9.307  1.2869  2.6492 -0.3181
  113OSM   C17S11753   3.153   1.818   9.314 -0.0367 -0.1985  0.4882
  113OSM   H17S11754   3.132   1.788   9.419 -0.3205 -2.5855 -0.1807
  113OSM   H17T11755   3.261   1.805   9.290 -0.4563  0.2569 -1.9945
  113OSM   C18S11756   3.070   1.733   9.217 -0.6563  0.0715 -0.3816
  113OSM   H18S11757   3.052   1.775   9.116 -2.7793 -1.5407 -0.7321
  113OSM   H18T11758   2.966   1.720   9.254  0.6297  0.8733  4.1227
  113OSM   H18U11759   3.120   1.636   9.195 -1.4139 -0.1487 -1.1969
  113OSM    C1F11760   2.829   2.803  10.153 -0.8246  0.8185  0.2474
  113OSM     OF11761   2.944   2.847  10.156 -0.0433 -0.0363 -0.0516
  113OSM    C2F11762   2.744   2.802  10.022 -0.0255 -0.2626  0.0677
  113OSM    H2F11763   2.652   2.860  10.042 -0.1592 -0.8863  1.3440
  113OSM    H2G11764   2.720   2.694  10.008 -0.8193  0.0127 -0.7551
  113OSM    C3F11765   2.826   2.863   9.904  0.9404 -0.3611 -0.3131
  113OSM    H3F11766   2.917   2.800   9.890  1.7836  0.9828 -1.1968
  113OSM    H3G11767   2.869   2.960   9.936 -0.5374  0.0355  0.5205
  113OSM    C4F11768   2.757   2.882   9.769  0.2385  0.1858 -1.2065
  113OSM    H4F11769   2.685   2.966   9.768  0.1380  0.1145 -0.5534
  113OSM    H4G11770   2.696   2.792   9.746 -0.7646  0.6881 -0.5512
  113OSM    C5F11771   2.851   2.920   9.660  0.1244  0.0351 -0.4763
  113OSM    H5F11772   2.924   2.839   9.643  1.4294  1.3151 -1.1183
  113OSM    H5G11773   2.898   3.013   9.699  1.1880 -0.8404  0.3706
  113OSM    C6F11774   2.778   2.947   9.522  0.2610 -0.0247  0.1372
  113OSM    H6F11775   2.782   3.052   9.487 -0.8551 -0.6845 -2.1633
  113OSM    H6G11776   2.671   2.924   9.543  0.3724 -0.2837  0.4315
  113OSM    C7F11777   2.837   2.862   9.412  0.2600 -0.1402 -0.0114
  113OSM    H7F11778   2.835   2.757   9.449 -1.4710  0.8396  2.9932
  113OSM    H7G11779   2.947   2.880   9.408  0.3637  1.2436  4.2239
  113OSM    C8F11780   2.753   2.859   9.288 -0.5858  0.5293 -0.2542
  113OSM    H8F11781   2.825   2.852   9.203 -2.1181 -1.9060 -1.4485
  113OSM    H8G11782   2.714   2.963   9.281  2.6521  2.3288  3.9325
  113OSM    C9F11783   2.643   2.755   9.269 -0.0756 -1.0133 -0.0397
  113OSM    H9F11784   2.570   2.744   9.351 -1.4285 -1.0136 -1.2193
  113OSM   C10F11785   2.628   2.687   9.156 -0.1782  0.5032 -0.4396
  113OSM   H10F11786   2.537   2.624   9.149 -0.7522  1.2453  0.1521
  113OSM   C11F11787   2.713   2.695   9.031 -0.1094 -0.4579 -0.3199
  113OSM   H11F11788   2.760   2.595   9.015  0.2197 -0.2161 -0.8999
  113OSM   H11G11789   2.801   2.763   9.033 -0.2502 -0.2765 -0.2707
  113OSM   C12F11790   2.624   2.733   8.910 -0.2795 -0.2112  0.7318
  113OSM   H12F11791   2.573   2.828   8.937  0.1732  0.6555 -1.3033
  113OSM   H12G11792   2.545   2.654   8.907 -0.7272  0.2377  0.5226
  113OSM   C13F11793   2.689   2.738   8.768 -1.0909  0.1972  0.9372
  113OSM   H13F11794   2.763   2.655   8.755 -2.2027 -0.4747 -2.1224
  113OSM   H13G11795   2.748   2.832   8.771  0.3968 -0.6982  0.8960
  113OSM   C14F11796   2.586   2.733   8.661  0.3652 -0.1207  0.4456
  113OSM   H14F11797   2.505   2.808   8.675  1.3066  1.1485 -0.6815
  113OSM   H14G11798   2.549   2.630   8.680  0.1656  0.0663  1.1182
  113OSM   C15F11799   2.646   2.733   8.518 -0.2387 -0.1612 -0.7328
  113OSM   H15F11800   2.730   2.661   8.513  0.1629  0.2927 -0.6314
  113OSM   H15G11801   2.683   2.836   8.500  0.8911  0.3443  3.4292
  113OSM   C16F11802   2.552   2.693   8.403 -0.6591  0.6764 -0.1647
  113OSM   H16F11803   2.527   2.590   8.435  0.4560  0.5882  0.4890
  113OSM   H16G11804   2.614   2.698   8.311  0.4955  0.1637  0.5599
  113OSM   C17F11805   2.427   2.774   8.394  0.1243 -0.1039  0.1315
  113OSM   H17F11806   2.457   2.874   8.357  1.4825  0.5718  2.8160
  113OSM   H17G11807   2.380   2.795   8.492 -1.1945  1.6126 -0.8174
  113OSM   C18F11808   2.326   2.702   8.304 -0.1878 -0.6282 -0.6845
  113OSM   H18F11809   2.229   2.755   8.293 -0.3016 -1.1646 -2.5539
  113OSM   H18G11810   2.315   2.597   8.341  0.2621 -0.3027  0.4068
  113OSM   H18H11811   2.368   2.706   8.201  0.8099 -1.1013 -0.3151
  114OSM      N11812   4.643   3.410  11.076 -0.3252  0.9343  0.8171
  114OSM    C1511813   4.569   3.351  11.189  0.2280 -0.6164 -0.1169
  114OSM   H15A11814   4.636   3.340  11.273 -1.5138  0.7170  1.5302
  114OSM   H15B11815   4.516   3.265  11.153 -1.6331  0.9037 -1.2407
  114OSM   H15C11816   4.493   3.418  11.226  0.4096  0.0653 -0.9433
  114OSM    C1411817   4.544   3.457  10.979  0.5538  0.2874 -0.2732
  114OSM   H14A11818   4.591   3.514  10.901  0.0658  0.6077 -0.3433
  114OSM   H14B11819   4.477   3.528  11.026  0.4887 -0.9909  1.6830
  114OSM   H14C11820   4.487   3.375  10.938 -0.1640 -0.1680  1.5256
  114OSM    C1311821   4.711   3.529  11.130 -0.0882 -0.1439 -0.2223
  114OSM   H13A11822   4.649   3.601  11.180  0.7632  0.0253  0.6235
  114OSM   H13B11823   4.772   3.577  11.055  1.3126 -0.7847  0.4528
  114OSM   H13C11824   4.782   3.490  11.202  1.0186  1.2533 -0.5070
  114OSM    C1211825   4.734   3.309  11.012  0.2133  0.6872 -0.2327
  114OSM   H12A11826   4.804   3.265  11.082 -1.1483  1.7989  1.9399
  114OSM   H12B11827   4.801   3.361  10.944  0.0873  0.1238 -0.7994
  114OSM    C1111828   4.671   3.190  10.941  0.1476  0.0660  0.0876
  114OSM   H11A11829   4.758   3.135  10.899  1.6663  2.1690  0.3370
  114OSM   H11B11830   4.612   3.203  10.848  0.4898 -0.1295 -0.1597
  114OSM      P11831   4.639   2.987  11.112 -0.1229 -0.4005  0.3844
  114OSM    O1311832   4.785   2.975  11.099 -0.2215  0.9836  0.4201
  114OSM    O1411833   4.588   2.995  11.249  0.3564 -0.4035 -0.1953
  114OSM    O1111834   4.570   2.870  11.030 -0.4068 -0.0330  0.6692
  114OSM    O1211835   4.586   3.114  11.028  0.0153 -0.2304  0.3847
  114OSM    C1S11836   4.534   2.870  10.889 -0.8393 -0.0624  0.0101
  114OSM    H1S11837   4.522   2.972  10.846 -0.1357  1.1135  2.4019
  114OSM    H1T11838   4.449   2.799  10.880 -0.4307 -0.6436  0.6243
  114OSM     NF11839   4.629   2.802  10.662 -0.2012 -0.2719  0.4578
  114OSM    HNF11840   4.612   2.713  10.620 -0.5324  0.2514 -0.5722
  114OSM    C2S11841   4.651   2.802  10.803 -0.0726 -0.6320  0.1134
  114OSM    H2S11842   4.741   2.866  10.819 -0.1370 -0.9490  2.0530
  114OSM    C3S11843   4.681   2.664  10.868 -0.3132 -0.6946  0.1044
  114OSM    H3S11844   4.591   2.600  10.857 -2.1843  1.9048 -0.9094
  114OSM     O311845   4.720   2.666  11.000  0.2473 -0.4855 -0.1340
  114OSM    HO311846   4.701   2.753  11.035  3.3892 -0.1437  0.9864
  114OSM    C4S11847   4.799   2.610  10.796  0.3172 -0.7554 -0.2563
  114OSM    H4S11848   4.897   2.658  10.805 -0.1632  0.4740 -1.1825
  114OSM    C5S11849   4.787   2.499  10.724 -0.8277  0.7262 -0.0518
  114OSM    H5S11850   4.697   2.436  10.719  1.2012 -2.3115 -1.2562
  114OSM    C6S11851   4.913   2.429  10.676 -0.2907 -0.4818 -0.1214
  114OSM    H6S11852   4.917   2.319  10.694 -3.3916 -0.8093 -0.8910
  114OSM    H6T11853   5.006   2.458  10.729 -0.4423 -2.6198  1.4707
  114OSM    C7S11854   4.945   2.456  10.527  0.6699  0.7448  0.1480
  114OSM    H7S11855   4.865   2.409  10.465 -1.4432 -1.2333  3.9867
  114OSM    H7T11856   5.036   2.399  10.496  0.1808  0.4467 -0.7927
  114OSM    C8S11857   4.973   2.603  10.479 -0.0844 -0.3726 -0.3644
  114OSM    H8S11858   5.081   2.615  10.502 -0.1330  0.6982 -0.6400
  114OSM    H8T11859   4.915   2.663  10.551  1.0076 -2.2930  2.2562
  114OSM    C9S11860   4.943   2.633  10.333  0.2531 -0.5068 -0.3612
  114OSM    H9S11861   4.949   2.743  10.317  0.0978 -0.6035 -1.1718
  114OSM    H9T11862   4.839   2.599  10.310 -0.1816 -0.3637  1.2697
  114OSM   C10S11863   5.051   2.558  10.257  0.0402 -0.1210  0.0425
  114OSM   H10S11864   5.035   2.450  10.278 -2.4701 -0.0836 -1.2757
  114OSM   H10T11865   5.148   2.592  10.298 -1.8307  2.0529  3.0827
  114OSM   C11S11866   5.051   2.584  10.111 -0.1873  0.0714  0.5194
  114OSM   H11S11867   5.053   2.691  10.084 -0.0553 -0.5370 -2.1139
  114OSM   H11T11868   4.962   2.530  10.072 -0.0814 -1.7042  2.5177
  114OSM   C12S11869   5.179   2.528  10.040 -0.2822  0.2188 -0.1918
  114OSM   H12S11870   5.178   2.417  10.045 -1.6727  0.0949 -2.1345
  114OSM   H12T11871   5.275   2.558  10.086  0.7308 -1.3660 -1.1578
  114OSM   C13S11872   5.174   2.547   9.886 -0.4613 -0.4329  0.2680
  114OSM   H13S11873   5.270   2.506   9.846 -0.1363 -0.9915  1.5720
  114OSM   H13T11874   5.188   2.656   9.869 -1.6141  0.0855  2.3935
  114OSM   C14S11875   5.051   2.503   9.810 -0.6046 -0.3343  0.6981
  114OSM   H14S11876   4.959   2.547   9.853 -0.8811 -0.8170  0.6122
  114OSM   H14T11877   5.040   2.392   9.818  1.4845 -0.7544 -1.1086
  114OSM   C15S11878   5.066   2.540   9.666  0.0467  0.4732  0.6460
  114OSM   H15S11879   5.168   2.516   9.630  0.0271  3.0006 -1.4775
  114OSM   H15T11880   5.059   2.651   9.671 -0.7991  0.4961 -0.5482
  114OSM   C16S11881   4.959   2.492   9.568 -0.2481 -0.0826 -0.3481
  114OSM   H16S11882   4.955   2.381   9.567  1.3532 -0.1598 -0.2697
  114OSM   H16T11883   4.987   2.526   9.466 -0.9117  1.4672 -0.0450
  114OSM   C17S11884   4.813   2.531   9.601  0.4874  0.3391  0.3957
  114OSM   H17S11885   4.789   2.486   9.699 -0.3869  0.8575  0.4316
  114OSM   H17T11886   4.748   2.470   9.534  1.5014  0.4747 -0.7516
  114OSM   C18S11887   4.764   2.673   9.598 -0.4064 -0.4287 -0.0866
  114OSM   H18S11888   4.763   2.726   9.500 -0.9158 -0.0759  0.1059
  114OSM   H18T11889   4.833   2.738   9.656  0.5663 -0.3861 -1.2405
  114OSM   H18U11890   4.662   2.669   9.642  0.0737  0.4676  1.1828
  114OSM    C1F11891   4.617   2.912  10.579 -0.2071 -0.7128  0.4674
  114OSM     OF11892   4.651   3.025  10.631 -0.2621  0.7282  0.4992
  114OSM    C2F11893   4.578   2.890  10.429  0.2133 -0.0319  0.5023
  114OSM    H2F11894   4.568   2.981  10.366  3.1087 -0.1049 -0.2314
  114OSM    H2G11895   4.475   2.849  10.425  0.0897 -0.0049  2.6230
  114OSM    C3F11896   4.665   2.792  10.345 -0.3130 -1.3615  0.7157
  114OSM    H3F11897   4.675   2.706  10.415  0.9384 -1.8131  0.0228
  114OSM    H3G11898   4.768   2.833  10.331 -0.3767 -0.9984  1.2606
  114OSM    C4F11899   4.606   2.746  10.217  0.7791  0.9395 -0.2511
  114OSM    H4F11900   4.676   2.674  10.170 -2.1503 -1.5481 -1.1463
  114OSM    H4G11901   4.589   2.831  10.147 -2.2724 -0.3854 -1.3007
  114OSM    C5F11902   4.473   2.672  10.219 -0.4027  0.3322  0.4472
  114OSM    H5F11903   4.398   2.722  10.286  1.5386  1.6125  1.7866
  114OSM    H5G11904   4.479   2.572  10.267 -1.7592  1.6219  3.5795
  114OSM    C6F11905   4.426   2.666  10.069  0.5707 -0.1117  0.5370
  114OSM    H6F11906   4.501   2.604  10.015 -0.1786 -0.5736 -0.0019
  114OSM    H6G11907   4.423   2.761  10.012  0.9203 -0.8949 -0.8362
  114OSM    C7F11908   4.292   2.601  10.040 -1.1059 -0.0719 -0.6695
  114OSM    H7F11909   4.216   2.678  10.067 -2.0489 -1.3278  0.4250
  114OSM    H7G11910   4.280   2.518  10.113  2.9280  0.7049  1.1521
  114OSM    C8F11911   4.264   2.558   9.896  0.1318  0.2093  0.7446
  114OSM    H8F11912   4.312   2.460   9.873  0.1228  0.0984  1.1995
  114OSM    H8G11913   4.300   2.622   9.812  0.5824  0.3679  1.0558
  114OSM    C9F11914   4.114   2.544   9.885 -0.1848 -1.0641  0.3306
  114OSM    H9F11915   4.069   2.579   9.980 -1.6695 -1.7839 -0.0768
  114OSM   C10F11916   4.035   2.504   9.781 -0.5807 -0.0136  0.8959
  114OSM   H10F11917   3.926   2.518   9.785 -1.0213 -3.0546  1.7789
  114OSM   C11F11918   4.093   2.458   9.647  0.3835 -0.6957 -0.6332
  114OSM   H11F11919   4.049   2.360   9.618 -1.8110 -0.1569  0.6570
  114OSM   H11G11920   4.203   2.447   9.660  0.1304 -1.1743  1.5573
  114OSM   C12F11921   4.036   2.559   9.544  0.0089 -0.1792  0.2073
  114OSM   H12F11922   4.065   2.663   9.566 -0.5572  0.2800 -1.1386
  114OSM   H12G11923   3.925   2.559   9.554  0.0066  1.0192  0.2330
  114OSM   C13F11924   4.070   2.522   9.397  0.6490  0.2350 -0.2907
  114OSM   H13F11925   4.181   2.523   9.394  0.7032 -0.4786  0.8362
  114OSM   H13G11926   4.035   2.599   9.325  1.4692  0.3204 -0.6068
  114OSM   C14F11927   4.013   2.390   9.342 -0.3752 -0.5210  0.2177
  114OSM   H14F11928   3.902   2.394   9.333 -0.4546 -2.0530  0.1654
  114OSM   H14G11929   4.022   2.310   9.419 -0.7040 -0.9726 -0.2027
  114OSM   C15F11930   4.088   2.353   9.222 -0.4568  0.4948 -0.7320
  114OSM   H15F11931   4.190   2.336   9.264  0.5511  1.8260 -2.5039
  114OSM   H15G11932   4.097   2.445   9.160  2.7130  0.1940 -0.9141
  114OSM   C16F11933   4.036   2.235   9.145  0.1716 -0.4252  0.1946
  114OSM   H16F11934   3.940   2.249   9.090 -0.4114 -2.9749  0.4386
  114OSM   H16G11935   4.017   2.161   9.226 -2.4386 -0.7034 -0.5685
  114OSM   C17F11936   4.133   2.174   9.043 -0.5952  0.1094  0.1975
  114OSM   H17F11937   4.084   2.084   9.002  0.1827 -0.2083 -0.0572
  114OSM   H17G11938   4.229   2.156   9.096  0.7434 -0.2872 -2.1952
  114OSM   C18F11939   4.148   2.284   8.932 -0.0071 -0.7987 -0.3159
  114OSM   H18F11940   4.205   2.243   8.846  1.0658  0.5579 -0.2803
  114OSM   H18G11941   4.191   2.378   8.972 -2.0513  0.3881 -0.7465
  114OSM   H18H11942   4.046   2.310   8.895 -1.2569 -4.0587  0.5318
  115OSM      N11943   6.377   5.518   5.989 -0.7749 -0.7347 -0.4682
  115OSM    C1511944   6.314   5.379   5.978  0.4895 -0.3859  0.0858
  115OSM   H15A11945   6.250   5.377   5.890  0.1965 -0.8468  0.3014
  115OSM   H15B11946   6.262   5.360   6.071 -0.3867  0.5533 -0.1964
  115OSM   H15C11947   6.387   5.300   5.976 -1.3608 -2.1974  0.1363
  115OSM    C1411948   6.409   5.556   5.849  0.2329 -0.6679 -0.1374
  115OSM   H14A11949   6.315   5.559   5.796 -0.5829 -0.6278  1.2613
  115OSM   H14B11950   6.472   5.483   5.800  2.9954  0.9789  0.7396
  115OSM   H14C11951   6.455   5.653   5.840  1.4077 -1.1960 -0.0220
  115OSM    C1311952   6.284   5.617   6.040 -0.4586  0.3738  0.0596
  115OSM   H13A11953   6.322   5.718   6.039 -1.3187  0.7286  1.3033
  115OSM   H13B11954   6.262   5.604   6.145  1.9860  1.8589  0.8283
  115OSM   H13C11955   6.188   5.615   5.990 -0.5440  0.6859  0.2056
  115OSM    C1211956   6.496   5.491   6.084  0.2386 -0.0095 -0.3938
  115OSM   H12A11957   6.573   5.444   6.024  1.6506  0.8968  0.6659
  115OSM   H12B11958   6.464   5.427   6.166  0.3691  0.5431  0.0916
  115OSM    C1111959   6.557   5.618   6.156 -0.1053  0.0783 -0.3809
  115OSM   H11A11960   6.640   5.571   6.212 -0.4009 -1.4081 -1.1332
  115OSM   H11B11961   6.485   5.668   6.224  0.0373 -1.1266  0.6859
  115OSM      P11962   6.736   5.733   5.992 -0.1220  0.2221  0.3417
  115OSM    O1311963   6.780   5.604   5.940  0.5455  0.3695  0.5193
  115OSM    O1411964   6.726   5.842   5.889  0.3858 -0.3065  0.0241
  115OSM    O1111965   6.830   5.777   6.110  0.9355 -0.0819 -0.3024
  115OSM    O1211966   6.599   5.716   6.057 -0.2216  0.4172 -0.3336
  115OSM    C1S11967   6.797   5.876   6.200  0.1224 -0.1006  0.6976
  115OSM    H1S11968   6.740   5.960   6.156  2.5683  2.0071  1.3189
  115OSM    H1T11969   6.894   5.929   6.206 -0.3293  0.6927  1.1969
  115OSM     NF11970   6.731   5.955   6.427 -0.2471  0.2810  0.3771
  115OSM    HNF11971   6.790   5.944   6.507  0.6267  0.9757 -0.1510
  115OSM    C2S11972   6.734   5.836   6.339  0.6201  0.4395  0.6442
  115OSM    H2S11973   6.628   5.813   6.314  1.5630 -0.4779 -3.2783
  115OSM    C3S11974   6.814   5.716   6.395 -1.0039 -0.2242  0.4889
  115OSM    H3S11975   6.910   5.766   6.422 -0.7529  1.1200 -2.4803
  115OSM     O311976   6.867   5.614   6.314 -0.1473  0.4083 -0.0116
  115OSM    HO311977   6.855   5.646   6.225 -3.7220 -1.1039 -0.2318
  115OSM    C4S11978   6.749   5.655   6.514 -0.3705  0.2595 -0.7097
  115OSM    H4S11979   6.767   5.727   6.595 -1.2886  1.8947 -1.9039
  115OSM    C5S11980   6.662   5.545   6.526  0.2434  0.5599 -0.0849
  115OSM    H5S11981   6.632   5.484   6.439  0.1105  1.8415 -0.9593
  115OSM    C6S11982   6.605   5.511   6.659 -0.2562 -0.3208  0.2776
  115OSM    H6S11983   6.566   5.407   6.663  2.8324 -1.6723 -1.2324
  115OSM    H6T11984   6.520   5.580   6.677  1.6580  1.7436  1.9201
  115OSM    C7S11985   6.692   5.530   6.782  0.5110  0.1038  0.2852
  115OSM    H7S11986   6.720   5.638   6.786 -2.3788  0.9527 -0.4442
  115OSM    H7T11987   6.768   5.449   6.783 -2.4925 -2.9526 -0.7176
  115OSM    C8S11988   6.607   5.505   6.908 -0.0209 -0.1902 -0.0094
  115OSM    H8S11989   6.574   5.399   6.911  0.8761 -0.4696  0.3350
  115OSM    H8T11990   6.524   5.578   6.899 -1.1905 -1.5209 -0.5102
  115OSM    C9S11991   6.679   5.527   7.043 -0.0935 -0.2219  0.1829
  115OSM    H9S11992   6.707   5.634   7.054 -3.0370  0.5280  1.2700
  115OSM    H9T11993   6.775   5.472   7.035  1.4582  2.4372 -0.7566
  115OSM   C10S11994   6.607   5.483   7.175  0.0645 -0.6238  0.1231
  115OSM   H10S11995   6.571   5.378   7.164  2.0848 -1.3796  0.2275
  115OSM   H10T11996   6.520   5.551   7.186 -0.8900 -1.4538 -1.8727
  115OSM   C11S11997   6.697   5.492   7.297 -0.5809  0.8338 -0.7207
  115OSM   H11S11998   6.728   5.598   7.311 -1.1271  0.9311 -0.2064
  115OSM   H11T11999   6.779   5.419   7.277 -2.8329 -2.3195  0.6307
  115OSM   C12S12000   6.636   5.444   7.429  0.1791  0.2008  0.2293
  115OSM   H12S12001   6.600   5.339   7.431  0.9909 -0.1354 -1.4486
  115OSM   H12T12002   6.537   5.493   7.437 -1.0185 -1.8412 -1.1337
  115OSM   C13S12003   6.713   5.486   7.553  0.8714  0.1521 -0.3269
  115OSM   H13S12004   6.716   5.597   7.551 -1.3843  0.3059  1.2368
  115OSM   H13T12005   6.808   5.430   7.562 -0.9339 -2.9269  1.3447
  115OSM   C14S12006   6.643   5.446   7.684 -0.2617 -0.0392 -0.6571
  115OSM   H14S12007   6.639   5.335   7.685  0.8644 -0.0993 -1.4283
  115OSM   H14T12008   6.543   5.494   7.682 -0.0824  0.3127 -1.5923
  115OSM   C15S12009   6.713   5.514   7.803  0.2947 -0.2936 -0.1833
  115OSM   H15S12010   6.705   5.624   7.788  0.7198  0.3534  3.3591
  115OSM   H15T12011   6.822   5.499   7.790  0.7380 -2.1422  3.9184
  115OSM   C16S12012   6.661   5.476   7.941  0.0116  0.2548 -0.4713
  115OSM   H16S12013   6.657   5.366   7.955 -1.9363  0.3835  0.3831
  115OSM   H16T12014   6.558   5.519   7.942  0.0413  0.5747 -3.0194
  115OSM   C17S12015   6.727   5.544   8.056  0.1018  0.0322 -0.3921
  115OSM   H17S12016   6.728   5.655   8.048 -0.3051  0.1384  0.7626
  115OSM   H17T12017   6.835   5.517   8.067  0.2416  0.4961 -0.6011
  115OSM   C18S12018   6.670   5.519   8.194  0.8339 -0.0870 -0.2206
  115OSM   H18S12019   6.669   5.410   8.217 -1.2071 -0.5681 -2.2274
  115OSM   H18T12020   6.560   5.538   8.200  1.0007  0.4174  2.3567
  115OSM   H18U12021   6.722   5.575   8.274 -0.0066 -0.9041  0.9401
  115OSM    C1F12022   6.660   6.070   6.406 -0.1381 -0.3136  0.3611
  115OSM     OF12023   6.569   6.074   6.326  0.4321  0.2670 -0.7686
  115OSM    C2F12024   6.683   6.191   6.487 -0.6137 -0.6031 -0.4425
  115OSM    H2F12025   6.581   6.210   6.525 -0.0920  0.3410  0.5544
  115OSM    H2G12026   6.722   6.273   6.423 -1.6175  2.1561  2.2227
  115OSM    C3F12027   6.783   6.181   6.597 -0.8177  0.3731  0.8966
  115OSM    H3F12028   6.882   6.152   6.557 -1.4821 -0.9301  0.1489
  115OSM    H3G12029   6.755   6.101   6.670  1.2039 -0.8446  0.4144
  115OSM    C4F12030   6.790   6.309   6.679  0.3101  0.0584  0.1678
  115OSM    H4F12031   6.692   6.312   6.732 -0.8057 -0.6331 -1.7550
  115OSM    H4G12032   6.795   6.399   6.614  1.8293  0.9693  1.4601
  115OSM    C5F12033   6.903   6.317   6.780 -0.1312  0.0538 -0.4378
  115OSM    H5F12034   6.933   6.423   6.795 -1.3964  0.3724 -0.0493
  115OSM    H5G12035   6.994   6.264   6.744  0.2055  0.5979 -0.3935
  115OSM    C6F12036   6.862   6.245   6.908 -1.6455  0.9351 -1.0694
  115OSM    H6F12037   6.842   6.136   6.901  1.6852 -0.0783  2.0118
  115OSM    H6G12038   6.768   6.294   6.942 -1.5699  0.1612  0.3055
  115OSM    C7F12039   6.966   6.256   7.024  0.4868  0.6735 -0.1454
  115OSM    H7F12040   6.971   6.360   7.064 -0.6276  0.7257 -0.1061
  115OSM    H7G12041   7.064   6.230   6.979  1.1075 -0.0551  1.5363
  115OSM    C8F12042   6.937   6.151   7.133  0.1651  0.0539  0.0931
  115OSM    H8F12043   6.923   6.050   7.089 -1.3601 -0.8168  2.4042
  115OSM    H8G12044   6.838   6.169   7.179 -1.1460  1.1380 -2.9065
  115OSM    C9F12045   7.040   6.127   7.234 -0.8661 -0.0413  0.4656
  115OSM    H9F12046   7.127   6.062   7.215 -2.1356 -1.7170  0.1708
  115OSM   C10F12047   7.049   6.196   7.345 -0.3857 -0.0738 -0.3494
  115OSM   H10F12048   7.136   6.178   7.409 -1.2512  0.7609  1.1077
  115OSM   C11F12049   6.957   6.299   7.403 -0.0538  0.6008  0.5730
  115OSM   H11F12050   6.873   6.321   7.334 -1.0662 -1.7616  0.9633
  115OSM   H11G12051   6.989   6.400   7.437 -0.6118  0.9961 -0.0533
  115OSM   C12F12052   6.880   6.249   7.532  0.1966 -0.1976  0.3349
  115OSM   H12F12053   6.844   6.144   7.519 -0.1183 -0.0273 -0.2359
  115OSM   H12G12054   6.789   6.310   7.550 -0.8926 -2.4220  3.1439
  115OSM   C13F12055   6.954   6.245   7.658 -0.3289  0.7105 -0.3259
  115OSM   H13F12056   6.985   6.344   7.696 -0.5521  0.7338 -0.2032
  115OSM   H13G12057   7.045   6.185   7.632 -0.9948  0.1552 -1.4476
  115OSM   C14F12058   6.887   6.152   7.774  0.0755 -0.2649  0.3871
  115OSM   H14F12059   6.966   6.080   7.805 -0.1663 -1.5232 -1.7143
  115OSM   H14G12060   6.809   6.083   7.734  2.3108 -2.3858 -0.5698
  115OSM   C15F12061   6.823   6.214   7.895  0.0129  0.2989  0.2438
  115OSM   H15F12062   6.825   6.143   7.981  2.3462  0.1468  0.1332
  115OSM   H15G12063   6.716   6.240   7.876 -0.1148  0.0273  0.5751
  115OSM   C16F12064   6.898   6.340   7.940 -0.2387 -0.0821  0.2599
  115OSM   H16F12065   6.832   6.375   8.023  0.4893  0.4517  0.6249
  115OSM   H16G12066   6.893   6.422   7.866  0.1054 -1.0086 -0.8144
  115OSM   C17F12067   7.048   6.330   7.978 -0.5621 -0.0100  0.2977
  115OSM   H17F12068   7.112   6.277   7.904 -0.0530  0.2181  0.5668
  115OSM   H17G12069   7.052   6.282   8.079  0.8198  0.6213  0.5726
  115OSM   C18F12070   7.088   6.480   8.000  0.0035  0.0132  0.0193
  115OSM   H18F12071   7.052   6.510   8.101 -2.3274 -2.8269  0.1463
  115OSM   H18G12072   7.034   6.537   7.922 -2.4683 -2.1131  0.0406
  115OSM   H18H12073   7.197   6.501   7.988  0.4146 -2.1942 -0.5625
  116OSM      N12074   5.763   2.798   6.208  0.2062 -0.1314 -0.5986
  116OSM    C1512075   5.685   2.796   6.332 -0.0364  0.0154  0.0404
  116OSM   H15A12076   5.702   2.706   6.389  0.1958  0.4993  0.7562
  116OSM   H15B12077   5.582   2.797   6.301 -0.5720 -0.8988  1.6880
  116OSM   H15C12078   5.712   2.881   6.395 -2.0980 -0.3387  1.5229
  116OSM    C1412079   5.695   2.900   6.124 -0.5611 -0.3363  0.2513
  116OSM   H14A12080   5.657   2.992   6.166 -0.2820  0.4278 -1.1073
  116OSM   H14B12081   5.619   2.850   6.066 -0.1944 -0.8004  0.1710
  116OSM   H14C12082   5.757   2.934   6.042 -0.5416 -0.2593  0.2980
  116OSM    C1312083   5.904   2.839   6.238  0.1850  0.5106  0.4126
  116OSM   H13A12084   5.941   2.769   6.312 -2.1260  0.6954  1.8299
  116OSM   H13B12085   5.902   2.932   6.294  1.2113 -1.6961  4.5742
  116OSM   H13C12086   5.974   2.850   6.157  1.4811 -0.1181  1.3987
  116OSM    C1212087   5.753   2.668   6.128 -0.1349 -0.6292 -0.0539
  116OSM   H12A12088   5.831   2.668   6.054  0.1936 -0.6780  0.2902
  116OSM   H12B12089   5.649   2.659   6.098 -0.0914 -1.2552 -0.0322
  116OSM    C1112090   5.778   2.530   6.200 -0.3852  0.3744 -0.2253
  116OSM   H11A12091   5.873   2.548   6.256  0.2423 -0.6027 -0.9533
  116OSM   H11B12092   5.792   2.450   6.125 -1.5714 -0.9527  0.8911
  116OSM      P12093   5.533   2.430   6.252 -0.2017 -0.3964 -0.4084
  116OSM    O1312094   5.454   2.521   6.168  0.3107 -0.2311  0.8696
  116OSM    O1412095   5.559   2.293   6.205 -0.0984 -0.2629 -0.0210
  116OSM    O1112096   5.484   2.439   6.400  0.8702 -0.3228  0.4064
  116OSM    O1212097   5.673   2.500   6.291  0.2509  0.5074  0.3686
  116OSM    C1S12098   5.519   2.349   6.498  0.2694  0.4159 -0.4144
  116OSM    H1S12099   5.626   2.321   6.496 -0.1346 -1.1970 -1.8693
  116OSM    H1T12100   5.458   2.259   6.479 -1.0181  0.8186  1.5165
  116OSM     NF12101   5.480   2.297   6.741 -0.2056 -0.3189  0.2826
  116OSM    HNF12102   5.400   2.248   6.775 -0.1705  0.2640  1.2348
  116OSM    C2S12103   5.460   2.398   6.638 -0.5285  0.2237  0.8024
  116OSM    H2S12104   5.526   2.482   6.669 -0.8184  0.8569 -0.2637
  116OSM    C3S12105   5.316   2.443   6.625  0.3353 -0.6571 -0.5361
  116OSM    H3S12106   5.240   2.364   6.609  0.2510 -0.4296 -1.2979
  116OSM     O312107   5.284   2.527   6.518 -0.3742 -0.3555 -0.2880
  116OSM    HO312108   5.346   2.498   6.451  0.3395 -0.6910  0.4972
  116OSM    C4S12109   5.275   2.518   6.748  0.3054  0.0047 -0.1001
  116OSM    H4S12110   5.304   2.624   6.747  3.0129 -0.6659 -0.3117
  116OSM    C5S12111   5.186   2.483   6.836  0.2135  0.4082 -0.4302
  116OSM    H5S12112   5.137   2.386   6.818  1.0238 -0.1103  0.0883
  116OSM    C6S12113   5.146   2.559   6.961 -0.5841 -0.4423  0.1198
  116OSM    H6S12114   5.211   2.515   7.039  1.5227  1.1448 -0.6342
  116OSM    H6T12115   5.037   2.543   6.971 -0.9873  0.9191 -1.5067
  116OSM    C7S12116   5.173   2.712   6.976 -0.1893  0.0746  0.2352
  116OSM    H7S12117   5.135   2.772   6.890 -0.0311  1.7497  1.2843
  116OSM    H7T12118   5.282   2.731   6.988 -0.0761  0.5309 -1.2612
  116OSM    C8S12119   5.114   2.762   7.105 -0.1960  0.2361  0.0494
  116OSM    H8S12120   5.014   2.719   7.127 -0.1601 -0.0863 -0.3882
  116OSM    H8T12121   5.101   2.872   7.111 -0.2436  0.3052 -1.0116
  116OSM    C9S12122   5.199   2.715   7.220 -0.1918  0.3779 -0.2431
  116OSM    H9S12123   5.308   2.722   7.202 -0.0942 -0.7603 -0.1403
  116OSM    H9T12124   5.167   2.610   7.237  1.3007 -0.1106 -0.3172
  116OSM   C10S12125   5.163   2.801   7.341 -0.0414  0.1065  0.2901
  116OSM   H10S12126   5.059   2.783   7.375  0.6284 -3.5266  0.7844
  116OSM   H10T12127   5.174   2.908   7.315 -1.2392  0.3839  0.8582
  116OSM   C11S12128   5.248   2.776   7.459  0.7995  0.0961 -1.0609
  116OSM   H11S12129   5.350   2.818   7.445  2.1559 -2.6648 -0.3017
  116OSM   H11T12130   5.260   2.666   7.471 -0.2565 -0.2965 -3.1503
  116OSM   C12S12131   5.184   2.837   7.592  0.2204  0.3955  0.2635
  116OSM   H12S12132   5.094   2.775   7.609  0.0615  0.6732  0.4369
  116OSM   H12T12133   5.149   2.943   7.590  1.0117  0.6576 -0.0173
  116OSM   C13S12134   5.281   2.816   7.708  0.0026 -0.8264 -0.1577
  116OSM   H13S12135   5.331   2.913   7.727  1.3805 -1.7160  0.9731
  116OSM   H13T12136   5.346   2.729   7.688  1.0257 -0.1680  0.2543
  116OSM   C14S12137   5.209   2.781   7.834 -0.6399 -0.2333  0.1215
  116OSM   H14S12138   5.139   2.696   7.821 -0.0423 -0.6253 -0.6148
  116OSM   H14T12139   5.156   2.876   7.856 -0.5203 -0.1647  0.1140
  116OSM   C15S12140   5.295   2.754   7.956  0.0060  0.0387 -0.9577
  116OSM   H15S12141   5.370   2.833   7.975 -0.4412  0.1885  0.2551
  116OSM   H15T12142   5.355   2.661   7.945 -1.6613 -1.1094 -0.6736
  116OSM   C16S12143   5.222   2.738   8.089 -0.2148  0.0006  0.3944
  116OSM   H16S12144   5.123   2.689   8.078 -1.1600  2.1385 -1.5129
  116OSM   H16T12145   5.195   2.843   8.112  1.9851  0.6138  0.4013
  116OSM   C17S12146   5.299   2.673   8.206  0.0490 -0.2199 -0.5273
  116OSM   H17S12147   5.330   2.567   8.196  0.8594 -0.2389  1.5678
  116OSM   H17T12148   5.231   2.674   8.294  0.7289 -0.2790  0.0131
  116OSM   C18S12149   5.420   2.766   8.252 -0.0261 -0.8475  0.0008
  116OSM   H18S12150   5.393   2.864   8.207 -0.3177 -1.2959 -0.8308
  116OSM   H18T12151   5.522   2.739   8.219  0.2156 -0.1668  0.1780
  116OSM   H18U12152   5.415   2.774   8.362 -0.0926 -0.2217 -0.0458
  116OSM    C1F12153   5.598   2.251   6.776 -0.7844  0.2874  0.6593
  116OSM     OF12154   5.702   2.295   6.724 -0.5681  0.2588 -0.2781
  116OSM    C2F12155   5.596   2.160   6.896 -0.4870  0.7889  0.2203
  116OSM    H2F12156   5.541   2.069   6.866 -0.8475  1.4619 -1.2383
  116OSM    H2G12157   5.540   2.216   6.974 -1.4147 -0.3188  0.3778
  116OSM    C3F12158   5.740   2.140   6.945  0.2814  0.1529 -0.2738
  116OSM    H3F12159   5.779   2.242   6.966 -0.9689  0.6837 -0.4032
  116OSM    H3G12160   5.805   2.092   6.870 -0.9143  0.1222 -1.3230
  116OSM    C4F12161   5.731   2.073   7.084  0.3084 -0.7007 -0.1450
  116OSM    H4F12162   5.690   1.970   7.073 -0.6970 -0.1658 -1.8878
  116OSM    H4G12163   5.664   2.130   7.152 -0.1021  1.7157 -2.4195
  116OSM    C5F12164   5.857   2.092   7.158  0.0859 -0.2828 -0.1518
  116OSM    H5F12165   5.880   2.200   7.145  1.6052 -0.6920 -1.1212
  116OSM    H5G12166   5.943   2.045   7.106  1.6321  1.6130  0.5586
  116OSM    C6F12167   5.857   2.049   7.308 -0.8293  0.0857  0.4663
  116OSM    H6F12168   5.768   2.094   7.356 -1.3070  1.4601 -1.5822
  116OSM    H6G12169   5.951   2.080   7.359 -1.0981 -0.0958  1.0793
  116OSM    C7F12170   5.847   1.893   7.325 -0.1747 -0.3427 -0.3368
  116OSM    H7F12171   5.939   1.852   7.278  0.0053 -0.5591  0.2019
  116OSM    H7G12172   5.774   1.861   7.247  1.7355 -0.6215 -2.0983
  116OSM    C8F12173   5.841   1.835   7.469 -0.0173 -0.2445  0.0352
  116OSM    H8F12174   5.920   1.883   7.531 -1.4359  1.3985  0.6540
  116OSM    H8G12175   5.856   1.726   7.456  1.5842  0.1666 -2.0930
  116OSM    C9F12176   5.707   1.849   7.548 -0.1317  0.1134  0.0545
  116OSM    H9F12177   5.623   1.793   7.503  0.5046 -0.5633 -0.3179
  116OSM   C10F12178   5.683   1.917   7.660  0.4535 -0.1655 -0.3061
  116OSM   H10F12179   5.580   1.916   7.698  0.7357  2.7810  0.8262
  116OSM   C11F12180   5.777   2.000   7.745 -0.8470 -0.6560 -0.1303
  116OSM   H11F12181   5.722   2.089   7.782 -0.0910  0.1459 -0.8793
  116OSM   H11G12182   5.857   2.049   7.686 -0.7114 -1.4448 -0.6305
  116OSM   C12F12183   5.860   1.926   7.853 -1.1388  0.1498  0.5624
  116OSM   H12F12184   5.924   2.008   7.891 -0.1691  0.4421 -1.5947
  116OSM   H12G12185   5.922   1.844   7.810 -3.6821 -0.8522 -1.4414
  116OSM   C13F12186   5.775   1.856   7.960  0.5806  0.2921 -0.4973
  116OSM   H13F12187   5.723   1.773   7.908  4.3078 -1.1773 -2.2231
  116OSM   H13G12188   5.704   1.928   8.008 -1.2442 -0.9492 -1.2120
  116OSM   C14F12189   5.851   1.803   8.082 -0.8379  0.0106  0.1201
  116OSM   H14F12190   5.919   1.887   8.108  1.7882 -1.1703 -2.4639
  116OSM   H14G12191   5.915   1.719   8.047 -1.5327  0.1919 -1.6709
  116OSM   C15F12192   5.749   1.769   8.195  0.6341  0.1010 -0.0334
  116OSM   H15F12193   5.677   1.692   8.160 -0.3529  0.5954  0.8331
  116OSM   H15G12194   5.690   1.860   8.220  0.6377 -0.2791  1.4364
  116OSM   C16F12195   5.814   1.718   8.322 -0.0631  0.1112  0.1020
  116OSM   H16F12196   5.898   1.782   8.355  1.4544 -0.0568 -3.0716
  116OSM   H16G12197   5.859   1.619   8.299 -2.5648 -1.3287  0.9699
  116OSM   C17F12198   5.714   1.703   8.447 -0.3326 -0.2362  0.4869
  116OSM   H17F12199   5.654   1.797   8.443 -0.5398 -0.2616  2.1545
  116OSM   H17G12200   5.770   1.694   8.543  0.5494  2.3421  0.3002
  116OSM   C18F12201   5.617   1.583   8.427 -0.4699 -0.0297 -0.0788
  116OSM   H18F12202   5.688   1.503   8.397 -1.1920 -0.3729 -0.9178
  116OSM   H18G12203   5.545   1.616   8.349  0.2080  1.1577 -0.2115
  116OSM   H18H12204   5.567   1.559   8.523 -0.5976 -2.9970 -0.7672
  117OSM      N12205   2.822   2.246   6.069 -0.2497  0.0279 -0.5832
  117OSM    C1512206   2.975   2.236   6.079 -0.3995  0.3949  0.7226
  117OSM   H15A12207   3.027   2.259   5.988 -0.9427 -0.3662  0.2019
  117OSM   H15B12208   2.999   2.136   6.113 -1.2901  0.0930  0.5161
  117OSM   H15C12209   3.007   2.303   6.157 -0.3665  0.8659  0.3033
  117OSM    C1412210   2.781   2.384   6.039 -0.2194 -0.5707  0.2012
  117OSM   H14A12211   2.802   2.444   6.126  1.0873  0.6892 -0.9162
  117OSM   H14B12212   2.679   2.384   6.003 -0.3787 -0.6568  0.6538
  117OSM   H14C12213   2.841   2.418   5.956 -1.6040 -2.7661 -1.8234
  117OSM    C1312214   2.777   2.154   5.965 -0.4462  0.7531  0.2677
  117OSM   H13A12215   2.676   2.183   5.941 -0.3479  0.0102 -1.1794
  117OSM   H13B12216   2.798   2.052   5.993  3.6612  0.7904 -1.7717
  117OSM   H13C12217   2.835   2.173   5.875  0.4124  0.9178  0.8479
  117OSM    C1212218   2.757   2.209   6.201 -0.7425  0.1568  0.4238
  117OSM   H12A12219   2.781   2.104   6.215  0.3022  0.2816 -0.2478
  117OSM   H12B12220   2.650   2.219   6.198 -0.8350 -0.8784 -1.7691
  117OSM    C1112221   2.805   2.282   6.332 -0.3936 -0.5863 -0.1723
  117OSM   H11A12222   2.914   2.271   6.348 -0.8011 -1.0990  2.6997
  117OSM   H11B12223   2.764   2.227   6.419  0.4300 -0.1220  0.5172
  117OSM      P12224   2.617   2.453   6.362  0.0076  0.1090 -0.3015
  117OSM    O1312225   2.586   2.578   6.292 -0.4575  0.1840  0.0732
  117OSM    O1412226   2.531   2.341   6.326  0.4030  1.0115  0.9623
  117OSM    O1112227   2.624   2.479   6.517  0.7051  0.8697  0.8487
  117OSM    O1212228   2.768   2.418   6.330  0.0436  0.4108 -0.2323
  117OSM    C1S12229   2.721   2.552   6.587  0.3182 -0.0072 -0.5854
  117OSM    H1S12230   2.691   2.659   6.582 -0.7364 -0.1718  1.4264
  117OSM    H1T12231   2.820   2.544   6.538  0.8240  2.6249 -0.1797
  117OSM     NF12232   2.840   2.578   6.809 -0.7856 -0.2228  0.6534
  117OSM    HNF12233   2.917   2.523   6.836 -0.3276 -0.6105 -1.2934
  117OSM    C2S12234   2.735   2.503   6.737 -0.5264  0.6840  0.0452
  117OSM    H2S12235   2.639   2.529   6.785 -1.1048 -0.3601 -0.5011
  117OSM    C3S12236   2.752   2.343   6.754  0.7288  0.0089  0.1697
  117OSM    H3S12237   2.849   2.306   6.715  0.0581 -0.4439 -1.1094
  117OSM     O312238   2.655   2.278   6.674  0.5781 -0.2855 -0.4614
  117OSM    HO312239   2.621   2.345   6.613  1.0248 -0.4653 -0.9147
  117OSM    C4S12240   2.745   2.320   6.904  0.5631 -0.3738 -0.0762
  117OSM    H4S12241   2.843   2.328   6.953  0.6313 -0.8835 -0.1220
  117OSM    C5S12242   2.647   2.289   6.997  0.9478 -0.2584  0.0537
  117OSM    H5S12243   2.546   2.271   6.957  1.8003 -2.0636 -1.4229
  117OSM    C6S12244   2.672   2.269   7.144  0.0682 -0.3272  0.0109
  117OSM    H6S12245   2.604   2.197   7.194 -1.7003  1.4559  0.2821
  117OSM    H6T12246   2.639   2.363   7.194  0.2895 -0.9861  1.4521
  117OSM    C7S12247   2.820   2.240   7.179 -0.1024  0.7410  0.3125
  117OSM    H7S12248   2.888   2.315   7.134  1.7787 -1.2312 -0.2911
  117OSM    H7T12249   2.848   2.140   7.138 -0.6063  0.6995  0.0639
  117OSM    C8S12250   2.843   2.232   7.333  0.2315  0.4056  0.6585
  117OSM    H8S12251   2.808   2.320   7.392 -0.5491  0.6461 -0.1510
  117OSM    H8T12252   2.952   2.225   7.351 -0.0321  1.4800  3.2048
  117OSM    C9S12253   2.775   2.110   7.400  0.0731  0.5112  0.1551
  117OSM    H9S12254   2.771   2.022   7.331 -1.3589  0.1191  0.7044
  117OSM    H9T12255   2.671   2.143   7.424 -0.0660  0.0276  0.2354
  117OSM   C10S12256   2.839   2.054   7.531  0.5278 -0.4553 -0.2385
  117OSM   H10S12257   2.851   2.140   7.599 -1.1067 -0.7959  0.5118
  117OSM   H10T12258   2.939   2.008   7.512  1.4265  1.2769  0.1611
  117OSM   C11S12259   2.738   1.966   7.601  0.1550  0.5905 -0.4064
  117OSM   H11S12260   2.705   1.882   7.537 -0.8713  0.1411  0.6888
  117OSM   H11T12261   2.651   2.032   7.620 -1.2574 -1.3049 -0.0486
  117OSM   C12S12262   2.794   1.901   7.730 -0.2670 -0.1434  0.7327
  117OSM   H12S12263   2.905   1.902   7.731 -0.2624  0.6123  2.0771
  117OSM   H12T12264   2.766   1.796   7.710 -0.4936 -0.2463  1.5823
  117OSM   C13S12265   2.733   1.966   7.850 -0.7351  0.7145  0.6927
  117OSM   H13S12266   2.623   1.948   7.843 -0.4829 -0.3589 -1.4474
  117OSM   H13T12267   2.745   2.076   7.859 -1.4200  0.7922  0.6901
  117OSM   C14S12268   2.780   1.893   7.976 -0.2215  0.0831  0.5487
  117OSM   H14S12269   2.736   1.792   7.985 -1.1452  0.6542  3.1186
  117OSM   H14T12270   2.738   1.952   8.060 -0.9854 -0.2897  0.4400
  117OSM   C15S12271   2.937   1.893   7.993 -0.1049  1.0966 -0.8418
  117OSM   H15S12272   2.964   1.995   7.960  0.5784  2.4786  3.3741
  117OSM   H15T12273   2.978   1.810   7.932 -1.9710  0.5328 -1.3790
  117OSM   C16S12274   2.985   1.873   8.147  0.7042 -0.1152  0.5908
  117OSM   H16S12275   3.076   1.810   8.136  1.2037  1.0739 -3.6520
  117OSM   H16T12276   2.906   1.817   8.202 -0.0803 -0.6220 -1.0017
  117OSM   C17S12277   3.019   2.000   8.220 -0.7251 -0.0231 -0.6382
  117OSM   H17S12278   2.936   2.074   8.209 -1.2080 -0.4009  0.2792
  117OSM   H17T12279   3.106   2.046   8.169  0.5020 -0.0038  1.3463
  117OSM   C18S12280   3.061   1.985   8.360  0.1555 -0.1548  0.1295
  117OSM   H18S12281   3.159   1.934   8.359  0.1325 -0.2351  1.2345
  117OSM   H18T12282   2.994   1.915   8.414  0.1865 -0.8437 -0.7017
  117OSM   H18U12283   3.083   2.071   8.427 -0.6667  0.4646 -0.3628
  117OSM    C1F12284   2.838   2.711   6.826  0.0186  1.1094  0.1384
  117OSM     OF12285   2.740   2.770   6.787 -0.2021  0.3912 -0.5984
  117OSM    C2F12286   2.955   2.773   6.887  0.1324 -0.7146 -0.3803
  117OSM    H2F12287   3.045   2.737   6.833 -0.6713 -0.6750 -1.7851
  117OSM    H2G12288   2.959   2.735   6.992  1.6612 -0.4252 -0.3037
  117OSM    C3F12289   2.941   2.922   6.891  0.4137  0.5477 -0.3747
  117OSM    H3F12290   2.847   2.961   6.937  0.4752 -1.1406  1.2814
  117OSM    H3G12291   2.947   2.960   6.787  0.2745 -1.3335 -1.0902
  117OSM    C4F12292   3.060   2.993   6.958  0.3120 -0.2731 -0.5872
  117OSM    H4F12293   3.055   3.101   6.932 -1.9464  0.0313  0.8530
  117OSM    H4G12294   3.157   2.948   6.927 -0.3801 -0.7322 -2.1636
  117OSM    C5F12295   3.050   2.994   7.117  0.9657 -0.8218 -0.2113
  117OSM    H5F12296   3.045   2.888   7.150  0.7115  0.0050  2.6250
  117OSM    H5G12297   2.958   3.052   7.137  0.3587 -2.5228  2.4443
  117OSM    C6F12298   3.181   3.056   7.183  0.2489  1.0763  0.7340
  117OSM    H6F12299   3.183   3.166   7.164 -2.1488  1.1952  0.8698
  117OSM    H6G12300   3.272   3.014   7.136 -2.1485 -1.9996 -1.5026
  117OSM    C7F12301   3.187   3.026   7.336  0.3809  0.1585  0.0230
  117OSM    H7F12302   3.171   2.916   7.345  2.8895 -0.1669  1.5970
  117OSM    H7G12303   3.113   3.082   7.396  0.3638  1.0124 -0.7835
  117OSM    C8F12304   3.328   3.071   7.385  0.2688 -0.1552  0.3219
  117OSM    H8F12305   3.395   3.076   7.297 -0.0545  0.9996  0.1162
  117OSM    H8G12306   3.361   2.991   7.455 -2.7337 -0.7857  1.1613
  117OSM    C9F12307   3.323   3.210   7.450  0.3424  0.4963 -0.3659
  117OSM    H9F12308   3.238   3.277   7.434 -0.7950 -0.6370  0.7394
  117OSM   C10F12309   3.395   3.248   7.556 -0.4920 -0.6077  0.1975
  117OSM   H10F12310   3.387   3.352   7.591 -1.7087 -0.5245 -0.2613
  117OSM   C11F12311   3.505   3.168   7.622  0.8277  0.0269  0.3738
  117OSM   H11F12312   3.601   3.222   7.630  0.3185  0.7467  2.2163
  117OSM   H11G12313   3.531   3.075   7.567 -0.5414 -0.8025  1.0613
  117OSM   C12F12314   3.470   3.145   7.763  0.1422 -0.1903  0.0917
  117OSM   H12F12315   3.535   3.061   7.794  0.5720 -0.0849 -0.5204
  117OSM   H12G12316   3.366   3.107   7.777 -1.4221  3.6066  0.0190
  117OSM   C13F12317   3.508   3.266   7.848 -0.3907  0.2827 -0.5366
  117OSM   H13F12318   3.455   3.360   7.822  0.0280  0.4798 -0.6844
  117OSM   H13G12319   3.616   3.290   7.839  0.2107 -1.8453  0.3601
  117OSM   C14F12320   3.484   3.235   8.004 -0.3119  0.0532 -0.3041
  117OSM   H14F12321   3.536   3.141   8.030 -0.8631  0.0558  0.8597
  117OSM   H14G12322   3.378   3.205   8.017 -0.2443 -0.0252  0.0811
  117OSM   C15F12323   3.513   3.344   8.109 -0.2355 -0.0661 -0.3224
  117OSM   H15F12324   3.496   3.287   8.203  0.9019 -0.5491 -0.3950
  117OSM   H15G12325   3.440   3.428   8.099 -2.2029 -1.9776 -4.1717
  117OSM   C16F12326   3.656   3.402   8.106  0.2219 -0.3400  0.0428
  117OSM   H16F12327   3.663   3.442   8.209 -2.6716  0.2908  0.0964
  117OSM   H16G12328   3.649   3.489   8.037 -1.1670 -0.4405  0.0227
  117OSM   C17F12329   3.768   3.302   8.092 -0.5434  0.3981  0.3276
  117OSM   H17F12330   3.756   3.229   8.175  0.6324 -1.6351 -1.1746
  117OSM   H17G12331   3.752   3.242   7.999  2.2233 -0.2718  0.1950
  117OSM   C18F12332   3.902   3.377   8.086  0.0827 -1.0580 -0.3956
  117OSM   H18F12333   3.984   3.304   8.069  2.2118  1.6272 -2.6592
  117OSM   H18G12334   3.917   3.433   8.181  1.2821 -0.5223 -0.8763
  117OSM   H18H12335   3.903   3.451   8.003  1.3867  0.7277  1.1075
  118OSM      N12336   3.274   6.197   5.819  0.1470  0.2992 -0.1487
  118OSM    C1512337   3.239   6.288   5.708  0.2010 -0.5407  0.7956
  118OSM   H15A12338   3.190   6.239   5.624 -0.9956  2.0096 -0.1096
  118OSM   H15B12339   3.323   6.348   5.677 -0.1725  0.2718  1.3161
  118OSM   H15C12340   3.168   6.367   5.730 -1.4487 -1.3149 -1.4153
  118OSM    C1412341   3.168   6.087   5.811  0.1295 -0.5083 -1.2574
  118OSM   H14A12342   3.072   6.137   5.811  0.5604  0.3512 -0.3927
  118OSM   H14B12343   3.169   6.020   5.896 -0.3008  1.6410  0.5553
  118OSM   H14C12344   3.177   6.033   5.718  0.3848 -0.2543 -1.3817
  118OSM    C1312345   3.407   6.139   5.777  0.6976 -0.2051  0.1376
  118OSM   H13A12346   3.492   6.206   5.776  1.6503 -1.3746  0.2843
  118OSM   H13B12347   3.408   6.102   5.675  1.9952 -1.3178  0.5363
  118OSM   H13C12348   3.436   6.050   5.829  0.5994 -2.4900 -3.3558
  118OSM    C1212349   3.270   6.269   5.946 -0.2531  0.5251 -1.2147
  118OSM   H12A12350   3.292   6.191   6.017 -2.8333 -0.1644 -1.0497
  118OSM   H12B12351   3.175   6.314   5.970 -0.1715  0.3599 -0.5695
  118OSM    C1112352   3.393   6.362   5.955  1.0095  0.7490  0.8059
  118OSM   H11A12353   3.372   6.450   5.891 -3.4364 -0.4242  0.3252
  118OSM   H11B12354   3.492   6.314   5.936 -0.1526 -1.1342 -0.9080
  118OSM      P12355   3.321   6.537   6.144  0.1679  0.2958 -0.4466
  118OSM    O1312356   3.405   6.599   6.249  0.2514 -0.4949  0.4513
  118OSM    O1412357   3.287   6.621   6.024 -0.2173 -0.0968 -0.4163
  118OSM    O1112358   3.193   6.481   6.213  0.2362  0.1541 -0.0656
  118OSM    O1212359   3.395   6.407   6.089 -0.1865  0.6159 -0.1528
  118OSM    C1S12360   3.196   6.364   6.289  0.6560  0.1421  0.6556
  118OSM    H1S12361   3.295   6.327   6.325  1.0073  0.4803  0.0655
  118OSM    H1T12362   3.167   6.286   6.215  0.9944  1.8770 -1.4239
  118OSM     NF12363   3.110   6.270   6.501 -0.4493  0.4576 -0.0252
  118OSM    HNF12364   3.055   6.189   6.481 -1.5387  0.6816  1.8144
  118OSM    C2S12365   3.094   6.373   6.400 -0.4009 -0.2316 -0.3379
  118OSM    H2S12366   3.107   6.475   6.441 -1.2231  0.2414 -1.1991
  118OSM    C3S12367   2.954   6.361   6.336  1.2248  0.7172 -0.3876
  118OSM    H3S12368   2.939   6.259   6.295 -1.5062  0.8093  0.1734
  118OSM     O312369   2.925   6.460   6.239  0.2449  0.1372  0.1498
  118OSM    HO312370   3.010   6.486   6.202  0.7333 -0.4771  0.8019
  118OSM    C4S12371   2.855   6.363   6.452  0.5827 -0.3664 -0.3440
  118OSM    H4S12372   2.802   6.270   6.475 -0.8611  1.0135  2.5096
  118OSM    C5S12373   2.815   6.470   6.525  0.7234  0.2649 -0.3420
  118OSM    H5S12374   2.862   6.569   6.512  0.7738  0.3467  0.3933
  118OSM    C6S12375   2.711   6.478   6.636  0.1837 -0.6134  0.1545
  118OSM    H6S12376   2.762   6.470   6.735 -1.9564 -2.0878  1.2217
  118OSM    H6T12377   2.634   6.400   6.620 -0.9966  0.5135  0.2820
  118OSM    C7S12378   2.635   6.613   6.620  0.3399  0.0112 -0.3262
  118OSM    H7S12379   2.583   6.617   6.522  0.5367 -1.8406 -0.5455
  118OSM    H7T12380   2.706   6.699   6.621  0.3284  0.2266 -4.2264
  118OSM    C8S12381   2.530   6.629   6.732 -0.4483  0.3396 -0.2080
  118OSM    H8S12382   2.584   6.600   6.825  0.5130  0.7220 -0.6244
  118OSM    H8T12383   2.448   6.557   6.713 -0.4768  0.6808 -1.4887
  118OSM    C9S12384   2.468   6.768   6.739  0.3987  0.4484 -0.1423
  118OSM    H9S12385   2.420   6.796   6.643  1.0267 -1.2469 -0.9940
  118OSM    H9T12386   2.553   6.836   6.757 -0.2525  1.1532  0.3087
  118OSM   C10S12387   2.364   6.788   6.856 -0.8989  0.0056 -0.8739
  118OSM   H10S12388   2.270   6.730   6.849 -2.4151  1.7244  2.8344
  118OSM   H10T12389   2.345   6.896   6.874  0.2812 -0.1121  1.3942
  118OSM   C11S12390   2.420   6.724   6.998 -0.4604 -1.0306  0.6041
  118OSM   H11S12391   2.463   6.622   6.987 -0.2972 -0.8606 -0.3569
  118OSM   H11T12392   2.344   6.698   7.075 -0.3871 -0.2673  0.9421
  118OSM   C12S12393   2.523   6.823   7.066 -0.9145 -0.1927 -0.3879
  118OSM   H12S12394   2.491   6.928   7.052  0.8163  0.4446  0.0866
  118OSM   H12T12395   2.614   6.810   7.003 -1.6045  0.3262 -1.5173
  118OSM   C13S12396   2.544   6.790   7.216  0.1695 -0.5528  0.2645
  118OSM   H13S12397   2.627   6.853   7.254  1.6007 -3.3048  2.0171
  118OSM   H13T12398   2.571   6.682   7.216 -0.7148 -0.7850 -0.2248
  118OSM   C14S12399   2.423   6.813   7.309 -0.2526  0.4493  0.3810
  118OSM   H14S12400   2.348   6.737   7.279  0.0493  0.4651 -0.4627
  118OSM   H14T12401   2.381   6.916   7.300  2.2609  1.4866 -0.3771
  118OSM   C15S12402   2.455   6.776   7.456 -0.3337  0.8137 -0.0546
  118OSM   H15S12403   2.541   6.833   7.498  0.4246  0.3883 -0.9702
  118OSM   H15T12404   2.477   6.667   7.455 -0.4092  0.8008 -0.4263
  118OSM   C16S12405   2.347   6.794   7.560 -0.0253 -0.5714  0.1682
  118OSM   H16S12406   2.266   6.721   7.538  0.3896 -0.5947 -1.4112
  118OSM   H16T12407   2.301   6.895   7.547  1.5908  0.2772  0.8403
  118OSM   C17S12408   2.381   6.774   7.714  0.6112 -0.0357  0.2941
  118OSM   H17S12409   2.475   6.828   7.738  1.3851 -0.1747 -2.1509
  118OSM   H17T12410   2.401   6.669   7.743 -4.0516 -1.0175  0.7326
  118OSM   C18S12411   2.276   6.839   7.805 -0.1957  0.4784  0.3012
  118OSM   H18S12412   2.295   6.827   7.914 -3.1989 -1.7033  0.7085
  118OSM   H18T12413   2.187   6.777   7.781 -0.4059  1.7146 -2.4216
  118OSM   H18U12414   2.257   6.942   7.769 -0.1492  0.3641 -0.0574
  118OSM    C1F12415   3.210   6.273   6.586  0.1932 -0.0000  0.0619
  118OSM     OF12416   3.288   6.367   6.594  0.3292  0.7126  0.5430
  118OSM    C2F12417   3.251   6.141   6.649 -0.2929  0.3709 -1.1544
  118OSM    H2F12418   3.321   6.102   6.572 -0.9799 -0.8582 -1.1821
  118OSM    H2G12419   3.165   6.075   6.675 -0.9429  1.0516 -1.5100
  118OSM    C3F12420   3.336   6.158   6.778 -0.5121  0.1584  0.2216
  118OSM    H3F12421   3.426   6.214   6.743  1.9598 -3.2274  0.6993
  118OSM    H3G12422   3.375   6.058   6.807  0.4474  0.0571 -1.3204
  118OSM    C4F12423   3.254   6.220   6.896 -0.4539 -0.1036 -0.4257
  118OSM    H4F12424   3.156   6.167   6.905 -1.1893  1.2178 -0.4430
  118OSM    H4G12425   3.229   6.326   6.874 -0.4348 -0.3484 -1.7224
  118OSM    C5F12426   3.334   6.217   7.031  0.7684  0.5575  0.0382
  118OSM    H5F12427   3.418   6.289   7.017  1.2102  0.0302 -0.0488
  118OSM    H5G12428   3.373   6.114   7.042  0.5720  0.5079  0.2800
  118OSM    C6F12429   3.256   6.267   7.155 -0.5052  0.1138  1.0111
  118OSM    H6F12430   3.176   6.191   7.168 -2.2323  1.2477 -2.0048
  118OSM    H6G12431   3.217   6.370   7.140 -1.3621 -0.2101  1.0189
  118OSM    C7F12432   3.344   6.244   7.279 -0.0874 -0.4159 -0.4507
  118OSM    H7F12433   3.447   6.266   7.243  0.4538 -0.9451  0.7486
  118OSM    H7G12434   3.347   6.135   7.297  1.9158 -0.8589 -2.9609
  118OSM    C8F12435   3.304   6.324   7.401 -0.6416 -0.0448  0.3688
  118OSM    H8F12436   3.278   6.425   7.365  0.5669 -0.9504 -3.4667
  118OSM    H8G12437   3.396   6.324   7.464  1.8980 -1.8166 -3.0368
  118OSM    C9F12438   3.180   6.279   7.465 -0.1701 -0.5208  0.3165
  118OSM    H9F12439   3.107   6.260   7.385 -0.0997  2.7528 -0.6432
  118OSM   C10F12440   3.154   6.270   7.597 -0.5411 -0.4644  0.2562
  118OSM   H10F12441   3.054   6.238   7.627 -0.0643 -3.0360 -0.6648
  118OSM   C11F12442   3.257   6.299   7.706 -0.2141 -0.4837 -0.4944
  118OSM   H11F12443   3.205   6.350   7.790  0.4355  1.3230 -1.1271
  118OSM   H11G12444   3.334   6.371   7.671  0.9381 -0.7397  1.4347
  118OSM   C12F12445   3.334   6.182   7.756  0.1656 -0.2873 -0.2558
  118OSM   H12F12446   3.361   6.119   7.669 -1.3695  1.8967 -2.4190
  118OSM   H12G12447   3.268   6.114   7.815  1.6289  1.5992  3.9996
  118OSM   C13F12448   3.458   6.222   7.837 -0.5863  0.1738  0.3544
  118OSM   H13F12449   3.420   6.285   7.920 -1.4470  0.0802  0.0421
  118OSM   H13G12450   3.521   6.285   7.771 -1.7866  1.0241 -0.0142
  118OSM   C14F12451   3.550   6.105   7.886  0.3071  0.1891  0.0600
  118OSM   H14F12452   3.594   6.030   7.817  0.7393  0.4038  0.1016
  118OSM   H14G12453   3.485   6.049   7.956 -0.3697  1.5296  0.5446
  118OSM   C15F12454   3.668   6.167   7.969 -0.0836  0.0277  0.5376
  118OSM   H15F12455   3.623   6.258   8.015  2.0015  2.1767 -1.4364
  118OSM   H15G12456   3.737   6.204   7.891  0.2308  0.0681  0.8334
  118OSM   C16F12457   3.731   6.067   8.056 -0.3038  0.1014  0.1524
  118OSM   H16F12458   3.772   5.983   7.997  1.7061  0.6949  0.6169
  118OSM   H16G12459   3.668   6.030   8.139  1.3867 -1.1621  0.9202
  118OSM   C17F12460   3.856   6.142   8.114 -0.1022 -0.9884 -0.0909
  118OSM   H17F12461   3.818   6.222   8.181  1.6968 -1.4424  1.5523
  118OSM   H17G12462   3.906   6.196   8.031  1.6870  0.2714  1.7346
  118OSM   C18F12463   3.961   6.068   8.190  0.4080  0.2259 -0.5664
  118OSM   H18F12464   3.917   6.035   8.287 -1.7706  0.8777 -1.2781
  118OSM   H18G12465   4.051   6.130   8.211  0.6685 -0.5414  0.7551
  118OSM   H18H12466   4.004   5.977   8.143  0.7267 -0.4513  0.9713
  119OSM      N12467   2.689   4.000   6.315  0.0684 -0.7092  0.4387
  119OSM    C1512468   2.607   4.060   6.205 -0.9018 -0.2636  0.2810
  119OSM   H15A12469   2.522   3.997   6.184 -0.0530 -1.7546  1.1442
  119OSM   H15B12470   2.671   4.070   6.119 -1.3970  0.0658 -0.0560
  119OSM   H15C12471   2.583   4.163   6.228  2.0720  0.8448 -1.0384
  119OSM    C1412472   2.819   4.067   6.316 -0.5836  0.3504 -0.0286
  119OSM   H14A12473   2.887   4.021   6.386 -2.7550 -1.2193  1.1813
  119OSM   H14B12474   2.820   4.171   6.347  1.1931  0.9266 -1.8441
  119OSM   H14C12475   2.865   4.061   6.219  0.9618  0.9644  0.6376
  119OSM    C1312476   2.598   4.022   6.439 -0.5994  0.0402  0.0474
  119OSM   H13A12477   2.542   4.114   6.440 -1.1092 -0.2441  1.9235
  119OSM   H13B12478   2.644   3.994   6.533  2.0287 -0.0609 -1.1699
  119OSM   H13C12479   2.517   3.952   6.426 -0.6331  0.3743 -1.7825
  119OSM    C1212480   2.712   3.856   6.294  0.1175  0.2554 -0.9880
  119OSM   H12A12481   2.617   3.809   6.309  0.9639 -0.9819  0.7737
  119OSM   H12B12482   2.771   3.824   6.379 -0.4794 -0.7912 -0.9611
  119OSM    C1112483   2.775   3.813   6.165  0.3176  0.3141  0.3927
  119OSM   H11A12484   2.748   3.882   6.083  3.4303  1.8237  0.4822
  119OSM   H11B12485   2.741   3.710   6.141  2.0526 -0.1928 -0.0669
  119OSM      P12486   3.017   3.738   6.236 -0.1328 -0.2005  0.2261
  119OSM    O1312487   3.109   3.672   6.140  0.4278 -0.3608  0.1024
  119OSM    O1412488   3.077   3.833   6.332 -0.7434 -0.0570  0.0261
  119OSM    O1112489   2.942   3.621   6.314 -0.0300  0.5601  0.0642
  119OSM    O1212490   2.915   3.814   6.156  0.2093 -0.2414 -0.2852
  119OSM    C1S12491   2.985   3.555   6.434 -0.6281 -0.1671  0.5298
  119OSM    H1S12492   3.065   3.609   6.490 -0.3775 -0.1640  0.1767
  119OSM    H1T12493   3.037   3.460   6.411  1.4836  1.0431  0.0130
  119OSM     NF12494   2.923   3.501   6.670 -0.4072  0.5480  0.5933
  119OSM    HNF12495   2.925   3.405   6.699 -2.4661 -0.3447 -1.8342
  119OSM    C2S12496   2.872   3.529   6.533 -0.8314  0.3770  0.4874
  119OSM    H2S12497   2.821   3.628   6.539  0.0660  0.8858 -0.0227
  119OSM    C3S12498   2.776   3.424   6.483  0.1618 -0.1302 -0.2294
  119OSM    H3S12499   2.824   3.326   6.462 -0.0901 -0.3482  0.2053
  119OSM     O312500   2.725   3.452   6.354  0.0431 -0.3788  0.4679
  119OSM    HO312501   2.773   3.528   6.319 -1.7164 -0.3125 -2.0589
  119OSM    C4S12502   2.656   3.423   6.576 -0.0935  0.0852  0.3102
  119OSM    H4S12503   2.606   3.520   6.587 -2.3910 -1.0298  0.1104
  119OSM    C5S12504   2.586   3.322   6.619  0.1916  0.9956 -0.2734
  119OSM    H5S12505   2.608   3.218   6.593 -0.8612 -0.0065  2.4417
  119OSM    C6S12506   2.468   3.338   6.707  1.1817  0.1281  0.3571
  119OSM    H6S12507   2.376   3.305   6.654  0.2439  1.4390  1.1216
  119OSM    H6T12508   2.450   3.444   6.733 -0.0600 -0.2325  1.0573
  119OSM    C7S12509   2.476   3.256   6.844  0.1551 -0.3780  0.7897
  119OSM    H7S12510   2.469   3.146   6.831  2.5502 -0.4474 -0.4661
  119OSM    H7T12511   2.390   3.299   6.901  0.7285  2.5594 -0.3946
  119OSM    C8S12512   2.607   3.277   6.920  0.3666 -0.1749  0.0633
  119OSM    H8S12513   2.674   3.360   6.890 -1.4938  0.4553 -2.8693
  119OSM    H8T12514   2.671   3.189   6.897 -0.3506 -0.9415  0.9069
  119OSM    C9S12515   2.577   3.278   7.075 -0.2056 -1.2052  0.5919
  119OSM    H9S12516   2.502   3.197   7.089 -1.6052 -0.4581 -1.8557
  119OSM    H9T12517   2.535   3.378   7.098  1.7012 -0.4062  0.7971
  119OSM   C10S12518   2.711   3.273   7.160  0.0823  0.6222  0.8514
  119OSM   H10S12519   2.764   3.370   7.150  0.9306  0.4041  2.7986
  119OSM   H10T12520   2.772   3.193   7.114 -1.1578 -0.8572  1.6884
  119OSM   C11S12521   2.697   3.234   7.308  0.3946 -0.2076  0.0938
  119OSM   H11S12522   2.618   3.157   7.313 -1.3069  1.4316 -0.4365
  119OSM   H11T12523   2.647   3.318   7.360 -0.0688 -0.3255 -0.1527
  119OSM   C12S12524   2.826   3.202   7.387  0.7878 -0.4383  0.1424
  119OSM   H12S12525   2.874   3.115   7.337  2.0315  2.6271 -4.7649
  119OSM   H12T12526   2.803   3.180   7.493 -0.0193 -1.9139 -0.3099
  119OSM   C13S12527   2.938   3.309   7.386 -0.1767 -0.0826  0.5312
  119OSM   H13S12528   2.990   3.306   7.287  0.8949  0.5642  1.0494
  119OSM   H13T12529   3.023   3.281   7.451  0.9177  0.8546 -0.4413
  119OSM   C14S12530   2.911   3.454   7.424 -0.2408  0.8800  0.2255
  119OSM   H14S12531   2.805   3.474   7.399 -0.2347  3.3412  1.8407
  119OSM   H14T12532   2.971   3.527   7.366  0.2262  1.7910  1.8076
  119OSM   C15S12533   2.936   3.487   7.574 -0.0739  0.6312 -0.3822
  119OSM   H15S12534   3.044   3.497   7.599  0.0511  1.3738 -1.1752
  119OSM   H15T12535   2.897   3.403   7.634 -0.2874  1.8898  1.2903
  119OSM   C16S12536   2.867   3.625   7.625 -0.3853  0.3315  0.1922
  119OSM   H16S12537   2.758   3.612   7.641 -0.5608  1.9061  0.4428
  119OSM   H16T12538   2.871   3.703   7.546  1.5524 -3.1472 -3.5401
  119OSM   C17S12539   2.924   3.674   7.751 -0.0451 -0.4363  0.3577
  119OSM   H17S12540   2.872   3.769   7.777 -0.3607  0.3880 -2.8808
  119OSM   H17T12541   3.033   3.690   7.741  0.5270 -2.5264  2.3958
  119OSM   C18S12542   2.905   3.584   7.871  0.3374  0.7542 -0.3523
  119OSM   H18S12543   2.941   3.627   7.967 -1.0444  0.8384  0.1612
  119OSM   H18T12544   2.950   3.483   7.857  0.3380  0.5582  0.9163
  119OSM   H18U12545   2.796   3.568   7.888  0.3986  1.0534  0.3681
  119OSM    C1F12546   3.010   3.571   6.737  0.4781 -0.1352 -0.5486
  119OSM     OF12547   3.046   3.681   6.711 -0.0355 -0.2027  0.6224
  119OSM    C2F12548   3.060   3.513   6.865 -0.6335  0.2453  0.5276
  119OSM    H2F12549   3.086   3.407   6.844 -1.6141  0.0288  0.3574
  119OSM    H2G12550   2.974   3.514   6.937 -1.4405 -1.2318 -0.3699
  119OSM    C3F12551   3.186   3.582   6.921 -0.7828 -0.1226 -0.9265
  119OSM    H3F12552   3.180   3.692   6.934 -1.9174 -0.2595 -0.2011
  119OSM    H3G12553   3.275   3.562   6.857 -1.0123  0.1099 -1.3184
  119OSM    C4F12554   3.217   3.528   7.067  0.2402 -0.9500  0.4161
  119OSM    H4F12555   3.198   3.419   7.076 -1.0279 -0.5990  2.4526
  119OSM    H4G12556   3.148   3.590   7.127 -1.1544 -0.3432 -1.7225
  119OSM    C5F12557   3.363   3.546   7.094 -0.4110 -0.3351  0.5747
  119OSM    H5F12558   3.389   3.654   7.088 -2.7142  0.1988 -1.4794
  119OSM    H5G12559   3.426   3.493   7.020 -0.4252 -0.7702  0.8747
  119OSM    C6F12560   3.400   3.489   7.234  0.1626 -0.4574  0.4385
  119OSM    H6F12561   3.502   3.515   7.268 -0.8947  3.3000  1.2873
  119OSM    H6G12562   3.386   3.380   7.221  0.9642 -0.5143  0.0030
  119OSM    C7F12563   3.313   3.547   7.352  0.1830  0.8709 -0.2910
  119OSM    H7F12564   3.360   3.509   7.445  0.7702  0.5398 -0.7162
  119OSM    H7G12565   3.217   3.491   7.350  0.2402  0.7461  0.2854
  119OSM    C8F12566   3.280   3.700   7.356  0.3391 -0.6521 -0.1416
  119OSM    H8F12567   3.187   3.704   7.416  1.8991 -1.3739  2.5071
  119OSM    H8G12568   3.263   3.720   7.248 -2.0744  0.9042  0.4394
  119OSM    C9F12569   3.400   3.776   7.406  0.0980 -0.2669 -1.1530
  119OSM    H9F12570   3.477   3.811   7.336  1.8066 -0.3337  0.6310
  119OSM   C10F12571   3.415   3.817   7.528 -0.4140  0.6215 -0.2459
  119OSM   H10F12572   3.513   3.853   7.563 -0.2255  0.9503 -1.1022
  119OSM   C11F12573   3.315   3.778   7.636  0.1685 -0.8334  0.1604
  119OSM   H11F12574   3.311   3.671   7.663  0.8454 -0.6766  0.9293
  119OSM   H11G12575   3.216   3.821   7.612 -0.5499 -1.0420  2.4775
  119OSM   C12F12576   3.350   3.860   7.757  0.1405 -0.0855 -1.6379
  119OSM   H12F12577   3.334   3.970   7.758  3.5477  0.6684  2.7357
  119OSM   H12G12578   3.457   3.840   7.778 -0.4281 -1.6843  0.0120
  119OSM   C13F12579   3.268   3.815   7.880 -0.2825 -0.2531  0.4486
  119OSM   H13F12580   3.281   3.705   7.890  4.4234 -0.2807 -2.6774
  119OSM   H13G12581   3.162   3.835   7.853 -0.2829  0.1219  0.7249
  119OSM   C14F12582   3.291   3.896   8.009 -0.4349  0.2026 -0.5109
  119OSM   H14F12583   3.216   3.856   8.080  0.5319  0.7626  0.8528
  119OSM   H14G12584   3.274   4.005   7.994  2.3752  0.6007 -1.3849
  119OSM   C15F12585   3.436   3.874   8.062  0.7335  0.2814 -0.0097
  119OSM   H15F12586   3.503   3.928   7.992  0.2453 -0.4509 -1.0832
  119OSM   H15G12587   3.448   3.764   8.052  0.3240  0.1561  0.7558
  119OSM   C16F12588   3.462   3.913   8.205  0.7439  0.5333 -0.2704
  119OSM   H16F12589   3.414   3.853   8.285 -0.1994 -0.0033 -1.2210
  119OSM   H16G12590   3.415   4.014   8.212 -0.0441  0.2719 -1.5231
  119OSM   C17F12591   3.616   3.905   8.245  0.0110  0.1320  0.4268
  119OSM   H17F12592   3.605   3.883   8.353 -3.6538 -0.7674  0.0055
  119OSM   H17G12593   3.660   4.004   8.219 -0.6679  0.3356  0.0112
  119OSM   C18F12594   3.694   3.787   8.177  0.0848  0.3189 -0.2040
  119OSM   H18F12595   3.678   3.785   8.067 -2.5088  2.1565  0.0475
  119OSM   H18G12596   3.651   3.691   8.211  0.6281 -0.2018 -0.9486
  119OSM   H18H12597   3.801   3.796   8.207 -0.2454 -0.4032  1.2518
  120OSM      N12598   4.118   3.144   6.286 -0.3469 -1.1194  0.3307
  120OSM    C1512599   4.029   3.048   6.215 -0.6530  0.3002  0.0851
  120OSM   H15A12600   3.958   3.111   6.165 -2.1017 -0.8459  0.6235
  120OSM   H15B12601   3.978   2.977   6.278  1.3413 -2.4730 -1.2121
  120OSM   H15C12602   4.083   2.980   6.151  0.7484  0.5335  0.9734
  120OSM    C1412603   4.224   3.072   6.355  0.1171 -0.3059 -0.0912
  120OSM   H14A12604   4.181   2.991   6.410 -0.7950 -0.3552 -0.8662
  120OSM   H14B12605   4.276   3.131   6.430 -1.8350 -0.1172  1.1764
  120OSM   H14C12606   4.282   3.022   6.279 -3.0279  0.0738 -2.9762
  120OSM    C1312607   4.191   3.238   6.187  0.3401  0.5289 -0.9958
  120OSM   H13A12608   4.264   3.292   6.244 -0.3820  0.7462 -0.2579
  120OSM   H13B12609   4.120   3.306   6.141 -3.0653 -0.3297  2.4887
  120OSM   H13C12610   4.232   3.182   6.104  2.4442  0.5511 -0.0069
  120OSM    C1212611   4.038   3.240   6.371 -1.0976 -0.0481 -0.0529
  120OSM   H12A12612   4.108   3.315   6.403 -0.6809  0.9760 -3.0583
  120OSM   H12B12613   4.013   3.200   6.468 -1.1894 -0.0543 -0.0783
  120OSM    C1112614   3.922   3.311   6.310 -0.2608 -0.2919  0.4902
  120OSM   H11A12615   3.859   3.372   6.379 -1.9652 -0.4243 -0.8762
  120OSM   H11B12616   3.856   3.228   6.280 -0.6462 -0.3287  1.4037
  120OSM      P12617   3.995   3.539   6.207  0.1882 -0.0997  0.0187
  120OSM    O1312618   4.105   3.578   6.115 -0.4597 -0.1928  0.5685
  120OSM    O1412619   3.876   3.626   6.191  0.9296 -0.1924  0.6794
  120OSM    O1112620   4.050   3.546   6.356  0.4647 -0.3178  0.2446
  120OSM    O1212621   3.950   3.389   6.193  0.1955 -0.6962 -0.0997
  120OSM    C1S12622   3.968   3.626   6.447 -0.2763  0.4910 -0.0786
  120OSM    H1S12623   3.870   3.579   6.469 -2.3721  2.5292 -3.8928
  120OSM    H1T12624   3.945   3.728   6.409 -1.1237  0.4666  0.3559
  120OSM     NF12625   3.965   3.729   6.672 -0.3380 -0.7220  1.3073
  120OSM    HNF12626   4.003   3.821   6.663  0.8297 -1.3483 -1.0450
  120OSM    C2S12627   4.044   3.646   6.585  0.4384  0.3838  0.4630
  120OSM    H2S12628   4.060   3.545   6.629  0.0726 -0.0783 -0.4361
  120OSM    C3S12629   4.186   3.700   6.556  0.1055  0.1889 -0.1836
  120OSM    H3S12630   4.184   3.803   6.512  0.5466  1.3869  2.4149
  120OSM     O312631   4.258   3.625   6.460  0.0508  0.6826  0.2878
  120OSM    HO312632   4.196   3.582   6.401  0.2600  1.7405 -0.7372
  120OSM    C4S12633   4.269   3.703   6.690 -0.3923 -0.3038 -0.5323
  120OSM    H4S12634   4.219   3.753   6.774  1.1254 -2.9716  2.1497
  120OSM    C5S12635   4.395   3.658   6.711 -0.3034 -0.0982 -0.8713
  120OSM    H5S12636   4.451   3.620   6.624  0.3302 -0.6578 -0.2382
  120OSM    C6S12637   4.487   3.664   6.831  0.3020 -0.2731 -0.3798
  120OSM    H6S12638   4.571   3.734   6.811 -0.4864  0.9294  0.4156
  120OSM    H6T12639   4.539   3.570   6.857  0.7193 -0.4958 -1.8909
  120OSM    C7S12640   4.412   3.719   6.945 -0.4440 -0.3247 -0.6459
  120OSM    H7S12641   4.317   3.661   6.958  1.0961 -2.7316  0.6864
  120OSM    H7T12642   4.385   3.826   6.939 -1.0198 -0.1077  3.2299
  120OSM    C8S12643   4.502   3.701   7.069 -0.2183 -0.4532  0.5242
  120OSM    H8S12644   4.592   3.765   7.057 -0.2453 -0.7941 -2.0859
  120OSM    H8T12645   4.520   3.594   7.095 -0.9755 -0.6270  0.3507
  120OSM    C9S12646   4.420   3.755   7.183  0.1568  0.0201  0.0240
  120OSM    H9S12647   4.334   3.689   7.202  0.6086 -0.3118  0.9852
  120OSM    H9T12648   4.387   3.860   7.163 -1.9680 -0.6437 -0.1859
  120OSM   C10S12649   4.504   3.744   7.314 -0.3283 -0.0306 -0.3246
  120OSM   H10S12650   4.600   3.796   7.292  0.2613  0.2774  2.5463
  120OSM   H10T12651   4.529   3.636   7.321 -3.1116 -1.0769 -3.7060
  120OSM   C11S12652   4.433   3.811   7.434 -0.2948 -0.1873 -0.2210
  120OSM   H11S12653   4.349   3.741   7.457  0.9569 -2.5892 -2.4298
  120OSM   H11T12654   4.393   3.913   7.416 -1.1794 -0.5387 -0.2824
  120OSM   C12S12655   4.534   3.828   7.552  0.6226  0.3293  0.4325
  120OSM   H12S12656   4.590   3.922   7.535 -0.9303  1.2529  0.2468
  120OSM   H12T12657   4.602   3.740   7.555  0.5736  0.3010  3.3114
  120OSM   C13S12658   4.467   3.839   7.689  0.1941 -0.0180 -0.0566
  120OSM   H13S12659   4.545   3.827   7.768  2.2460 -0.9044 -2.1244
  120OSM   H13T12660   4.383   3.769   7.706  0.7826 -0.5716  0.6613
  120OSM   C14S12661   4.394   3.975   7.705 -0.2008  0.6881  0.2339
  120OSM   H14S12662   4.320   3.990   7.624  1.4506 -0.9123 -1.6986
  120OSM   H14T12663   4.466   4.059   7.693 -1.8361  1.8192 -2.5944
  120OSM   C15S12664   4.321   3.972   7.838  1.1689  0.0339 -0.1516
  120OSM   H15S12665   4.394   3.951   7.919  0.2059  2.3329  1.4286
  120OSM   H15T12666   4.245   3.892   7.843  0.4880  0.6463 -0.4941
  120OSM   C16S12667   4.248   4.102   7.865 -0.1569 -0.5580 -0.6381
  120OSM   H16S12668   4.327   4.180   7.869 -1.2914  0.5856  2.9865
  120OSM   H16T12669   4.208   4.119   7.967  0.7448 -0.5593 -0.2774
  120OSM   C17S12670   4.133   4.148   7.767 -0.1203 -0.2204  0.1165
  120OSM   H17S12671   4.049   4.077   7.779 -1.3292  1.0947 -0.3293
  120OSM   H17T12672   4.161   4.141   7.660 -2.5126 -1.0721 -0.5198
  120OSM   C18S12673   4.079   4.292   7.789  0.5133 -0.6147 -0.1750
  120OSM   H18S12674   4.156   4.369   7.767 -0.4512  1.2359  2.4205
  120OSM   H18T12675   4.046   4.308   7.894  1.0014  0.4607 -0.1679
  120OSM   H18U12676   3.994   4.315   7.721  1.0564 -1.2546 -1.0877
  120OSM    C1F12677   3.849   3.694   6.720 -0.1107 -0.9883  0.1044
  120OSM     OF12678   3.807   3.581   6.722 -0.1059  0.1915  0.1632
  120OSM    C2F12679   3.762   3.798   6.780 -0.3180  0.0873  0.1633
  120OSM    H2F12680   3.697   3.824   6.694 -0.3582 -0.1282  0.1262
  120OSM    H2G12681   3.823   3.880   6.823  0.7847 -0.7725  0.3188
  120OSM    C3F12682   3.669   3.747   6.890 -0.0106 -0.0512 -0.4638
  120OSM    H3F12683   3.714   3.673   6.960  0.9525  1.3917  0.4943
  120OSM    H3G12684   3.585   3.686   6.849 -0.3417  0.2963 -0.3030
  120OSM    C4F12685   3.604   3.859   6.975 -0.9406  0.3562 -0.1124
  120OSM    H4F12686   3.515   3.810   7.020  0.9957 -1.5474  1.9374
  120OSM    H4G12687   3.570   3.946   6.915 -0.3210  0.9487  0.3847
  120OSM    C5F12688   3.692   3.905   7.086  0.4243  1.0937 -0.9641
  120OSM    H5F12689   3.786   3.957   7.057  1.4896 -0.1496  0.1054
  120OSM    H5G12690   3.720   3.823   7.156 -0.7051 -0.1627 -1.9417
  120OSM    C6F12691   3.614   4.007   7.168  0.1217  0.3073 -0.0603
  120OSM    H6F12692   3.670   4.022   7.263 -1.0969 -1.2926  0.9657
  120OSM    H6G12693   3.514   3.967   7.193 -1.2397  4.1493  1.4013
  120OSM    C7F12694   3.601   4.139   7.100 -0.0391 -0.8171  0.4543
  120OSM    H7F12695   3.551   4.137   7.001  1.8178  0.0673 -0.5487
  120OSM    H7G12696   3.708   4.166   7.089 -1.1123  3.6914 -1.0881
  120OSM    C8F12697   3.541   4.242   7.197  0.1881 -0.7358  0.6612
  120OSM    H8F12698   3.583   4.229   7.299  1.9013  2.1987  0.4536
  120OSM    H8G12699   3.431   4.230   7.191 -0.2420  1.6821  2.3804
  120OSM    C9F12700   3.582   4.385   7.149  0.5064 -0.0038 -0.2154
  120OSM    H9F12701   3.593   4.385   7.040  1.0127 -1.8025 -0.1974
  120OSM   C10F12702   3.621   4.487   7.218 -0.1136 -0.1938  0.1095
  120OSM   H10F12703   3.658   4.575   7.165 -0.6491 -1.6292 -2.8368
  120OSM   C11F12704   3.625   4.494   7.373 -0.2651 -0.3246 -0.0020
  120OSM   H11F12705   3.725   4.526   7.407  0.7099 -2.9935 -0.1144
  120OSM   H11G12706   3.597   4.396   7.417 -0.1208  0.9013  3.0222
  120OSM   C12F12707   3.516   4.585   7.435  0.8766 -0.2832 -0.9845
  120OSM   H12F12708   3.410   4.571   7.406 -0.0196  2.1491  0.7829
  120OSM   H12G12709   3.534   4.692   7.412 -1.7755  0.6170  0.6701
  120OSM   C13F12710   3.517   4.574   7.592 -0.0716  0.1133 -0.1379
  120OSM   H13F12711   3.621   4.601   7.621 -0.6346  1.7717  0.4766
  120OSM   H13G12712   3.503   4.469   7.624  1.6412  0.8860  3.7989
  120OSM   C14F12713   3.427   4.676   7.662 -0.3643  0.7229  0.0459
  120OSM   H14F12714   3.319   4.668   7.638 -0.8241 -1.5043  2.4439
  120OSM   H14G12715   3.463   4.779   7.640  0.1687  0.6126  0.3712
  120OSM   C15F12716   3.423   4.641   7.815 -0.0942 -0.1703  0.0323
  120OSM   H15F12717   3.398   4.533   7.818  0.3059 -0.2877 -0.5928
  120OSM   H15G12718   3.349   4.701   7.873 -0.1049  0.4969 -0.6594
  120OSM   C16F12719   3.559   4.663   7.877  0.0952 -0.6416 -0.1657
  120OSM   H16F12720   3.595   4.765   7.854 -0.2133 -1.0541 -2.7035
  120OSM   H16G12721   3.625   4.589   7.828 -0.1601 -0.2018 -1.1895
  120OSM   C17F12722   3.567   4.626   8.030  0.0990  0.3767  0.7344
  120OSM   H17F12723   3.479   4.667   8.085  1.1667  1.7140  1.5275
  120OSM   H17G12724   3.653   4.686   8.065 -0.2421  1.8114 -0.7476
  120OSM   C18F12725   3.588   4.484   8.059 -0.8821  0.6439 -0.2715
  120OSM   H18F12726   3.577   4.456   8.166 -2.2713  0.5572 -0.4141
  120OSM   H18G12727   3.685   4.444   8.023 -0.9770 -0.2456  0.4263
  120OSM   H18H12728   3.511   4.433   7.998  0.3717  1.2611 -2.4518
  121OSM      N12729   0.888   5.757   5.973  0.1145  0.4818 -0.8270
  121OSM    C1512730   0.971   5.862   5.906  0.2174 -0.8227 -0.5740
  121OSM   H15A12731   0.978   5.949   5.970 -0.8278 -0.4523 -0.9506
  121OSM   H15B12732   0.916   5.884   5.816  1.4347 -1.8257 -1.6035
  121OSM   H15C12733   1.072   5.829   5.889  0.4384  0.0251 -0.9666
  121OSM    C1412734   0.759   5.817   6.019 -0.3175  1.1638 -0.5677
  121OSM   H14A12735   0.765   5.895   6.093  0.5515  2.0978 -1.6004
  121OSM   H14B12736   0.693   5.740   6.056 -1.1564  1.7811 -0.7553
  121OSM   H14C12737   0.692   5.847   5.940 -1.1123 -1.1209 -0.8550
  121OSM    C1312738   0.850   5.645   5.887 -0.2175  0.5587 -0.1640
  121OSM   H13A12739   0.931   5.582   5.853 -0.5862 -0.0400  0.0326
  121OSM   H13B12740   0.802   5.682   5.798  0.8041  1.4837 -0.3450
  121OSM   H13C12741   0.777   5.581   5.936 -0.1232  0.1520 -0.5511
  121OSM    C1212742   0.958   5.694   6.101  0.4405 -0.5959  0.1987
  121OSM   H12A12743   1.054   5.654   6.071  0.4526 -2.2141  2.2191
  121OSM   H12B12744   0.899   5.614   6.142  0.3811  0.1147  1.5614
  121OSM    C1112745   0.997   5.787   6.218 -0.0127 -0.2735 -0.3784
  121OSM   H11A12746   1.035   5.731   6.306 -1.7683 -3.3304 -1.4123
  121OSM   H11B12747   0.902   5.833   6.254 -0.2150 -0.0575 -1.1801
  121OSM      P12748   1.238   5.870   6.167 -0.0785  0.1011  0.2162
  121OSM    O1312749   1.263   5.763   6.071 -0.4201  0.5003 -0.0031
  121OSM    O1412750   1.293   6.006   6.144 -0.0430 -0.2459  0.2406
  121OSM    O1112751   1.284   5.822   6.306  0.0910 -0.5906 -0.8364
  121OSM    O1212752   1.085   5.894   6.178  0.2023  0.1363 -0.0779
  121OSM    C1S12753   1.427   5.786   6.321 -0.0343 -0.2113 -0.1941
  121OSM    H1S12754   1.496   5.867   6.288  1.0298 -1.6606 -1.6035
  121OSM    H1T12755   1.451   5.693   6.266 -0.1919  0.9475 -2.3120
  121OSM     NF12756   1.593   5.790   6.496 -0.5472 -0.4696  0.3748
  121OSM    HNF12757   1.656   5.721   6.532 -0.1921 -0.1253  0.4193
  121OSM    C2S12758   1.457   5.760   6.472  0.2912 -0.4160  0.1332
  121OSM    H2S12759   1.389   5.829   6.525 -0.5262 -1.6618  0.7586
  121OSM    C3S12760   1.410   5.625   6.521  0.6402 -0.3360 -0.4991
  121OSM    H3S12761   1.460   5.538   6.473 -1.4558 -0.9096 -1.7935
  121OSM     O312762   1.277   5.591   6.496 -0.9082 -0.0993  0.1072
  121OSM    HO312763   1.252   5.649   6.423 -0.5659  3.1527  2.3587
  121OSM    C4S12764   1.429   5.625   6.667 -0.3859 -0.1062 -0.3599
  121OSM    H4S12765   1.370   5.700   6.722 -0.1916  0.1384 -0.4854
  121OSM    C5S12766   1.521   5.554   6.735  0.6974 -0.4283 -0.0816
  121OSM    H5S12767   1.593   5.493   6.677  0.6210  0.1641 -0.8080
  121OSM    C6S12768   1.524   5.570   6.880  0.1082  0.0348 -0.9924
  121OSM    H6S12769   1.550   5.472   6.925 -0.0904  0.6720  0.5499
  121OSM    H6T12770   1.432   5.603   6.932  0.6933  0.8721 -0.4705
  121OSM    C7S12771   1.631   5.663   6.929 -0.0952 -0.4447 -0.4502
  121OSM    H7S12772   1.631   5.760   6.874  2.0006  0.7619  1.4661
  121OSM    H7T12773   1.732   5.617   6.924  0.3244  0.4784 -0.7442
  121OSM    C8S12774   1.623   5.703   7.077 -0.0361  0.0710 -0.2097
  121OSM    H8S12775   1.523   5.746   7.100  0.3053  1.2816 -0.9043
  121OSM    H8T12776   1.712   5.769   7.086  0.1761  0.1272 -2.3363
  121OSM    C9S12777   1.650   5.587   7.181 -0.3421 -0.8357  0.0049
  121OSM    H9S12778   1.749   5.540   7.160 -0.0395  1.1380 -3.9693
  121OSM    H9T12779   1.584   5.498   7.171  0.0482 -1.0515 -0.7428
  121OSM   C10S12780   1.653   5.639   7.329 -0.1083 -0.1132  0.1115
  121OSM   H10S12781   1.559   5.698   7.323 -1.8038 -2.7727 -1.7046
  121OSM   H10T12782   1.745   5.700   7.337  1.1692 -1.7884 -1.1514
  121OSM   C11S12783   1.649   5.530   7.437 -0.5230 -0.4672  0.3173
  121OSM   H11S12784   1.748   5.481   7.432  0.2431  1.0709 -0.1333
  121OSM   H11T12785   1.568   5.457   7.413  1.4661 -3.3129  1.5806
  121OSM   C12S12786   1.640   5.587   7.582  0.2015  0.7612  0.3649
  121OSM   H12S12787   1.726   5.656   7.594 -0.3237  1.2657  1.3933
  121OSM   H12T12788   1.667   5.498   7.642 -0.0713 -0.6584 -1.5199
  121OSM   C13S12789   1.500   5.635   7.619 -0.0881 -0.3252 -0.0863
  121OSM   H13S12790   1.434   5.556   7.577 -0.1830  0.0804 -0.7182
  121OSM   H13T12791   1.480   5.729   7.562  0.6105 -0.4335 -0.5179
  121OSM   C14S12792   1.481   5.660   7.769 -0.2629  1.0796 -0.2027
  121OSM   H14S12793   1.580   5.669   7.819 -0.0790  3.0192 -0.8436
  121OSM   H14T12794   1.447   5.566   7.816 -0.5977  1.3952  0.1944
  121OSM   C15S12795   1.391   5.779   7.791  0.0406 -0.2531 -0.8426
  121OSM   H15S12796   1.288   5.756   7.757 -0.0136  0.5989 -1.2921
  121OSM   H15T12797   1.428   5.864   7.729  1.5312 -0.6215 -0.4885
  121OSM   C16S12798   1.399   5.831   7.937 -0.2108 -0.1101 -0.3621
  121OSM   H16S12799   1.503   5.841   7.974 -1.2797 -0.4274  3.1095
  121OSM   H16T12800   1.371   5.744   8.000  3.9243  0.5992  2.8595
  121OSM   C17S12801   1.333   5.970   7.961  0.3674  0.0846  0.1637
  121OSM   H17S12802   1.286   6.008   7.867 -1.0571  0.5037  1.0196
  121OSM   H17T12803   1.408   6.046   7.991 -1.4961  2.3061 -0.5299
  121OSM   C18S12804   1.217   5.968   8.066 -0.3334  0.8550  0.2128
  121OSM   H18S12805   1.164   6.065   8.064 -2.3235 -0.0533 -4.3879
  121OSM   H18T12806   1.260   5.946   8.165  1.1830  0.1507 -0.5661
  121OSM   H18U12807   1.147   5.884   8.043  0.7814 -0.4206  1.3413
  121OSM    C1F12808   1.643   5.914   6.493 -0.4053 -0.1914 -1.5488
  121OSM     OF12809   1.572   6.013   6.489 -0.7499 -0.1321  0.4997
  121OSM    C2F12810   1.792   5.924   6.487 -0.3310 -0.4793  0.8825
  121OSM    H2F12811   1.822   5.955   6.385  0.7657 -2.4644  0.5453
  121OSM    H2G12812   1.827   5.822   6.517 -2.5203 -1.2995  0.8413
  121OSM    C3F12813   1.846   6.036   6.581 -0.2677  0.6228 -0.2904
  121OSM    H3F12814   1.825   6.141   6.552  1.0708  0.8808 -0.3670
  121OSM    H3G12815   1.956   6.023   6.593 -0.6831 -2.6043  1.2268
  121OSM    C4F12816   1.802   6.027   6.732  0.0197 -0.6137  0.7783
  121OSM    H4F12817   1.823   5.922   6.760 -0.7212 -1.0883 -0.3579
  121OSM    H4G12818   1.691   6.032   6.732  0.0381  0.1880 -0.2118
  121OSM    C5F12819   1.875   6.112   6.836 -0.2090  0.3234  0.1012
  121OSM    H5F12820   1.863   6.220   6.810 -1.3214 -0.3662 -2.6486
  121OSM    H5G12821   1.984   6.093   6.829  0.1258  1.9580  0.5062
  121OSM    C6F12822   1.831   6.087   6.985  0.4511 -0.6477  0.4142
  121OSM    H6F12823   1.880   6.163   7.050  1.2239  1.4144 -2.3689
  121OSM    H6G12824   1.859   5.986   7.020  0.6469  0.0073  2.2919
  121OSM    C7F12825   1.678   6.104   7.005 -0.4913 -0.1975 -0.2491
  121OSM    H7F12826   1.611   6.039   6.945 -0.8942  1.8171 -2.1109
  121OSM    H7G12827   1.658   6.212   6.992  0.8883  0.2447  1.0251
  121OSM    C8F12828   1.653   6.089   7.160  0.6328 -0.0439  0.1000
  121OSM    H8F12829   1.673   6.184   7.213  1.9960  0.0260 -0.5001
  121OSM    H8G12830   1.738   6.031   7.203 -0.3178 -1.6244 -0.0627
  121OSM    C9F12831   1.521   6.027   7.197  0.0290 -0.3539 -0.2269
  121OSM    H9F12832   1.537   5.924   7.233  3.0523 -0.4644 -1.5464
  121OSM   C10F12833   1.401   6.083   7.189 -0.3918  0.4577  0.3951
  121OSM   H10F12834   1.312   6.022   7.212  0.1804  0.4053  2.6143
  121OSM   C11F12835   1.364   6.218   7.146 -0.3437 -0.1658  0.2932
  121OSM   H11F12836   1.265   6.221   7.095 -0.4216 -0.4068  0.4291
  121OSM   H11G12837   1.439   6.258   7.075  0.6951 -0.0669  1.4057
  121OSM   C12F12838   1.388   6.309   7.263 -0.4238  0.2088  1.3165
  121OSM   H12F12839   1.361   6.415   7.243 -1.5516  0.4046  3.4871
  121OSM   H12G12840   1.498   6.313   7.277 -0.1383 -1.7108 -0.0991
  121OSM   C13F12841   1.314   6.281   7.393 -0.4089  0.5512  0.4297
  121OSM   H13F12842   1.337   6.359   7.470 -0.0677 -1.2361  2.2249
  121OSM   H13G12843   1.349   6.197   7.456  1.2326 -0.5213 -1.7991
  121OSM   C14F12844   1.163   6.273   7.385 -0.1512 -0.2801  0.1119
  121OSM   H14F12845   1.117   6.227   7.475 -0.2082  0.1440  0.3010
  121OSM   H14G12846   1.123   6.218   7.298 -0.1568 -0.4998  0.2527
  121OSM   C15F12847   1.092   6.418   7.407 -0.0307 -0.0259  0.7155
  121OSM   H15F12848   1.134   6.484   7.329  3.3657 -2.3632  0.3386
  121OSM   H15G12849   1.117   6.464   7.504  0.0405  3.1040 -0.6649
  121OSM   C16F12850   0.940   6.402   7.392  0.0220  0.3295  0.0421
  121OSM   H16F12851   0.895   6.321   7.453  0.7687 -0.1167  0.0118
  121OSM   H16G12852   0.924   6.371   7.286  2.5837 -0.8760 -0.0528
  121OSM   C17F12853   0.863   6.535   7.434 -1.3492  1.1412 -0.0212
  121OSM   H17F12854   0.763   6.525   7.387 -1.2025 -0.2120 -0.0799
  121OSM   H17G12855   0.918   6.621   7.390 -1.8170  1.2373 -0.4251
  121OSM   C18F12856   0.828   6.537   7.581 -1.1339 -0.3517  0.1858
  121OSM   H18F12857   0.773   6.441   7.590 -0.6989 -0.6080  0.1425
  121OSM   H18G12858   0.753   6.613   7.612 -1.4108 -0.2859 -0.6297
  121OSM   H18H12859   0.918   6.544   7.646 -1.0777 -0.0444  0.0759
  122OSM      N12860   1.230   0.560   5.558 -0.0102  0.5550 -0.4125
  122OSM    C1512861   1.348   0.553   5.463  0.2063  0.3486  0.0778
  122OSM   H15A12862   1.334   0.585   5.361  0.6164 -2.3632 -0.9145
  122OSM   H15B12863   1.379   0.449   5.457  1.1024  0.6051  0.1199
  122OSM   H15C12864   1.424   0.617   5.505 -0.3846  0.0643  1.6692
  122OSM    C1412865   1.201   0.704   5.560 -0.3436 -0.3677 -0.1734
  122OSM   H14A12866   1.170   0.742   5.463 -0.8114  0.7494  0.3947
  122OSM   H14B12867   1.291   0.759   5.583 -0.1430 -0.6144 -0.3712
  122OSM   H14C12868   1.128   0.736   5.632 -0.7477  0.8383 -1.0729
  122OSM    C1312869   1.107   0.493   5.500 -1.2965  0.3031  0.6254
  122OSM   H13A12870   1.019   0.508   5.560 -0.9093  2.8412  0.6511
  122OSM   H13B12871   1.117   0.385   5.501 -0.9687  0.3309  0.4655
  122OSM   H13C12872   1.085   0.519   5.397  1.0378 -0.6050 -0.1852
  122OSM    C1212873   1.269   0.508   5.702 -0.3483 -0.0122 -0.1430
  122OSM   H12A12874   1.284   0.402   5.715 -0.8538  0.1058  1.7266
  122OSM   H12B12875   1.193   0.543   5.771  0.2167  0.0658  0.4548
  122OSM    C1112876   1.399   0.570   5.756  0.2994 -0.3989  0.1832
  122OSM   H11A12877   1.484   0.551   5.687 -0.9128 -1.0967 -1.1664
  122OSM   H11B12878   1.429   0.508   5.843 -1.3328 -1.2329  0.1943
  122OSM      P12879   1.329   0.757   5.919  0.1594  0.2128  0.1968
  122OSM    O1312880   1.351   0.900   5.936 -0.3941 -0.7259  0.1540
  122OSM    O1412881   1.191   0.707   5.932  0.4338  0.4135 -0.0382
  122OSM    O1112882   1.417   0.686   6.029 -0.4421 -0.8350  0.1916
  122OSM    O1212883   1.388   0.718   5.776  0.5214  0.8205  0.1002
  122OSM    C1S12884   1.450   0.748   6.153  1.0196  0.1743 -0.3086
  122OSM    H1S12885   1.480   0.854   6.144  1.3189  0.0759 -0.4844
  122OSM    H1T12886   1.541   0.698   6.193  0.0118 -0.2491  1.5840
  122OSM     NF12887   1.365   0.797   6.374 -0.2089 -0.3359 -0.5494
  122OSM    HNF12888   1.415   0.765   6.454 -0.6432  1.8981  0.6880
  122OSM    C2S12889   1.337   0.718   6.256 -0.6638  0.7241 -0.5952
  122OSM    H2S12890   1.234   0.733   6.217 -1.0569  0.6298  0.3649
  122OSM    C3S12891   1.344   0.564   6.284  0.2083 -0.0086 -0.2783
  122OSM    H3S12892   1.453   0.544   6.292  0.2690  0.1990 -0.5666
  122OSM     O312893   1.304   0.488   6.167 -0.2143 -0.1163 -0.0157
  122OSM    HO312894   1.314   0.556   6.101  0.3177 -1.2620 -1.1678
  122OSM    C4S12895   1.267   0.520   6.407 -0.3755 -0.3722  0.3637
  122OSM    H4S12896   1.329   0.520   6.497 -0.1401 -0.4783  0.2013
  122OSM    C5S12897   1.137   0.492   6.415 -1.1126  1.1345  0.6228
  122OSM    H5S12898   1.080   0.493   6.321 -0.7083 -0.6666  0.3272
  122OSM    C6S12899   1.061   0.435   6.532  0.7141  0.1774  0.2849
  122OSM    H6S12900   0.988   0.359   6.498 -0.9464  1.8614 -0.1239
  122OSM    H6T12901   1.007   0.525   6.569 -0.9077  0.2442 -2.0081
  122OSM    C7S12902   1.148   0.379   6.646 -0.0728 -0.9331 -0.0624
  122OSM    H7S12903   1.222   0.456   6.677 -1.1783  0.3143 -0.4536
  122OSM    H7T12904   1.207   0.297   6.601  0.5461 -0.5734  0.0827
  122OSM    C8S12905   1.069   0.328   6.762 -0.6059 -0.8354 -0.6288
  122OSM    H8S12906   0.996   0.261   6.712 -1.7349  0.4829 -0.8154
  122OSM    H8T12907   1.009   0.415   6.798 -0.4262 -0.2992 -1.5868
  122OSM    C9S12908   1.133   0.255   6.885  0.7006  0.0933  0.1005
  122OSM    H9S12909   1.203   0.328   6.931 -0.3604  1.0389  0.2751
  122OSM    H9T12910   1.189   0.165   6.851 -0.2011  0.3092 -2.1745
  122OSM   C10S12911   1.037   0.217   6.995  0.0027 -0.1081 -0.2099
  122OSM   H10S12912   0.982   0.129   6.957 -1.6888  1.1337 -0.7619
  122OSM   H10T12913   0.957   0.286   7.030  0.0998 -0.7014  1.2468
  122OSM   C11S12914   1.107   0.187   7.127  0.0896 -0.1491 -0.4676
  122OSM   H11S12915   1.143   0.283   7.169  0.7470 -0.1100 -1.1026
  122OSM   H11T12916   1.199   0.126   7.118 -0.3864 -0.9079 -0.2329
  122OSM   C12S12917   1.026   0.102   7.229  0.0208  0.3703 -0.6463
  122OSM   H12S12918   1.091   0.094   7.318 -1.3172 -0.4442  0.3010
  122OSM   H12T12919   1.019   0.001   7.183  2.5404  0.5438 -1.5513
  122OSM   C13S12920   0.876   0.130   7.246 -1.0169 -0.2890  0.5341
  122OSM   H13S12921   0.825   0.035   7.273  0.6364 -1.4033 -0.1594
  122OSM   H13T12922   0.841   0.190   7.158  1.8295  1.6879  0.6145
  122OSM   C14S12923   0.844   0.229   7.362  0.7323  0.3773  0.4476
  122OSM   H14S12924   0.900   0.321   7.336 -1.4081  1.6775  0.1864
  122OSM   H14T12925   0.880   0.185   7.458 -2.8679 -2.0082  0.9037
  122OSM   C15S12926   0.698   0.272   7.379 -0.1261  0.5429  0.2030
  122OSM   H15S12927   0.665   0.291   7.275  1.3134 -2.6459 -0.9423
  122OSM   H15T12928   0.692   0.365   7.439  1.5018  0.5244  0.4305
  122OSM   C16S12929   0.594   0.180   7.446 -0.0056  0.1866 -0.3340
  122OSM   H16S12930   0.626   0.154   7.549 -0.9249  1.3715  0.2804
  122OSM   H16T12931   0.588   0.093   7.377  1.8809 -0.6086  0.4698
  122OSM   C17S12932   0.452   0.236   7.459  0.3511  0.0908  0.1734
  122OSM   H17S12933   0.369   0.162   7.460  0.0496  0.3380 -1.9209
  122OSM   H17T12934   0.442   0.302   7.370 -0.9985  1.8863  1.5828
  122OSM   C18S12935   0.443   0.311   7.591 -0.2361  0.4646 -0.2004
  122OSM   H18S12936   0.512   0.398   7.590  0.0948  0.2281  0.6769
  122OSM   H18T12937   0.462   0.244   7.678  0.7919  1.0602  0.0502
  122OSM   H18U12938   0.346   0.361   7.613  0.0173  1.1254 -0.5711
  122OSM    C1F12939   1.345   0.927   6.374  0.3606 -0.0120 -0.6703
  122OSM     OF12940   1.280   0.979   6.281 -0.2854  0.1243 -0.3022
  122OSM    C2F12941   1.397   1.002   6.496 -0.1002 -0.8249  0.6175
  122OSM    H2F12942   1.506   0.991   6.515  0.6062  3.2231 -0.0095
  122OSM    H2G12943   1.360   0.961   6.592 -1.0316  1.3108  1.2427
  122OSM    C3F12944   1.369   1.157   6.479 -0.6917  0.0256 -0.0713
  122OSM    H3F12945   1.261   1.172   6.458 -0.3626 -1.8897 -3.9866
  122OSM    H3G12946   1.425   1.188   6.388  1.3156 -2.2338  0.2987
  122OSM    C4F12947   1.437   1.237   6.591 -0.0281  0.8942  0.4637
  122OSM    H4F12948   1.471   1.331   6.542  3.2084 -0.3956  0.0233
  122OSM    H4G12949   1.526   1.183   6.628 -1.0553 -0.6257  0.8027
  122OSM    C5F12950   1.347   1.264   6.707 -0.1088  0.0254 -0.1049
  122OSM    H5F12951   1.337   1.163   6.752  0.4828  0.2200  0.4709
  122OSM    H5G12952   1.241   1.285   6.684 -0.1468  0.2444  0.2646
  122OSM    C6F12953   1.415   1.351   6.808  0.0594  0.1747 -0.6363
  122OSM    H6F12954   1.421   1.460   6.787  1.4779  0.3270  0.3873
  122OSM    H6G12955   1.515   1.319   6.846  0.4383  1.5623 -0.3897
  122OSM    C7F12956   1.325   1.350   6.928  0.0655  0.7172 -0.1675
  122OSM    H7F12957   1.289   1.247   6.952  0.6390  0.3835 -0.6945
  122OSM    H7G12958   1.251   1.426   6.896  1.1531  1.1865 -1.6612
  122OSM    C8F12959   1.397   1.415   7.045 -0.5301  0.4199 -0.9803
  122OSM    H8F12960   1.476   1.345   7.081 -1.4657 -0.1045  0.1335
  122OSM    H8G12961   1.319   1.422   7.123  0.3017  1.4579 -0.1956
  122OSM    C9F12962   1.436   1.559   7.035 -0.7695  0.9514  0.0931
  122OSM    H9F12963   1.362   1.609   6.971 -2.0224 -0.6909  0.1969
  122OSM   C10F12964   1.532   1.621   7.092  0.0448 -0.4472 -0.0721
  122OSM   H10F12965   1.539   1.730   7.079 -3.9668 -0.2843 -2.4262
  122OSM   C11F12966   1.629   1.564   7.199 -0.3313 -0.0792  0.0243
  122OSM   H11F12967   1.737   1.574   7.176 -0.0669  0.4444  1.4352
  122OSM   H11G12968   1.622   1.454   7.207 -1.5136 -0.1075 -0.9966
  122OSM   C12F12969   1.605   1.628   7.345 -0.3807 -0.1257 -0.2827
  122OSM   H12F12970   1.667   1.561   7.408 -0.3707 -2.0198 -2.1864
  122OSM   H12G12971   1.504   1.630   7.392  0.8253 -0.0929  2.5358
  122OSM   C13F12972   1.675   1.768   7.359  0.1616  0.7471  0.1561
  122OSM   H13F12973   1.617   1.854   7.319  0.5358  1.2032  0.5726
  122OSM   H13G12974   1.773   1.762   7.306  0.0720  0.1686  0.0534
  122OSM   C14F12975   1.702   1.813   7.502  0.6041 -0.5223  1.0256
  122OSM   H14F12976   1.603   1.811   7.551 -0.7371 -3.3656 -1.4125
  122OSM   H14G12977   1.748   1.914   7.499  0.6106 -0.5352  0.6304
  122OSM   C15F12978   1.798   1.717   7.582 -0.3933  0.2959  0.5396
  122OSM   H15F12979   1.887   1.699   7.518 -1.8267 -0.9213 -1.2432
  122OSM   H15G12980   1.752   1.621   7.613 -0.0267 -0.7220 -1.8692
  122OSM   C16F12981   1.840   1.788   7.713 -0.4704 -0.1609  0.8183
  122OSM   H16F12982   1.878   1.888   7.683 -2.2517 -0.2985 -2.3884
  122OSM   H16G12983   1.924   1.731   7.756  2.5694  3.7028  0.5950
  122OSM   C17F12984   1.734   1.798   7.823 -0.0954 -0.3833 -0.3585
  122OSM   H17F12985   1.715   1.693   7.855  1.1395 -0.7496 -0.7551
  122OSM   H17G12986   1.643   1.847   7.783 -0.3696 -0.7930 -0.2459
  122OSM   C18F12987   1.789   1.868   7.947  0.0084 -0.8961  0.3534
  122OSM   H18F12988   1.732   1.834   8.037 -1.1564 -1.4419 -0.5582
  122OSM   H18G12989   1.782   1.979   7.948  1.5906 -0.7665 -0.1431
  122OSM   H18H12990   1.893   1.837   7.971 -0.0294 -0.0221  1.7427
  123OSM      N12991   3.776   2.462   6.424 -0.5623  0.1025  0.3747
  123OSM    C1512992   3.812   2.466   6.570  0.5161  0.1050 -0.6282
  123OSM   H15A12993   3.802   2.366   6.611  0.8157  0.5921  0.6810
  123OSM   H15B12994   3.751   2.538   6.621 -1.1027 -0.0259 -2.2816
  123OSM   H15C12995   3.915   2.495   6.585 -0.2912  2.4238  1.0171
  123OSM    C1412996   3.629   2.424   6.410 -0.5565 -0.1319 -0.2151
  123OSM   H14A12997   3.625   2.317   6.426  0.1374  0.0884  1.6258
  123OSM   H14B12998   3.590   2.453   6.313 -1.0491 -1.9055 -0.5921
  123OSM   H14C12999   3.564   2.451   6.491 -1.6415 -0.8665 -0.8155
  123OSM    C1313000   3.784   2.602   6.370  0.1022  0.1081 -0.0230
  123OSM   H13A13001   3.886   2.623   6.340 -0.0465  0.7677 -0.0719
  123OSM   H13B13002   3.759   2.678   6.442  0.6993  0.2668  0.0261
  123OSM   H13C13003   3.715   2.605   6.288 -2.2633 -0.7376  1.8318
  123OSM    C1213004   3.861   2.373   6.342 -0.4457  0.5013  0.2044
  123OSM   H12A13005   3.936   2.423   6.282 -0.4913  1.0490  0.6048
  123OSM   H12B13006   3.789   2.337   6.269 -0.3628  0.3405  0.2005
  123OSM    C1113007   3.919   2.238   6.395  0.1822  0.2435 -0.2452
  123OSM   H11A13008   3.999   2.274   6.463 -0.3624 -0.6020  0.8795
  123OSM   H11B13009   3.964   2.180   6.311 -2.2772 -1.7631 -0.2867
  123OSM      P13010   3.758   2.039   6.405 -0.0905 -0.0977  0.2613
  123OSM    O1313011   3.628   2.077   6.341  0.2181  0.0795  0.2194
  123OSM    O1413012   3.856   1.978   6.314  0.4878 -0.1315 -0.2459
  123OSM    O1113013   3.730   1.946   6.523  0.4852  0.0367 -0.0955
  123OSM    O1213014   3.825   2.163   6.473 -0.0833 -0.4392  0.3038
  123OSM    C1S13015   3.815   1.935   6.639  0.2967 -0.8326  0.1506
  123OSM    H1S13016   3.921   1.961   6.623  0.2722  1.2159  2.6068
  123OSM    H1T13017   3.822   1.827   6.665 -3.2976 -0.8662  1.7197
  123OSM     NF13018   3.855   1.970   6.864 -0.2946 -0.3059  0.0945
  123OSM    HNF13019   3.847   1.887   6.919  1.5495 -0.0286  0.8434
  123OSM    C2S13020   3.765   2.004   6.757 -0.1430  0.3719 -0.8784
  123OSM    H2S13021   3.772   2.113   6.734  0.7972  0.5457  0.1528
  123OSM    C3S13022   3.617   1.969   6.794 -0.3231 -0.3642  0.1077
  123OSM    H3S13023   3.609   1.859   6.804  0.8430 -0.3749  1.1546
  123OSM     O313024   3.525   2.002   6.687  0.2330  0.8905  0.0895
  123OSM    HO313025   3.590   2.016   6.617 -0.7196  0.8876 -0.8125
  123OSM    C4S13026   3.566   2.016   6.932  0.0088 -0.6536  0.1278
  123OSM    H4S13027   3.606   1.953   7.013  2.3939 -0.4661 -0.8190
  123OSM    C5S13028   3.469   2.100   6.955 -0.0989 -0.0952 -0.3797
  123OSM    H5S13029   3.423   2.150   6.869 -2.3678 -3.1504 -1.1043
  123OSM    C6S13030   3.412   2.135   7.092 -0.4458 -0.1517 -0.7641
  123OSM    H6S13031   3.301   2.130   7.085 -0.6440  0.3078  1.4365
  123OSM    H6T13032   3.438   2.235   7.132 -2.2480  0.2085 -0.3861
  123OSM    C7S13033   3.445   2.047   7.214 -0.1590  0.3748  0.4391
  123OSM    H7S13034   3.554   2.028   7.223 -0.3401 -0.4738  0.9456
  123OSM    H7T13035   3.400   1.946   7.202 -3.5725  1.9184 -1.1503
  123OSM    C8S13036   3.389   2.106   7.342 -0.0590 -0.2556  0.4405
  123OSM    H8S13037   3.282   2.128   7.319  0.7004  0.0501 -3.5071
  123OSM    H8T13038   3.447   2.198   7.367  2.7453 -2.3604  2.2196
  123OSM    C9S13039   3.392   2.007   7.465  0.4598 -0.6728 -0.0928
  123OSM    H9S13040   3.496   2.012   7.505 -0.3579 -0.5568  2.1429
  123OSM    H9T13041   3.374   1.902   7.432 -0.4502 -0.6642  0.3439
  123OSM   C10S13042   3.280   2.031   7.568  0.2988  0.2917 -0.1824
  123OSM   H10S13043   3.190   2.014   7.506 -0.1946  3.0984 -0.3599
  123OSM   H10T13044   3.291   2.134   7.608  0.0904 -0.8136  3.0796
  123OSM   C11S13045   3.265   1.939   7.696  0.1595  0.2996  0.3430
  123OSM   H11S13046   3.265   1.830   7.673 -1.8906  0.7190 -2.0343
  123OSM   H11T13047   3.157   1.945   7.722  0.3524  1.1348  0.9867
  123OSM   C12S13048   3.355   1.969   7.809  0.2773  0.5086 -0.6408
  123OSM   H12S13049   3.460   1.970   7.775  0.1386  2.1928 -1.1396
  123OSM   H12T13050   3.330   1.879   7.869 -0.2932 -0.2641 -2.0164
  123OSM   C13S13051   3.320   2.102   7.882  0.0475 -0.5659 -0.2480
  123OSM   H13S13052   3.215   2.095   7.917  0.4596  0.2296  1.2030
  123OSM   H13T13053   3.314   2.187   7.811 -0.8632 -0.4275 -0.0246
  123OSM   C14S13054   3.433   2.131   7.983  1.7499  0.2373  1.0385
  123OSM   H14S13055   3.520   2.155   7.918  0.7930 -1.5414 -1.0114
  123OSM   H14T13056   3.457   2.046   8.050  3.0304 -1.0792 -0.9730
  123OSM   C15S13057   3.398   2.259   8.058  0.3835  0.0220 -0.1121
  123OSM   H15S13058   3.292   2.266   8.088  0.7263 -1.7881  1.7443
  123OSM   H15T13059   3.411   2.350   7.995  0.1896  0.1702  0.0626
  123OSM   C16S13060   3.472   2.275   8.190  0.7490  0.1594 -0.3384
  123OSM   H16S13061   3.445   2.376   8.228 -1.0134  0.0245 -1.1455
  123OSM   H16T13062   3.582   2.270   8.179  1.0514 -0.7003  2.2722
  123OSM   C17S13063   3.433   2.177   8.302  0.3748  0.1474 -0.2448
  123OSM   H17S13064   3.473   2.081   8.265 -0.9932 -0.5405  0.0063
  123OSM   H17T13065   3.325   2.167   8.326  0.8391 -2.1603  1.1936
  123OSM   C18S13066   3.496   2.218   8.440 -0.3450  0.5579  0.3377
  123OSM   H18S13067   3.478   2.327   8.451  0.7317  1.0362 -2.0553
  123OSM   H18T13068   3.606   2.209   8.423 -0.4620  3.3863 -2.8350
  123OSM   H18U13069   3.465   2.154   8.526 -1.5160 -1.0965 -1.2416
  123OSM    C1F13070   3.978   2.033   6.872 -0.6485  0.0122  0.8991
  123OSM     OF13071   4.010   2.129   6.802 -0.0083  0.3290 -0.3472
  123OSM    C2F13072   4.071   1.969   6.968 -0.0906 -1.0028 -0.7379
  123OSM    H2F13073   4.147   1.908   6.914  2.5141  0.4944  1.0062
  123OSM    H2G13074   4.017   1.898   7.034  0.1135 -0.7348 -0.2771
  123OSM    C3F13075   4.148   2.067   7.054 -0.0946  0.3530 -0.2310
  123OSM    H3F13076   4.072   2.108   7.124 -1.1167  0.1845 -1.2174
  123OSM    H3G13077   4.182   2.159   7.001  0.7628  0.7805  1.0154
  123OSM    C4F13078   4.267   2.009   7.138 -0.1858 -0.4136  0.3273
  123OSM    H4F13079   4.336   1.960   7.067 -0.6864 -0.4519 -0.1398
  123OSM    H4G13080   4.231   1.927   7.203  0.2748  2.0103  3.9625
  123OSM    C5F13081   4.331   2.118   7.224  0.5085  0.5284  0.4312
  123OSM    H5F13082   4.329   2.212   7.164 -0.0437  1.7260  2.2552
  123OSM    H5G13083   4.439   2.099   7.236  0.4471 -0.4310 -0.4169
  123OSM    C6F13084   4.257   2.141   7.356 -0.0780  0.7333 -0.3770
  123OSM    H6F13085   4.149   2.159   7.336 -0.9551 -2.2454  1.1292
  123OSM    H6G13086   4.305   2.232   7.398  0.2340  0.5548 -0.3469
  123OSM    C7F13087   4.277   2.042   7.470  0.3400  1.0879  0.7704
  123OSM    H7F13088   4.256   1.947   7.416  0.0188  1.6267 -0.0595
  123OSM    H7G13089   4.194   2.045   7.544 -1.3832 -2.4451 -0.7543
  123OSM    C8F13090   4.406   2.047   7.548 -0.2745 -0.3004 -0.5635
  123OSM    H8F13091   4.488   2.083   7.483  1.3091 -1.3567  0.7577
  123OSM    H8G13092   4.445   1.948   7.582  2.5488 -0.5325 -3.9809
  123OSM    C9F13093   4.385   2.150   7.664  0.2804 -0.4761 -0.0845
  123OSM    H9F13094   4.349   2.251   7.643 -0.5105 -0.7323 -0.0061
  123OSM   C10F13095   4.397   2.128   7.794 -0.1338  0.0290 -0.3965
  123OSM   H10F13096   4.392   2.211   7.866  1.2367 -2.0760  2.3210
  123OSM   C11F13097   4.428   1.998   7.858 -0.2510  0.2805  0.5986
  123OSM   H11F13098   4.515   2.008   7.927 -1.1531  2.0285  1.5432
  123OSM   H11G13099   4.446   1.920   7.781  0.9776  1.5761 -0.4813
  123OSM   C12F13100   4.314   1.944   7.950 -0.0093 -0.1394 -0.7900
  123OSM   H12F13101   4.352   1.847   7.989 -0.7584 -0.4278 -0.7619
  123OSM   H12G13102   4.218   1.913   7.903 -0.4460 -0.0810  0.0363
  123OSM   C13F13103   4.272   2.029   8.065 -0.7346 -0.3245 -0.5643
  123OSM   H13F13104   4.199   1.978   8.132  1.7719 -0.9204  1.9363
  123OSM   H13G13105   4.211   2.115   8.030  1.0951  1.1693 -0.2308
  123OSM   C14F13106   4.385   2.076   8.158 -0.2123  0.2858 -0.0247
  123OSM   H14F13107   4.418   2.170   8.109  2.5700 -0.3565  0.4442
  123OSM   H14G13108   4.463   1.998   8.148 -1.7454 -1.2597 -0.5071
  123OSM   C15F13109   4.343   2.100   8.299  0.0694  0.0196 -0.6542
  123OSM   H15F13110   4.324   2.003   8.350  2.0997  0.6341  1.4724
  123OSM   H15G13111   4.258   2.169   8.314 -0.9607 -1.6202  1.7587
  123OSM   C16F13112   4.448   2.169   8.398 -0.3073  0.5964  0.6429
  123OSM   H16F13113   4.448   2.280   8.391 -1.4437  0.7706  2.6043
  123OSM   H16G13114   4.546   2.127   8.367 -0.8322  0.6193 -1.1644
  123OSM   C17F13115   4.440   2.125   8.541  0.0083  0.0002 -0.2453
  123OSM   H17F13116   4.436   2.014   8.545 -0.0663 -0.0053 -0.4555
  123OSM   H17G13117   4.340   2.161   8.575 -0.1776  0.3120 -1.0938
  123OSM   C18F13118   4.544   2.185   8.641  0.0430  0.3922 -0.1537
  123OSM   H18F13119   4.529   2.134   8.738  3.7080 -0.0427  0.3329
  123OSM   H18G13120   4.534   2.295   8.650 -1.3114  0.2455  0.3504
  123OSM   H18H13121   4.646   2.160   8.604  0.4138  0.8458  0.5499
  124OSM      N13122   6.143   6.072   5.727  0.1489 -0.0165  0.4179
  124OSM    C1513123   6.169   5.925   5.742 -0.4225  0.7064  0.2257
  124OSM   H15A13124   6.171   5.875   5.646  2.6355  2.2746 -0.6479
  124OSM   H15B13125   6.099   5.867   5.800  0.7935 -0.2162  0.8106
  124OSM   H15C13126   6.269   5.912   5.780 -1.1298 -0.2597  1.8847
  124OSM    C1413127   6.233   6.137   5.627  0.6215 -0.1386  0.6360
  124OSM   H14A13128   6.202   6.239   5.606 -4.2509 -1.6029 -0.6895
  124OSM   H14B13129   6.212   6.082   5.536 -1.6246 -0.0709  1.0603
  124OSM   H14C13130   6.333   6.129   5.666 -0.0970  0.5097  2.7270
  124OSM    C1313131   6.002   6.080   5.680  0.6120 -0.1210 -0.2249
  124OSM   H13A13132   5.944   6.024   5.752  0.5675  1.9290  1.4253
  124OSM   H13B13133   5.988   6.023   5.589  1.6312 -1.0093  0.1531
  124OSM   H13C13134   5.969   6.183   5.676  1.8530  0.4221  1.8804
  124OSM    C1213135   6.158   6.144   5.857 -0.3171 -0.9091  0.7413
  124OSM   H12A13136   6.104   6.236   5.843  1.6146  0.1276 -0.3013
  124OSM   H12B13137   6.265   6.159   5.868 -0.5235 -0.5520  2.5191
  124OSM    C1113138   6.108   6.071   5.991 -0.5898  0.5441  0.4194
  124OSM   H11A13139   6.180   5.988   6.011 -0.8799 -0.0900 -1.0165
  124OSM   H11B13140   6.016   6.018   5.959 -0.0837 -0.9506  1.3100
  124OSM      P13141   5.969   6.185   6.183  0.2787 -0.2265  0.3348
  124OSM    O1313142   5.983   6.283   6.293  0.0396  0.5241  0.1493
  124OSM    O1413143   5.861   6.215   6.086  1.1271 -0.1258  0.5731
  124OSM    O1113144   5.939   6.043   6.247  0.4393 -0.1141 -0.2976
  124OSM    O1213145   6.102   6.157   6.105  1.0337 -0.7942  0.1400
  124OSM    C1S13146   6.039   5.985   6.340  0.1428  0.6750 -0.7800
  124OSM    H1S13147   6.140   6.018   6.309  0.4260 -0.1346 -0.7441
  124OSM    H1T13148   6.031   5.875   6.331 -0.6548  0.6271  0.3011
  124OSM     NF13149   6.133   5.986   6.569 -0.6642  0.3460  0.0399
  124OSM    HNF13150   6.116   5.921   6.643 -0.6708  2.0362  1.5862
  124OSM    C2S13151   6.017   6.019   6.491  0.6215  0.6597 -0.0287
  124OSM    H2S13152   5.994   6.128   6.500  0.9263  0.7133  0.1050
  124OSM    C3S13153   5.883   5.951   6.537 -0.2775  0.8308 -0.8994
  124OSM    H3S13154   5.898   5.842   6.522 -0.8821  0.9316 -2.4531
  124OSM     O313155   5.773   5.985   6.458 -0.1200 -0.2356  0.1347
  124OSM    HO313156   5.807   6.029   6.380  0.3892 -0.7022  0.0931
  124OSM    C4S13157   5.857   5.977   6.682  0.1935 -0.2939  0.8235
  124OSM    H4S13158   5.908   5.907   6.750  1.5691  1.3435  1.5572
  124OSM    C5S13159   5.794   6.075   6.744 -0.6755 -0.2752  0.0014
  124OSM    H5S13160   5.752   6.159   6.687  0.6489 -1.0388 -2.2496
  124OSM    C6S13161   5.797   6.087   6.898  0.5756 -0.2732 -0.4306
  124OSM    H6S13162   5.770   5.991   6.948 -1.8848  0.0610 -0.9673
  124OSM    H6T13163   5.726   6.162   6.940 -0.8867 -1.0519 -1.4387
  124OSM    C7S13164   5.923   6.122   6.982  0.0473  0.5155 -0.7204
  124OSM    H7S13165   5.965   6.224   6.967  2.1503 -0.3099 -0.7809
  124OSM    H7T13166   6.009   6.056   6.959  0.8443  0.9155  0.9100
  124OSM    C8S13167   5.896   6.099   7.138  0.2746 -0.3531  0.4810
  124OSM    H8S13168   5.844   6.003   7.158 -0.4872 -0.7647 -2.7801
  124OSM    H8T13169   5.839   6.179   7.190  0.6553 -0.6610  1.3837
  124OSM    C9S13170   6.030   6.099   7.222 -0.2524 -0.4696  0.0233
  124OSM    H9S13171   6.070   6.203   7.226  1.9236 -1.3008  2.7951
  124OSM    H9T13172   6.110   6.033   7.185  1.6425  0.2869  2.5101
  124OSM   C10S13173   6.013   6.054   7.366  0.2307 -0.4037  0.6639
  124OSM   H10S13174   5.966   5.954   7.368 -2.6143  0.8246  0.6218
  124OSM   H10T13175   5.957   6.126   7.431  0.3996 -2.8600  3.7464
  124OSM   C11S13176   6.150   6.027   7.432  0.3288 -0.0172  0.2872
  124OSM   H11S13177   6.207   6.122   7.425  0.8960 -0.2430  1.5565
  124OSM   H11T13178   6.207   5.947   7.380  1.1734 -0.0446  1.2361
  124OSM   C12S13179   6.133   5.981   7.577 -0.4056  0.2103  0.7018
  124OSM   H12S13180   6.236   5.951   7.605 -0.0120  1.9101  1.1922
  124OSM   H12T13181   6.086   5.880   7.581  0.4310 -0.1800  0.9411
  124OSM   C13S13182   6.086   6.082   7.684 -0.1298  0.0868 -0.0987
  124OSM   H13S13183   5.975   6.084   7.681 -0.1506 -1.6476 -2.5587
  124OSM   H13T13184   6.119   6.185   7.655 -0.0571  0.3968  1.0154
  124OSM   C14S13185   6.145   6.044   7.823  0.1399  0.2183  0.6582
  124OSM   H14S13186   6.255   6.039   7.810 -0.1407 -0.2562 -1.8438
  124OSM   H14T13187   6.105   5.947   7.860  2.4257 -0.7644  0.7122
  124OSM   C15S13188   6.101   6.144   7.933  0.2957  0.3123 -0.4296
  124OSM   H15S13189   5.997   6.180   7.920 -0.6130 -1.1290  2.1377
  124OSM   H15T13190   6.182   6.220   7.939  1.5058 -0.8158 -1.7567
  124OSM   C16S13191   6.101   6.075   8.066  0.2827 -0.0738  0.0068
  124OSM   H16S13192   6.193   6.014   8.075 -0.4169 -1.8142 -3.1764
  124OSM   H16T13193   6.020   5.999   8.071 -0.4566  0.7543  2.4703
  124OSM   C17S13194   6.088   6.167   8.187 -0.0664  0.6999 -0.0133
  124OSM   H17S13195   6.182   6.218   8.218  0.8159  0.0844 -1.5692
  124OSM   H17T13196   6.071   6.097   8.272 -0.5669 -0.4517 -1.0260
  124OSM   C18S13197   5.974   6.266   8.168 -0.3055 -0.4570 -0.0512
  124OSM   H18S13198   5.880   6.223   8.128  0.2516 -0.9515 -0.8487
  124OSM   H18T13199   6.006   6.351   8.103 -0.1703 -1.0373 -0.7594
  124OSM   H18U13200   5.959   6.316   8.266  1.2167  2.6254 -1.2419
  124OSM    C1F13201   6.260   6.030   6.559 -0.6751  0.2557 -0.6830
  124OSM     OF13202   6.294   6.121   6.485 -0.3047 -0.0184 -0.3885
  124OSM    C2F13203   6.357   5.953   6.636 -0.0866 -0.2993  0.5660
  124OSM    H2F13204   6.461   5.963   6.598 -0.1001  0.2659  0.6684
  124OSM    H2G13205   6.338   5.845   6.619 -1.7904  0.3541 -2.3613
  124OSM    C3F13206   6.348   6.001   6.780 -0.3605  0.3960 -0.1050
  124OSM    H3F13207   6.244   6.008   6.819 -0.3413  2.3745 -0.2898
  124OSM    H3G13208   6.385   6.105   6.790  1.4963 -0.2346 -0.0782
  124OSM    C4F13209   6.422   5.909   6.878 -0.1468  0.2362 -0.3831
  124OSM    H4F13210   6.515   5.883   6.823 -0.5276 -3.3020  0.4175
  124OSM    H4G13211   6.365   5.815   6.895  1.0326 -0.3600  0.3084
  124OSM    C5F13212   6.458   5.990   7.000 -0.2047 -0.0366 -0.2080
  124OSM    H5F13213   6.373   6.005   7.069 -0.4912 -0.6714 -0.4146
  124OSM    H5G13214   6.505   6.088   6.980  0.8584 -1.0111 -3.0635
  124OSM    C6F13215   6.562   5.912   7.093 -0.8641 -0.3440 -0.6510
  124OSM    H6F13216   6.643   5.861   7.037 -1.1006 -0.0657 -1.2588
  124OSM    H6G13217   6.498   5.831   7.134 -0.0684  0.0666  1.5064
  124OSM    C7F13218   6.612   5.993   7.215  0.1455 -0.1222  0.1540
  124OSM    H7F13219   6.624   6.099   7.186  0.7888  0.2646  1.7184
  124OSM    H7G13220   6.714   5.962   7.249  0.4849  1.6611  0.8872
  124OSM    C8F13221   6.523   5.997   7.341  0.1440 -0.4680 -0.0585
  124OSM    H8F13222   6.430   6.043   7.301 -0.6429 -0.9731  1.1292
  124OSM    H8G13223   6.560   6.062   7.423  1.1066 -0.6657 -0.3263
  124OSM    C9F13224   6.510   5.852   7.397 -0.1693 -0.3379  0.6672
  124OSM    H9F13225   6.449   5.793   7.327  0.6894  1.2596 -1.5799
  124OSM   C10F13226   6.546   5.799   7.511  0.6451 -0.8651  0.1674
  124OSM   H10F13227   6.516   5.695   7.529  3.7153 -1.7461  0.8506
  124OSM   C11F13228   6.597   5.877   7.627 -0.4239 -0.1272  0.1657
  124OSM   H11F13229   6.597   5.986   7.607  2.4077 -0.2791 -1.1584
  124OSM   H11G13230   6.700   5.842   7.648 -1.1091 -2.1592  0.3818
  124OSM   C12F13231   6.503   5.865   7.755 -0.6473 -0.4149  0.0174
  124OSM   H12F13232   6.471   5.764   7.788  0.3653  0.0022  2.4493
  124OSM   H12G13233   6.410   5.923   7.735 -2.1971 -2.1230  1.8613
  124OSM   C13F13234   6.568   5.929   7.887 -0.1691 -0.3214 -0.3866
  124OSM   H13F13235   6.565   6.039   7.874  0.4517 -0.4143 -1.4830
  124OSM   H13G13236   6.674   5.898   7.896 -0.4619 -0.8500  1.5245
  124OSM   C14F13237   6.494   5.886   8.018  1.1021  0.1657 -0.2456
  124OSM   H14F13238   6.491   5.778   8.044 -1.6626  0.4502  0.9222
  124OSM   H14G13239   6.389   5.915   7.998  1.3775 -0.3657 -2.8730
  124OSM   C15F13240   6.550   5.956   8.134 -0.1298 -0.3361  0.2472
  124OSM   H15F13241   6.552   6.063   8.104  0.5066 -0.0072  1.3828
  124OSM   H15G13242   6.654   5.925   8.155  0.5926  2.6146  1.5519
  124OSM   C16F13243   6.475   5.942   8.265 -0.0927 -0.5022 -0.2686
  124OSM   H16F13244   6.371   5.982   8.266  0.4619  0.9863  0.1238
  124OSM   H16G13245   6.532   5.999   8.341 -0.5258  0.3695 -0.5801
  124OSM   C17F13246   6.460   5.795   8.311  0.7508  0.3776  0.7079
  124OSM   H17F13247   6.557   5.743   8.295 -0.4531 -2.1313  1.0790
  124OSM   H17G13248   6.388   5.746   8.242 -1.4856  2.6302  1.3082
  124OSM   C18F13249   6.401   5.790   8.451  0.1956  0.2804 -0.5052
  124OSM   H18F13250   6.487   5.819   8.516  0.7179 -4.4736  1.3569
  124OSM   H18G13251   6.372   5.687   8.483 -3.3548  1.1660 -0.5381
  124OSM   H18H13252   6.312   5.854   8.468 -1.0004 -1.4596  0.0903
  125OSM      N13253   1.192   4.784   6.231 -0.6360  0.2660 -0.4581
  125OSM    C1513254   1.073   4.820   6.145 -0.0201  0.3498 -0.2957
  125OSM   H15A13255   1.013   4.735   6.117 -1.6523  1.8538 -1.6230
  125OSM   H15B13256   1.106   4.870   6.056  1.6134  0.2260  0.2166
  125OSM   H15C13257   1.004   4.883   6.200 -0.1514  0.3261 -0.4322
  125OSM    C1413258   1.301   4.723   6.152 -0.1263  0.2389  0.2232
  125OSM   H14A13259   1.385   4.712   6.218 -0.5363 -2.0224  0.4251
  125OSM   H14B13260   1.323   4.796   6.074 -1.5004  1.6880  1.1305
  125OSM   H14C13261   1.276   4.624   6.118 -1.7156  0.2429  1.2879
  125OSM    C1313262   1.238   4.904   6.313 -0.3692  0.0263 -0.0268
  125OSM   H13A13263   1.168   4.942   6.386  0.2068  0.1249  0.4864
  125OSM   H13B13264   1.271   4.985   6.249  1.0070 -0.8544 -0.4785
  125OSM   H13C13265   1.325   4.886   6.375  0.1391  0.9843 -0.4446
  125OSM    C1213266   1.152   4.671   6.335 -0.7067  0.3393 -0.6517
  125OSM   H12A13267   1.099   4.717   6.418 -0.0804 -1.6546  0.9448
  125OSM   H12B13268   1.240   4.626   6.380 -0.8758 -0.6131 -1.2555
  125OSM    C1113269   1.052   4.565   6.287  0.3625 -0.2905 -0.3499
  125OSM   H11A13270   0.961   4.622   6.259  0.8002  0.5316 -0.1376
  125OSM   H11B13271   1.021   4.503   6.373 -0.5914 -1.3040 -1.3900
  125OSM      P13272   1.182   4.352   6.218  0.0446 -0.0266 -0.1127
  125OSM    O1313273   1.105   4.236   6.167  0.5346  1.4662 -0.5327
  125OSM    O1413274   1.317   4.372   6.169  0.5165  0.1422  0.5037
  125OSM    O1113275   1.188   4.347   6.373  0.0468 -0.2286  0.0683
  125OSM    O1213276   1.104   4.485   6.185 -0.3337  0.8693 -0.2250
  125OSM    C1S13277   1.307   4.376   6.445 -0.6877  0.4309 -0.0112
  125OSM    H1S13278   1.371   4.452   6.395  0.1763 -1.4131 -1.8321
  125OSM    H1T13279   1.368   4.284   6.459 -1.5251  0.0600  1.4608
  125OSM     NF13280   1.389   4.466   6.657  0.0547 -0.4438  0.2850
  125OSM    HNF13281   1.421   4.403   6.727 -1.6670  2.4661  3.9921
  125OSM    C2S13282   1.273   4.414   6.596  0.3867 -0.3146  0.1837
  125OSM    H2S13283   1.196   4.495   6.598 -0.8495 -1.4575  0.2327
  125OSM    C3S13284   1.217   4.290   6.675 -0.1834  0.1543  0.7374
  125OSM    H3S13285   1.300   4.217   6.688  1.2280  1.1128 -2.0145
  125OSM     O313286   1.109   4.230   6.610  0.0095 -0.7526  0.3810
  125OSM    HO313287   1.115   4.283   6.530  3.0061 -0.1543  0.9026
  125OSM    C4S13288   1.166   4.327   6.815 -0.4100  0.0499 -0.1324
  125OSM    H4S13289   1.229   4.281   6.893 -1.0653 -2.1234 -0.8025
  125OSM    C5S13290   1.045   4.376   6.848  0.3995 -0.3370  0.4006
  125OSM    H5S13291   0.974   4.374   6.764  2.4213  0.0840 -1.4272
  125OSM    C6S13292   1.005   4.392   6.987 -0.0901 -0.2804  0.3967
  125OSM    H6S13293   0.905   4.347   7.005  0.0803 -0.2776  1.4561
  125OSM    H6T13294   0.991   4.500   7.009 -2.4036 -0.2074 -1.0642
  125OSM    C7S13295   1.103   4.344   7.099 -0.3404 -0.4901 -0.0383
  125OSM    H7S13296   1.203   4.390   7.085  0.2556 -0.8581  2.4636
  125OSM    H7T13297   1.109   4.235   7.121 -1.4178 -0.1208  2.3785
  125OSM    C8S13298   1.066   4.410   7.234  0.4660 -0.4590 -0.2308
  125OSM    H8S13299   0.961   4.380   7.253  0.0678  1.0862  0.1450
  125OSM    H8T13300   1.049   4.518   7.212 -0.8897 -0.8094 -1.0032
  125OSM    C9S13301   1.162   4.378   7.347 -0.0918 -0.5065  0.1031
  125OSM    H9S13302   1.251   4.436   7.312 -1.1034  1.8173  1.1482
  125OSM    H9T13303   1.172   4.268   7.346 -1.8459 -0.7290  1.7398
  125OSM   C10S13304   1.102   4.423   7.488  0.4270 -0.5334  0.7673
  125OSM   H10S13305   1.007   4.366   7.486  0.4581 -0.6684 -2.7498
  125OSM   H10T13306   1.084   4.533   7.482  0.7792 -0.5620 -1.7970
  125OSM   C11S13307   1.187   4.380   7.601 -0.0629 -0.3760  0.1041
  125OSM   H11S13308   1.275   4.448   7.599 -1.2558  1.2165 -0.1401
  125OSM   H11T13309   1.221   4.276   7.581 -0.4880 -0.9097  2.0152
  125OSM   C12S13310   1.122   4.381   7.742  0.0548  0.6601  0.7480
  125OSM   H12S13311   1.026   4.327   7.731  1.3255 -1.4110 -1.3116
  125OSM   H12T13312   1.104   4.486   7.772 -0.9050  1.2475 -1.6429
  125OSM   C13S13313   1.210   4.310   7.851  0.4083 -0.1932 -0.1683
  125OSM   H13S13314   1.309   4.359   7.844  0.4231 -0.4830 -3.9166
  125OSM   H13T13315   1.218   4.200   7.833  0.0899  0.1972 -3.2114
  125OSM   C14S13316   1.145   4.332   7.989  0.2703 -0.7230  0.1796
  125OSM   H14S13317   1.042   4.293   7.975  0.1650 -0.7012  0.8545
  125OSM   H14T13318   1.135   4.442   7.998  0.1503 -0.7845  0.9087
  125OSM   C15S13319   1.223   4.268   8.097 -0.4302  0.2931 -0.3443
  125OSM   H15S13320   1.238   4.160   8.076 -0.8414  0.5112 -1.8354
  125OSM   H15T13321   1.160   4.292   8.186  0.0586  1.5308 -0.3058
  125OSM   C16S13322   1.361   4.333   8.123  0.7526  0.3466 -0.7242
  125OSM   H16S13323   1.352   4.443   8.137  1.5697  0.5566 -1.7521
  125OSM   H16T13324   1.421   4.310   8.032 -1.2468 -1.8750 -1.5774
  125OSM   C17S13325   1.436   4.281   8.247  0.5470 -0.0014  1.0823
  125OSM   H17S13326   1.518   4.347   8.281 -0.5626 -0.0814  4.3073
  125OSM   H17T13327   1.475   4.183   8.212 -2.2682 -0.7226 -0.3399
  125OSM   C18S13328   1.356   4.259   8.378  0.3454 -0.3110 -1.0193
  125OSM   H18S13329   1.423   4.227   8.460  1.4411  3.9462 -0.0031
  125OSM   H18T13330   1.283   4.181   8.347 -1.5420  0.9290  0.1137
  125OSM   H18U13331   1.296   4.347   8.409  0.1350 -0.7419 -0.1948
  125OSM    C1F13332   1.428   4.597   6.635  1.0810  0.6511  0.5520
  125OSM     OF13333   1.370   4.668   6.553  0.2894  0.8497  0.5330
  125OSM    C2F13334   1.551   4.646   6.705 -0.7456 -0.0349  0.8977
  125OSM    H2F13335   1.601   4.708   6.629 -0.7720 -0.8798  0.1728
  125OSM    H2G13336   1.621   4.565   6.736 -1.1531  0.0265  2.0529
  125OSM    C3F13337   1.510   4.742   6.815  0.0512  0.1729  0.6895
  125OSM    H3F13338   1.470   4.835   6.768  1.4905  1.5118  1.9622
  125OSM    H3G13339   1.604   4.780   6.861  0.8563 -1.7925  0.7381
  125OSM    C4F13340   1.413   4.689   6.921 -0.3401  0.1752 -0.3697
  125OSM    H4F13341   1.449   4.592   6.962 -0.1650 -0.0633 -1.0788
  125OSM    H4G13342   1.315   4.663   6.876 -1.3293  1.6419  0.8356
  125OSM    C5F13343   1.392   4.784   7.045 -0.8226 -0.2817  0.7815
  125OSM    H5F13344   1.298   4.763   7.100 -0.3604  0.0603  1.7125
  125OSM    H5G13345   1.392   4.884   6.997  0.9137 -1.3706 -1.7099
  125OSM    C6F13346   1.507   4.794   7.142  0.3183  0.2299  0.3377
  125OSM    H6F13347   1.484   4.869   7.220  3.6812 -0.7663  2.5284
  125OSM    H6G13348   1.601   4.829   7.095 -0.1203  0.8272 -0.1057
  125OSM    C7F13349   1.534   4.669   7.227  0.1334  0.1501 -0.6613
  125OSM    H7F13350   1.636   4.682   7.270  0.9139  0.3521 -2.4722
  125OSM    H7G13351   1.526   4.579   7.163 -0.8141  0.7292 -1.3745
  125OSM    C8F13352   1.422   4.654   7.338  0.0528 -0.3804  0.0647
  125OSM    H8F13353   1.429   4.550   7.377 -0.3616 -0.3444  0.2478
  125OSM    H8G13354   1.328   4.661   7.279  0.4871 -0.1933 -0.6177
  125OSM    C9F13355   1.430   4.755   7.448  0.0049  0.7275  0.0364
  125OSM    H9F13356   1.374   4.848   7.429 -1.1110  0.5575  2.2351
  125OSM   C10F13357   1.475   4.734   7.574 -0.3918  0.0585 -0.5276
  125OSM   H10F13358   1.464   4.825   7.635 -0.0601 -0.6377  0.6151
  125OSM   C11F13359   1.523   4.605   7.644  0.4042 -0.9412  0.3115
  125OSM   H11F13360   1.631   4.598   7.618 -0.1132 -0.4086 -2.3148
  125OSM   H11G13361   1.472   4.516   7.601  0.5414 -0.4568 -0.9037
  125OSM   C12F13362   1.499   4.605   7.794 -0.8809  0.3981 -0.0683
  125OSM   H12F13363   1.525   4.505   7.835 -0.8611  0.6703  0.6035
  125OSM   H12G13364   1.395   4.632   7.825 -0.2517  0.0731  2.5749
  125OSM   C13F13365   1.592   4.700   7.870 -0.6245 -0.0805  0.7643
  125OSM   H13F13366   1.582   4.800   7.823 -0.3472  0.7179  2.3494
  125OSM   H13G13367   1.699   4.671   7.864 -0.6071  0.1485 -0.1775
  125OSM   C14F13368   1.558   4.713   8.017 -0.1029  0.1661 -1.1037
  125OSM   H14F13369   1.601   4.624   8.069  0.2539  1.9652  1.9363
  125OSM   H14G13370   1.447   4.711   8.018 -0.2374 -4.3695 -1.9967
  125OSM   C15F13371   1.623   4.846   8.074 -0.2425 -0.3091 -0.0222
  125OSM   H15F13372   1.594   4.927   8.004  1.3293  0.5726  0.2941
  125OSM   H15G13373   1.732   4.842   8.057 -0.3525  1.3951 -1.4660
  125OSM   C16F13374   1.579   4.883   8.217 -0.2763  0.1670 -0.0699
  125OSM   H16F13375   1.473   4.915   8.230 -0.1550 -0.0017  1.4567
  125OSM   H16G13376   1.626   4.973   8.262  0.3648  1.1874 -2.6374
  125OSM   C17F13377   1.610   4.766   8.324 -0.0559  0.6369  0.2552
  125OSM   H17F13378   1.716   4.741   8.304  0.1050  1.7414 -0.3906
  125OSM   H17G13379   1.546   4.678   8.301  0.5476  0.3166 -0.2383
  125OSM   C18F13380   1.595   4.816   8.471  0.3145  1.1213  0.9225
  125OSM   H18F13381   1.645   4.745   8.541  0.8496 -0.0690 -0.6281
  125OSM   H18G13382   1.486   4.829   8.487  0.0752  0.4457 -0.1131
  125OSM   H18H13383   1.644   4.913   8.497  1.8731 -0.0120  2.4580
  126OSM      N13384   5.313   2.006   6.202  0.3531  0.2721  0.6177
  126OSM    C1513385   5.170   1.947   6.190 -0.1767 -0.3117 -0.6385
  126OSM   H15A13386   5.176   1.841   6.211 -1.0115 -0.1696  0.3775
  126OSM   H15B13387   5.123   1.972   6.096  0.7140 -0.1261 -1.0461
  126OSM   H15C13388   5.114   1.983   6.275  0.7755  0.8407 -0.4708
  126OSM    C1413389   5.405   1.944   6.097 -0.0011  0.0308  0.0826
  126OSM   H14A13390   5.356   1.943   6.000  1.6522 -1.6104 -0.7937
  126OSM   H14B13391   5.422   1.841   6.123 -1.4050 -0.3443 -0.4059
  126OSM   H14C13392   5.501   1.987   6.074 -0.9457  1.0740 -2.2694
  126OSM    C1313393   5.297   2.153   6.171  0.0894  0.2941  0.2431
  126OSM   H13A13394   5.247   2.191   6.259  1.1773 -0.0737  1.0364
  126OSM   H13B13395   5.250   2.161   6.074 -0.4849  0.8330  0.5540
  126OSM   H13C13396   5.398   2.190   6.163  0.0343  0.0749 -2.3618
  126OSM    C1213397   5.369   1.982   6.339 -0.1867 -0.2650  0.9272
  126OSM   H12A13398   5.467   2.028   6.329  0.2831 -1.3621  0.2231
  126OSM   H12B13399   5.394   1.876   6.340  3.4396  0.4151 -0.2834
  126OSM    C1113400   5.299   2.040   6.455 -0.7766  0.0345  0.4059
  126OSM   H11A13401   5.278   2.148   6.438  0.4045  0.1620 -0.3885
  126OSM   H11B13402   5.365   2.034   6.544 -0.1466  0.7702 -0.0008
  126OSM      P13403   5.164   1.839   6.538  0.4440 -0.4226 -0.0837
  126OSM    O1313404   5.028   1.789   6.512 -0.1628  0.6653 -0.1399
  126OSM    O1413405   5.283   1.759   6.496  0.6147  0.1347  0.5106
  126OSM    O1113406   5.173   1.874   6.692 -0.0802 -0.2124  0.1452
  126OSM    O1213407   5.178   1.978   6.484  0.2553 -0.4505 -0.0889
  126OSM    C1S13408   5.051   1.913   6.760 -0.7109  0.6141  0.2048
  126OSM    H1S13409   4.988   1.822   6.776  0.8563 -0.1361  2.5846
  126OSM    H1T13410   4.977   1.968   6.698 -0.4973 -0.4676 -1.0570
  126OSM     NF13411   4.937   1.987   6.955 -0.9306 -0.5634  0.4220
  126OSM    HNF13412   4.893   2.076   6.949 -2.6287 -1.4389 -1.1731
  126OSM    C2S13413   5.071   1.979   6.900  0.0189 -0.1183  0.0309
  126OSM    H2S13414   5.139   1.922   6.968 -0.3734 -0.0601  0.4818
  126OSM    C3S13415   5.145   2.115   6.884  0.8820 -0.1124 -0.1803
  126OSM    H3S13416   5.083   2.177   6.816  0.4594 -1.1468 -0.7742
  126OSM     O313417   5.264   2.097   6.805 -0.2562 -0.4986 -0.3101
  126OSM    HO313418   5.259   2.005   6.777 -0.5066 -0.8063  0.7114
  126OSM    C4S13419   5.161   2.182   7.017  0.1188  0.3249  0.0255
  126OSM    H4S13420   5.070   2.234   7.051 -0.7943 -0.9522 -0.3957
  126OSM    C5S13421   5.267   2.183   7.100  0.5913  0.3758 -1.1202
  126OSM    H5S13422   5.362   2.137   7.070  0.0836 -1.1838 -0.4310
  126OSM    C6S13423   5.277   2.251   7.230 -0.0290 -0.2366  0.5085
  126OSM    H6S13424   5.295   2.181   7.314  4.0739 -0.8981 -0.6954
  126OSM    H6T13425   5.180   2.305   7.234 -0.4837 -1.0186  0.1799
  126OSM    C7S13426   5.396   2.347   7.245 -0.2794  0.2029  0.0154
  126OSM    H7S13427   5.385   2.432   7.174  1.3009  2.2461  2.0742
  126OSM    H7T13428   5.493   2.296   7.232 -0.3315  0.5652 -2.2274
  126OSM    C8S13429   5.386   2.419   7.383 -0.7017 -0.4055  0.0121
  126OSM    H8S13430   5.281   2.440   7.414 -0.0421  3.1697  0.2528
  126OSM    H8T13431   5.439   2.516   7.372  0.6201 -1.2936 -2.0663
  126OSM    C9S13432   5.447   2.327   7.493 -0.5414  0.4807 -0.1815
  126OSM    H9S13433   5.535   2.279   7.444 -0.4072  1.7495 -1.2297
  126OSM    H9T13434   5.383   2.238   7.512  0.4581  0.1853  2.1468
  126OSM   C10S13435   5.468   2.393   7.632  0.4191 -0.4685  0.6094
  126OSM   H10S13436   5.370   2.415   7.680  0.8163  0.3842  1.0407
  126OSM   H10T13437   5.527   2.485   7.612 -0.4102 -0.3619 -1.6242
  126OSM   C11S13438   5.536   2.315   7.734 -0.3001 -0.0873 -0.2955
  126OSM   H11S13439   5.634   2.275   7.701 -0.7083 -1.6308  0.3086
  126OSM   H11T13440   5.477   2.228   7.769 -0.3482  0.9077  2.3308
  126OSM   C12S13441   5.576   2.406   7.853 -0.6684 -0.5800  0.1762
  126OSM   H12S13442   5.485   2.467   7.870  0.5025  1.3618 -0.2474
  126OSM   H12T13443   5.650   2.478   7.812 -0.1729 -0.1847  1.7017
  126OSM   C13S13444   5.622   2.353   7.989  0.4170  0.1115 -0.3764
  126OSM   H13S13445   5.628   2.442   8.055 -0.8355 -1.0069  1.3211
  126OSM   H13T13446   5.728   2.320   7.999  1.4739  3.0206 -1.1691
  126OSM   C14S13447   5.531   2.243   8.044  0.0694  0.1366 -1.2945
  126OSM   H14S13448   5.558   2.151   7.988  0.9147  1.1598 -2.6437
  126OSM   H14T13449   5.421   2.259   8.035  0.1341  0.9379 -0.7566
  126OSM   C15S13450   5.575   2.212   8.188 -0.7366  0.3490  0.3124
  126OSM   H15S13451   5.567   2.302   8.251  1.0760  0.5866  0.2578
  126OSM   H15T13452   5.686   2.204   8.192 -0.7113 -1.2327 -1.7553
  126OSM   C16S13453   5.500   2.087   8.241  0.1494 -0.8037  0.8431
  126OSM   H16S13454   5.526   1.995   8.183 -0.5390  0.2720 -1.2809
  126OSM   H16T13455   5.392   2.111   8.232  0.2782 -0.8096 -1.3677
  126OSM   C17S13456   5.519   2.073   8.392 -0.3027  0.6034 -0.4559
  126OSM   H17S13457   5.519   2.173   8.441  2.0786  1.0784 -1.3217
  126OSM   H17T13458   5.627   2.050   8.391 -0.3149  0.5688 -0.9971
  126OSM   C18S13459   5.426   1.976   8.461  0.3360 -0.2364 -0.2371
  126OSM   H18S13460   5.468   1.938   8.557 -1.2132  0.6577  0.8443
  126OSM   H18T13461   5.413   1.896   8.385  0.2113 -0.1884 -0.2662
  126OSM   H18U13462   5.324   2.015   8.481  0.7982  1.1279 -0.4733
  126OSM    C1F13463   4.855   1.890   6.986  0.0079 -0.4641 -0.7683
  126OSM     OF13464   4.889   1.775   6.999  0.1196 -0.2200  0.6821
  126OSM    C2F13465   4.712   1.941   7.025  0.4743 -0.1942  0.7951
  126OSM    H2F13466   4.645   1.922   6.939  0.2207  2.7030  0.2511
  126OSM    H2G13467   4.728   2.050   7.040  1.3575 -0.2955  0.6512
  126OSM    C3F13468   4.662   1.891   7.168  0.4545 -0.0522  0.3954
  126OSM    H3F13469   4.638   1.783   7.168  0.5857 -0.0960  1.4873
  126OSM    H3G13470   4.562   1.937   7.184 -1.0404 -2.5083 -1.2395
  126OSM    C4F13471   4.758   1.911   7.293  0.9753 -1.3303  0.3734
  126OSM    H4F13472   4.761   2.018   7.321  0.1146 -1.2275  0.0786
  126OSM    H4G13473   4.858   1.877   7.256  0.7007 -0.4208 -1.2782
  126OSM    C5F13474   4.712   1.832   7.414 -0.1853 -0.3334 -0.0939
  126OSM    H5F13475   4.690   1.727   7.386  0.3020 -0.5659  0.3593
  126OSM    H5G13476   4.623   1.887   7.450  1.0431  0.3118  2.2198
  126OSM    C6F13477   4.822   1.836   7.512 -0.4142  0.0911  0.0579
  126OSM    H6F13478   4.828   1.943   7.539 -1.2683  0.2344 -0.2961
  126OSM    H6G13479   4.918   1.792   7.478  0.3541 -0.2416  2.4754
  126OSM    C7F13480   4.787   1.754   7.637  1.3165 -0.0776 -0.0278
  126OSM    H7F13481   4.774   1.647   7.608 -0.4910 -0.0577  0.6155
  126OSM    H7G13482   4.688   1.786   7.675  1.4060 -0.8418  0.8683
  126OSM    C8F13483   4.873   1.773   7.765 -0.5937  0.2919  0.1231
  126OSM    H8F13484   4.857   1.878   7.797 -0.8209 -0.1122  1.3684
  126OSM    H8G13485   4.978   1.774   7.728 -0.5275  0.0440  0.3002
  126OSM    C9F13486   4.842   1.666   7.871  0.3169  0.0598 -0.0100
  126OSM    H9F13487   4.898   1.573   7.853 -0.6444 -0.9328  1.7688
  126OSM   C10F13488   4.750   1.673   7.981 -0.4237  0.3568  0.1568
  126OSM   H10F13489   4.737   1.575   8.030  2.2344 -0.3659 -0.3834
  126OSM   C11F13490   4.661   1.782   8.022 -0.2641  0.1519  0.0477
  126OSM   H11F13491   4.556   1.752   8.044 -0.2147  0.3680  0.5915
  126OSM   H11G13492   4.665   1.862   7.945 -2.8601 -0.0070 -0.3720
  126OSM   C12F13493   4.721   1.852   8.144  0.0805  0.2605 -0.1460
  126OSM   H12F13494   4.678   1.955   8.146  1.0807  0.7830 -2.3329
  126OSM   H12G13495   4.829   1.868   8.126 -0.2633 -0.2669 -3.1561
  126OSM   C13F13496   4.695   1.758   8.268 -0.0400 -0.0420  0.8256
  126OSM   H13F13497   4.752   1.664   8.250  0.0466  0.0012  0.8761
  126OSM   H13G13498   4.589   1.735   8.293  0.4626  0.6091  3.9303
  126OSM   C14F13499   4.733   1.829   8.399 -0.3008 -0.5569 -0.1827
  126OSM   H14F13500   4.700   1.762   8.482  2.4201 -1.4369  0.2981
  126OSM   H14G13501   4.676   1.924   8.406  0.1087 -0.1167 -2.2383
  126OSM   C15F13502   4.890   1.841   8.415  0.1154  0.3163  0.2167
  126OSM   H15F13503   4.929   1.919   8.346  2.7590 -2.2641 -1.3958
  126OSM   H15G13504   4.944   1.747   8.394  0.1549  0.5245 -0.6298
  126OSM   C16F13505   4.929   1.870   8.563  0.2717 -0.8155 -0.5226
  126OSM   H16F13506   4.876   1.796   8.628 -1.1750  0.2288 -0.4677
  126OSM   H16G13507   4.877   1.968   8.568 -0.8054 -1.3275 -1.3046
  126OSM   C17F13508   5.074   1.892   8.574 -0.4247 -0.5487  0.6457
  126OSM   H17F13509   5.109   1.980   8.516 -0.5930 -2.0069 -1.8000
  126OSM   H17G13510   5.142   1.811   8.538  0.1425 -0.5158  1.6021
  126OSM   C18F13511   5.124   1.922   8.716  0.0865 -0.3735  0.5145
  126OSM   H18F13512   5.161   2.027   8.722  0.7560 -0.6037  0.5357
  126OSM   H18G13513   5.207   1.862   8.758  1.4665  1.4280  0.4862
  126OSM   H18H13514   5.040   1.920   8.789 -0.3141 -1.5807  0.0338
  127OSM      N13515   1.075   2.599   6.142 -0.4211 -0.3538 -0.7990
  127OSM    C1513516   1.187   2.642   6.047  0.4067 -0.1481 -0.0797
  127OSM   H15A13517   1.169   2.729   5.985  0.6473  0.6889  0.9916
  127OSM   H15B13518   1.230   2.563   5.987  1.8032  1.4780 -1.3190
  127OSM   H15C13519   1.267   2.674   6.112  1.3114  0.5682 -1.4879
  127OSM    C1413520   1.031   2.713   6.230  0.0331  0.4315 -0.5845
  127OSM   H14A13521   0.999   2.799   6.173  0.3731  2.3791  1.9648
  127OSM   H14B13522   1.108   2.754   6.294 -0.5357  0.3740  0.1424
  127OSM   H14C13523   0.944   2.689   6.289 -0.4568 -2.0120 -2.1396
  127OSM    C1313524   0.950   2.554   6.071 -0.0422 -0.5895  1.2580
  127OSM   H13A13525   0.925   2.638   6.008 -1.4842 -1.2942  0.8459
  127OSM   H13B13526   0.873   2.536   6.144 -0.0172 -0.7734  1.2398
  127OSM   H13C13527   0.971   2.470   6.006 -3.0035 -1.2866  1.0927
  127OSM    C1213528   1.131   2.491   6.228  0.2336 -0.2345 -0.2723
  127OSM   H12A13529   1.176   2.409   6.174  1.1828 -0.3598  0.6618
  127OSM   H12B13530   1.055   2.443   6.288 -1.6350  1.4633 -1.1792
  127OSM    C1113531   1.231   2.538   6.342  0.3701 -0.2146  0.2011
  127OSM   H11A13532   1.263   2.442   6.388  1.4287 -0.1887 -0.4442
  127OSM   H11B13533   1.172   2.600   6.412  1.0018 -0.3583  0.8685
  127OSM      P13534   1.408   2.734   6.352  0.1683 -0.3082 -0.5269
  127OSM    O1313535   1.556   2.728   6.358  0.1161  0.2333  0.4613
  127OSM    O1413536   1.343   2.846   6.282 -0.2228 -0.6403  0.6915
  127OSM    O1113537   1.362   2.737   6.504  0.0843 -0.0404 -0.0172
  127OSM    O1213538   1.350   2.599   6.294 -0.0586  0.7516  0.1059
  127OSM    C1S13539   1.412   2.643   6.598 -0.1399 -0.3912  0.2692
  127OSM    H1S13540   1.488   2.576   6.551  0.3975  1.0654 -1.0230
  127OSM    H1T13541   1.329   2.584   6.642  0.7781 -1.0394  1.1861
  127OSM     NF13542   1.509   2.620   6.823 -0.2303  0.2298  0.0034
  127OSM    HNF13543   1.439   2.590   6.888  0.0107  1.0226  0.6437
  127OSM    C2S13544   1.472   2.721   6.722  0.1019 -0.2080 -0.6684
  127OSM    H2S13545   1.564   2.777   6.692  1.9766 -1.9831  1.3942
  127OSM    C3S13546   1.378   2.823   6.790 -0.0670  0.4593  0.2282
  127OSM    H3S13547   1.283   2.774   6.821  1.0910 -2.0597 -0.0022
  127OSM     O313548   1.336   2.916   6.693  0.2302 -0.2891  0.2838
  127OSM    HO313549   1.353   2.883   6.604  1.7960 -0.3659  0.5791
  127OSM    C4S13550   1.451   2.882   6.910  0.6577 -0.4504 -0.2132
  127OSM    H4S13551   1.459   2.818   7.000 -0.0538  0.6281  0.6469
  127OSM    C5S13552   1.517   3.002   6.903  0.1529  0.7357  0.0723
  127OSM    H5S13553   1.515   3.065   6.813 -0.4391 -1.6075 -1.6752
  127OSM    C6S13554   1.607   3.041   7.015  0.1715  0.4215 -0.2318
  127OSM    H6S13555   1.709   3.040   6.971 -0.4547 -0.8770 -1.7495
  127OSM    H6T13556   1.600   2.966   7.096  0.3800  1.5751  0.8857
  127OSM    C7S13557   1.568   3.178   7.077 -1.1039 -0.2650 -1.0898
  127OSM    H7S13558   1.471   3.166   7.128 -0.2384  0.1800  0.7561
  127OSM    H7T13559   1.562   3.256   6.998  0.5385  0.4509 -0.5501
  127OSM    C8S13560   1.682   3.229   7.170 -0.3006 -0.3501  0.0682
  127OSM    H8S13561   1.774   3.262   7.116 -0.0096  0.4630  1.0274
  127OSM    H8T13562   1.715   3.151   7.242 -1.2602 -0.4614  0.3989
  127OSM    C9S13563   1.632   3.345   7.265 -0.4402 -0.3579 -0.0638
  127OSM    H9S13564   1.543   3.298   7.313  0.6102 -0.1430  2.2447
  127OSM    H9T13565   1.611   3.433   7.201 -0.3436 -1.5722 -1.8409
  127OSM   C10S13566   1.711   3.386   7.398  0.4702  0.0498  1.0964
  127OSM   H10S13567   1.636   3.437   7.462 -0.1844 -1.3001  1.4251
  127OSM   H10T13568   1.797   3.450   7.368 -0.1594  0.0150 -0.9423
  127OSM   C11S13569   1.758   3.267   7.482 -0.3492  0.7477  0.2473
  127OSM   H11S13570   1.832   3.217   7.416  1.0885  1.7007  1.0557
  127OSM   H11T13571   1.674   3.203   7.515 -1.4856  1.0893 -1.8442
  127OSM   C12S13572   1.837   3.332   7.596  0.3468 -0.1397 -0.1152
  127OSM   H12S13573   1.779   3.399   7.664  0.1013 -0.7125  0.2501
  127OSM   H12T13574   1.916   3.395   7.550  0.1081 -0.5740 -1.1479
  127OSM   C13S13575   1.892   3.225   7.694 -0.0498  0.7379  0.0965
  127OSM   H13S13576   1.943   3.158   7.622 -1.4581  0.5703 -0.7831
  127OSM   H13T13577   1.815   3.171   7.753 -0.2443 -3.3109 -3.4474
  127OSM   C14S13578   1.990   3.276   7.789  0.2034 -0.6423 -0.1983
  127OSM   H14S13579   1.949   3.334   7.875  0.1228  0.1486 -0.7531
  127OSM   H14T13580   2.071   3.336   7.742  1.4776 -1.7846  0.4753
  127OSM   C15S13581   2.070   3.166   7.862 -0.5508  0.7880 -0.4002
  127OSM   H15S13582   2.145   3.220   7.923 -0.1729 -2.8064  2.7288
  127OSM   H15T13583   2.134   3.113   7.788 -0.9158 -0.5224  0.1849
  127OSM   C16S13584   1.993   3.068   7.949 -0.2606  0.4926 -0.6168
  127OSM   H16S13585   1.931   3.003   7.884 -2.2422 -1.3109  2.8136
  127OSM   H16T13586   1.928   3.114   8.026  0.6943  1.1895 -0.1981
  127OSM   C17S13587   2.088   2.965   8.018  0.5666 -0.1740  0.2431
  127OSM   H17S13588   2.141   2.907   7.939  2.3482  0.9117  0.5968
  127OSM   H17T13589   2.016   2.896   8.067  0.0797 -0.7066 -1.1750
  127OSM   C18S13590   2.177   3.017   8.131  0.3205  0.3012  0.1600
  127OSM   H18S13591   2.275   3.051   8.092 -0.1771 -0.3476 -1.7378
  127OSM   H18T13592   2.200   2.935   8.202 -1.8047  1.1222  1.9656
  127OSM   H18U13593   2.141   3.107   8.186  1.8316  0.4875  0.8777
  127OSM    C1F13594   1.620   2.548   6.818  0.0066  1.0271 -0.7240
  127OSM     OF13595   1.700   2.572   6.734 -0.3261  0.1207  0.5525
  127OSM    C2F13596   1.640   2.454   6.933  0.3812  0.8455 -0.0413
  127OSM    H2F13597   1.549   2.392   6.943 -0.4718  1.4639 -2.9738
  127OSM    H2G13598   1.662   2.517   7.022  1.2985 -0.9181  1.0320
  127OSM    C3F13599   1.755   2.357   6.917 -0.0514 -0.3777  0.4863
  127OSM    H3F13600   1.853   2.409   6.917  0.5468 -1.4641  1.1911
  127OSM    H3G13601   1.741   2.307   6.818 -1.7091 -0.3679  0.6789
  127OSM    C4F13602   1.776   2.251   7.037  0.2343 -0.1636 -0.1394
  127OSM    H4F13603   1.870   2.195   7.018  0.1824  0.4439 -2.4797
  127OSM    H4G13604   1.694   2.177   7.030  0.4421 -0.2880 -1.5431
  127OSM    C5F13605   1.771   2.321   7.171 -0.6438 -0.7512  0.1030
  127OSM    H5F13606   1.665   2.350   7.184 -0.7345 -0.9012 -0.3036
  127OSM    H5G13607   1.833   2.409   7.142 -1.7206 -1.4850 -5.5330
  127OSM    C6F13608   1.827   2.239   7.288  0.4501  0.0715  0.2195
  127OSM    H6F13609   1.922   2.187   7.260  0.8994  0.8681  0.2430
  127OSM    H6G13610   1.766   2.148   7.305 -0.5461  0.5695 -0.6014
  127OSM    C7F13611   1.848   2.326   7.409 -0.0644 -0.4190  0.1642
  127OSM    H7F13612   1.751   2.372   7.438  1.6851  1.6492  3.3158
  127OSM    H7G13613   1.925   2.405   7.392  1.5159 -2.0962 -0.9534
  127OSM    C8F13614   1.893   2.256   7.539 -0.4294  0.6267 -0.3085
  127OSM    H8F13615   1.803   2.199   7.569  0.1225  0.5149  1.2380
  127OSM    H8G13616   1.917   2.340   7.608  0.7262  0.1254 -0.0701
  127OSM    C9F13617   2.010   2.160   7.546  0.3390  0.1302  0.4392
  127OSM    H9F13618   2.022   2.095   7.458 -1.1573 -0.8497  0.9175
  127OSM   C10F13619   2.087   2.140   7.652 -0.7790  0.2746  0.1491
  127OSM   H10F13620   2.173   2.073   7.640 -0.4516  0.4603  1.3030
  127OSM   C11F13621   2.089   2.218   7.784  0.4634  0.6442 -0.5508
  127OSM   H11F13622   1.994   2.274   7.799 -0.6439 -1.1905 -0.4921
  127OSM   H11G13623   2.174   2.290   7.790  1.4400 -0.3246 -1.9530
  127OSM   C12F13624   2.092   2.110   7.895  0.2793  0.1226  1.0704
  127OSM   H12F13625   2.181   2.044   7.890 -0.6595 -1.1257  0.3837
  127OSM   H12G13626   2.011   2.037   7.872  0.0100  1.4254 -2.7993
  127OSM   C13F13627   2.055   2.157   8.032  0.2190 -0.6590  1.2012
  127OSM   H13F13628   1.946   2.180   8.035 -0.0377 -0.2893 -3.5577
  127OSM   H13G13629   2.100   2.254   8.061 -2.4906  0.4911  1.9410
  127OSM   C14F13630   2.073   2.050   8.141 -0.9920  0.3609  0.1916
  127OSM   H14F13631   2.179   2.018   8.138 -0.6250  1.6004 -0.7607
  127OSM   H14G13632   2.022   1.960   8.101 -1.5622 -0.2376  2.1584
  127OSM   C15F13633   2.031   2.084   8.280  0.0333  0.2652  0.1455
  127OSM   H15F13634   1.921   2.072   8.290  0.2646 -1.1254  1.3360
  127OSM   H15G13635   2.070   2.188   8.284  0.2316  0.3146 -2.0209
  127OSM   C16F13636   2.112   2.006   8.388 -0.5117 -0.2638 -0.2764
  127OSM   H16F13637   2.125   1.898   8.361 -1.1576 -0.4678  0.1999
  127OSM   H16G13638   2.044   1.992   8.475 -1.0318 -1.8095 -0.8849
  127OSM   C17F13639   2.242   2.082   8.436  0.3848 -0.4179  1.2834
  127OSM   H17F13640   2.226   2.191   8.422 -1.0565 -0.3515  3.0492
  127OSM   H17G13641   2.318   2.050   8.361 -0.7544 -1.8202  0.6758
  127OSM   C18F13642   2.281   2.057   8.574  0.7882  0.9240  0.4806
  127OSM   H18F13643   2.199   2.089   8.641  1.0758  1.2479  0.6828
  127OSM   H18G13644   2.371   2.111   8.610  2.0613 -0.3126 -0.7182
  127OSM   H18H13645   2.305   1.950   8.591  1.0185  0.9378  0.2432
  128OSM      N13646   4.324   4.832   6.063  0.3952  0.2674  1.0556
  128OSM    C1513647   4.381   4.939   5.965  0.4080 -0.5536 -0.6172
  128OSM   H15A13648   4.334   5.031   5.996 -0.0595 -0.2978 -1.9860
  128OSM   H15B13649   4.341   4.923   5.865 -2.8933  0.7504  0.3687
  128OSM   H15C13650   4.487   4.946   5.984  0.3058 -3.2772  1.5823
  128OSM    C1413651   4.174   4.798   6.021 -0.1053  0.1377 -0.0819
  128OSM   H14A13652   4.180   4.768   5.917 -0.0978 -0.5345  0.1052
  128OSM   H14B13653   4.120   4.891   6.034 -0.1791 -0.0144  0.7970
  128OSM   H14C13654   4.138   4.718   6.085  0.0881  0.0128 -0.1278
  128OSM    C1313655   4.401   4.704   6.029 -0.0272 -0.8953  0.0410
  128OSM   H13A13656   4.507   4.724   6.041 -0.5647  1.4760  1.6957
  128OSM   H13B13657   4.371   4.664   5.933 -2.4888 -2.2264  1.2492
  128OSM   H13C13658   4.367   4.629   6.099 -0.2193  0.5659  1.5934
  128OSM    C1213659   4.343   4.880   6.203  1.0026  0.2894  0.7534
  128OSM   H12A13660   4.286   4.972   6.208 -1.8190 -1.2762 -0.0774
  128OSM   H12B13661   4.448   4.892   6.225  0.5569 -1.3598  4.6444
  128OSM    C1113662   4.290   4.785   6.315 -0.6782 -0.3784 -0.4538
  128OSM   H11A13663   4.183   4.772   6.291 -0.8336 -0.0628  0.0367
  128OSM   H11B13664   4.285   4.834   6.415 -1.2166 -1.6129  0.1385
  128OSM      P13665   4.494   4.635   6.372  0.2465 -0.1003 -0.3483
  128OSM    O1313666   4.515   4.490   6.348 -0.1268 -0.0471  0.5916
  128OSM    O1413667   4.592   4.726   6.309 -0.1238  0.2870  0.0469
  128OSM    O1113668   4.482   4.652   6.528  0.1695  0.5012  1.2228
  128OSM    O1213669   4.353   4.659   6.320 -0.3268 -0.4305 -0.0437
  128OSM    C1S13670   4.414   4.545   6.604 -1.3578  0.5917  0.1672
  128OSM    H1S13671   4.483   4.459   6.615 -0.6334  0.8251 -2.0409
  128OSM    H1T13672   4.314   4.519   6.565 -0.3996 -0.4828 -1.7105
  128OSM     NF13673   4.374   4.471   6.839 -0.1933 -0.2571 -0.0083
  128OSM    HNF13674   4.281   4.436   6.849 -0.8951  1.2276 -1.0105
  128OSM    C2S13675   4.389   4.584   6.751 -0.1881 -0.1999 -0.3212
  128OSM    H2S13676   4.473   4.650   6.782  1.0834 -0.4144 -3.0124
  128OSM    C3S13677   4.271   4.683   6.757 -1.1063  0.1777 -0.9030
  128OSM    H3S13678   4.174   4.631   6.740 -1.5991  0.3824  1.0891
  128OSM     O313679   4.277   4.790   6.662  0.3783  0.2810 -1.1240
  128OSM    HO313680   4.346   4.754   6.607 -0.9023 -1.0783 -1.9238
  128OSM    C4S13681   4.267   4.741   6.897  0.8465 -0.3035 -0.3210
  128OSM    H4S13682   4.195   4.691   6.963  0.8848 -1.1262 -0.8883
  128OSM    C5S13683   4.323   4.855   6.943  0.0040 -0.5726  0.2139
  128OSM    H5S13684   4.381   4.912   6.870  0.4257 -2.0020 -0.6014
  128OSM    C6S13685   4.295   4.916   7.079 -0.1778  0.0108  0.4951
  128OSM    H6S13686   4.203   4.874   7.124  0.1273  0.1208  1.2522
  128OSM    H6T13687   4.275   5.023   7.059 -1.9128 -0.2093  0.8921
  128OSM    C7S13688   4.400   4.885   7.186 -0.3788 -0.4296 -0.1022
  128OSM    H7S13689   4.502   4.886   7.143  0.1257 -0.3219  1.0497
  128OSM    H7T13690   4.401   4.784   7.233  0.3999 -0.5598 -0.3845
  128OSM    C8S13691   4.402   4.990   7.299 -0.2546 -0.3380  0.1321
  128OSM    H8S13692   4.311   4.988   7.362 -0.3608  0.0549 -0.0031
  128OSM    H8T13693   4.407   5.086   7.242  0.5558 -1.3041 -1.5111
  128OSM    C9S13694   4.522   4.993   7.398  0.5713 -0.7999  0.7610
  128OSM    H9S13695   4.619   4.987   7.345  0.7159 -0.5064  0.9906
  128OSM    H9T13696   4.502   4.906   7.464 -2.1815 -0.6101  0.3295
  128OSM   C10S13697   4.528   5.118   7.483 -0.2248 -0.1753  0.7448
  128OSM   H10S13698   4.433   5.152   7.528  1.0206  0.9466  2.6475
  128OSM   H10T13699   4.554   5.206   7.420  0.6883 -0.0170  1.3181
  128OSM   C11S13700   4.614   5.107   7.606  0.5627 -0.0332  0.2836
  128OSM   H11S13701   4.712   5.063   7.577  0.2370  0.3670 -1.5737
  128OSM   H11T13702   4.565   5.049   7.687 -0.0549  1.3405  0.9311
  128OSM   C12S13703   4.631   5.243   7.676  0.0210 -0.3866 -0.0617
  128OSM   H12S13704   4.537   5.300   7.667  1.0562  1.3639 -0.3146
  128OSM   H12T13705   4.700   5.306   7.615  1.8152 -0.7249  1.5242
  128OSM   C13S13706   4.676   5.242   7.823  0.2972  0.1556 -0.0296
  128OSM   H13S13707   4.783   5.212   7.826  0.5688  0.8473 -1.6960
  128OSM   H13T13708   4.615   5.159   7.865  2.0041 -1.1062  0.0516
  128OSM   C14S13709   4.657   5.376   7.896 -0.5108  0.7063 -0.1345
  128OSM   H14S13710   4.550   5.404   7.906  0.1282  3.3351  0.3254
  128OSM   H14T13711   4.702   5.461   7.840  1.5893 -0.9615 -1.1173
  128OSM   C15S13712   4.726   5.374   8.032  0.4235  0.4347 -0.1531
  128OSM   H15S13713   4.836   5.379   8.014  0.3040 -2.4418 -2.2782
  128OSM   H15T13714   4.701   5.276   8.078 -0.3577 -0.2242 -1.9075
  128OSM   C16S13715   4.666   5.477   8.128  0.5412  0.0739 -0.1645
  128OSM   H16S13716   4.556   5.460   8.134  0.3001  0.0890 -3.0713
  128OSM   H16T13717   4.678   5.579   8.086 -1.5109  1.0617  1.4356
  128OSM   C17S13718   4.732   5.473   8.262 -0.5446 -0.1038 -0.3115
  128OSM   H17S13719   4.768   5.373   8.294  1.0872  0.8176  0.9342
  128OSM   H17T13720   4.661   5.506   8.341  2.1509  2.4190  1.2927
  128OSM   C18S13721   4.842   5.574   8.267 -0.3989  0.1055  0.5661
  128OSM   H18S13722   4.903   5.554   8.357 -0.4197  0.5754  0.6877
  128OSM   H18T13723   4.807   5.679   8.281  2.0715  0.7752  2.3419
  128OSM   H18U13724   4.896   5.569   8.170  0.8598 -2.2946  1.3143
  128OSM    C1F13725   4.483   4.400   6.881  0.3994  0.3523  0.0116
  128OSM     OF13726   4.592   4.423   6.829 -0.2167  0.3407 -0.5535
  128OSM    C2F13727   4.454   4.286   6.984  1.2846 -0.5035  0.0872
  128OSM    H2F13728   4.417   4.191   6.940  0.1714 -0.9625  1.9111
  128OSM    H2G13729   4.377   4.317   7.057  1.6358 -1.5391  0.9252
  128OSM    C3F13730   4.584   4.269   7.067 -0.1202  0.1146  0.4239
  128OSM    H3F13731   4.619   4.375   7.075 -0.2230  0.1630  0.2404
  128OSM    H3G13732   4.660   4.211   7.012 -0.7749 -0.0689 -0.2923
  128OSM    C4F13733   4.565   4.213   7.210  0.0117 -0.4915 -0.6470
  128OSM    H4F13734   4.561   4.103   7.201 -1.3917 -0.9702  3.6938
  128OSM    H4G13735   4.464   4.248   7.239  0.0225  1.5511 -2.7255
  128OSM    C5F13736   4.666   4.260   7.315  0.3747  0.0158 -0.6851
  128OSM    H5F13737   4.641   4.367   7.333 -0.5397 -0.3580  0.4669
  128OSM    H5G13738   4.769   4.242   7.278  1.3377 -1.4995  2.3990
  128OSM    C6F13739   4.648   4.194   7.452 -0.2364 -0.5099 -0.2761
  128OSM    H6F13740   4.689   4.091   7.443 -0.2725 -0.6161  0.7376
  128OSM    H6G13741   4.540   4.181   7.475 -0.2328  1.7523  1.3192
  128OSM    C7F13742   4.726   4.259   7.560  0.4564 -0.0653 -0.2980
  128OSM    H7F13743   4.704   4.367   7.572  3.3326  0.3295  2.6196
  128OSM    H7G13744   4.832   4.237   7.537  0.4205 -1.9750  1.1555
  128OSM    C8F13745   4.699   4.197   7.696  0.5162 -0.1251  0.4484
  128OSM    H8F13746   4.704   4.086   7.704  2.7321 -0.2646 -1.5214
  128OSM    H8G13747   4.592   4.221   7.713 -0.1333 -1.9329 -0.7506
  128OSM    C9F13748   4.774   4.254   7.816  0.2644 -0.4887 -0.3610
  128OSM    H9F13749   4.881   4.226   7.814  0.8115  0.9869  2.5492
  128OSM   C10F13750   4.735   4.323   7.920 -0.5221  0.1994 -0.3375
  128OSM   H10F13751   4.806   4.334   8.003 -2.1195  0.0818  1.1188
  128OSM   C11F13752   4.598   4.381   7.948 -0.7472 -0.1298 -0.5101
  128OSM   H11F13753   4.544   4.388   7.852 -1.5002 -2.5203 -0.3348
  128OSM   H11G13754   4.615   4.483   7.987  3.0091 -0.1588 -1.6472
  128OSM   C12F13755   4.508   4.297   8.034 -0.2833 -0.4995  0.1001
  128OSM   H12F13756   4.492   4.198   7.987  0.4124 -0.4287 -0.3055
  128OSM   H12G13757   4.407   4.343   8.036 -1.1383 -2.1236 -2.0060
  128OSM   C13F13758   4.550   4.287   8.177  0.2497 -0.5555  0.0445
  128OSM   H13F13759   4.537   4.385   8.227 -1.1284 -0.3028 -0.7373
  128OSM   H13G13760   4.657   4.258   8.176  1.1206  2.0452 -3.3600
  128OSM   C14F13761   4.482   4.180   8.260 -0.1778  0.5755  0.5783
  128OSM   H14F13762   4.391   4.154   8.203 -0.3203  3.0456 -0.4244
  128OSM   H14G13763   4.468   4.217   8.364 -1.2105 -0.6588  0.9143
  128OSM   C15F13764   4.568   4.049   8.267  0.1661  0.5888  0.0825
  128OSM   H15F13765   4.548   4.008   8.369 -2.7444 -1.7978 -1.3028
  128OSM   H15G13766   4.675   4.075   8.251 -0.1482  2.1534  0.3592
  128OSM   C16F13767   4.535   3.941   8.167 -0.0330  0.1864 -0.5112
  128OSM   H16F13768   4.547   3.977   8.063 -1.6882  1.8104 -0.1926
  128OSM   H16G13769   4.428   3.917   8.187 -0.0422  1.3109  0.9854
  128OSM   C17F13770   4.610   3.812   8.192  0.0726 -0.3408  0.4226
  128OSM   H17F13771   4.569   3.763   8.282 -2.3540 -1.0748 -1.0024
  128OSM   H17G13772   4.719   3.831   8.206  0.4801 -1.1311 -1.3963
  128OSM   C18F13773   4.595   3.713   8.075 -0.0802  0.5590  0.3034
  128OSM   H18F13774   4.487   3.708   8.049  0.4508 -0.6958 -1.9388
  128OSM   H18G13775   4.634   3.613   8.105  0.4852  0.8790  0.6408
  128OSM   H18H13776   4.660   3.751   7.994  0.2260 -0.0754  0.2426
  129OSM      N13777   3.095   1.510   6.461  0.0466  0.7863  0.0932
  129OSM    C1513778   3.017   1.400   6.525 -0.1445 -0.5009 -0.0152
  129OSM   H15A13779   2.962   1.431   6.612  2.2033  0.7871  1.1353
  129OSM   H15B13780   3.085   1.328   6.568 -0.6658 -0.9227  0.1094
  129OSM   H15C13781   2.955   1.346   6.455  0.1868 -1.9753  0.7931
  129OSM    C1413782   3.165   1.597   6.566  0.0970  0.1835  0.5307
  129OSM   H14A13783   3.097   1.661   6.621 -2.5975 -0.3559 -1.9389
  129OSM   H14B13784   3.237   1.648   6.505 -2.4795  0.1608 -2.7994
  129OSM   H14C13785   3.220   1.542   6.641 -1.0507 -0.1077  1.1863
  129OSM    C1313786   3.206   1.449   6.372  0.4431 -0.3530 -0.5720
  129OSM   H13A13787   3.263   1.520   6.314  0.3269  0.6223  0.4698
  129OSM   H13B13788   3.154   1.392   6.297 -2.2947  1.8925 -0.5783
  129OSM   H13C13789   3.267   1.383   6.432 -0.4053 -0.6625 -0.0137
  129OSM    C1213790   3.005   1.597   6.384 -0.3446 -0.0332  0.1847
  129OSM   H12A13791   3.057   1.674   6.329 -1.0321 -0.6004 -1.3200
  129OSM   H12B13792   2.940   1.655   6.447 -1.6928 -0.8762 -0.3848
  129OSM    C1113793   2.905   1.535   6.274  0.4897 -0.6285 -0.8784
  129OSM   H11A13794   2.957   1.455   6.218  0.0679 -1.5971  0.0725
  129OSM   H11B13795   2.878   1.613   6.200 -2.2202 -0.3841  0.2584
  129OSM      P13796   2.676   1.552   6.382 -0.2098  0.1213 -0.2597
  129OSM    O1313797   2.713   1.679   6.452 -0.1278  0.9064  0.3313
  129OSM    O1413798   2.590   1.565   6.262 -0.1310 -0.2382 -0.3613
  129OSM    O1113799   2.592   1.465   6.486  0.3106  0.1482 -0.1575
  129OSM    O1213800   2.801   1.469   6.348 -0.3606  0.3213  0.0133
  129OSM    C1S13801   2.650   1.390   6.590 -0.2041 -0.0556  0.5868
  129OSM    H1S13802   2.752   1.418   6.622  0.6534 -4.1090  1.9617
  129OSM    H1T13803   2.652   1.285   6.553  0.0923  0.2936 -0.4369
  129OSM     NF13804   2.647   1.326   6.823 -0.0012 -0.0833  0.1094
  129OSM    HNF13805   2.619   1.231   6.830  0.9245 -0.5648 -1.8933
  129OSM    C2S13806   2.570   1.396   6.719  0.4066 -0.1147 -0.4773
  129OSM    H2S13807   2.562   1.502   6.752 -2.5928 -0.4895  0.2816
  129OSM    C3S13808   2.434   1.333   6.691  0.2314  0.7107 -0.1067
  129OSM    H3S13809   2.443   1.224   6.673  2.1244  1.0132 -1.3794
  129OSM     O313810   2.357   1.379   6.573  0.1410 -0.7918 -0.0500
  129OSM    HO313811   2.418   1.429   6.518 -1.2062  0.4665 -0.5039
  129OSM    C4S13812   2.365   1.335   6.824  0.0880  0.3309 -0.1879
  129OSM    H4S13813   2.412   1.272   6.901 -0.6151  1.3381  1.0956
  129OSM    C5S13814   2.250   1.391   6.862  0.3172  0.8659 -0.4945
  129OSM    H5S13815   2.194   1.446   6.784  0.9611  2.2677  0.0087
  129OSM    C6S13816   2.187   1.385   6.996  0.3754  0.0869  0.3610
  129OSM    H6S13817   2.197   1.279   7.030  2.5227  0.1957  0.1962
  129OSM    H6T13818   2.080   1.415   6.988  0.6000  1.0150  0.7074
  129OSM    C7S13819   2.257   1.480   7.108 -0.0527 -0.5342 -0.0585
  129OSM    H7S13820   2.247   1.584   7.071  1.1658  0.2905  1.8302
  129OSM    H7T13821   2.363   1.451   7.121 -0.2244 -1.6008 -0.9110
  129OSM    C8S13822   2.182   1.488   7.240  0.6020  0.1912 -0.3889
  129OSM    H8S13823   2.078   1.524   7.224  0.4786 -0.0055 -0.0422
  129OSM    H8T13824   2.229   1.573   7.295  2.5137  0.3730 -2.1740
  129OSM    C9S13825   2.193   1.356   7.317  0.6594 -0.0550 -0.0281
  129OSM    H9S13826   2.296   1.318   7.302  0.8539  1.0926 -1.8204
  129OSM    H9T13827   2.125   1.280   7.273 -0.5113  1.8190 -1.6138
  129OSM   C10S13828   2.173   1.377   7.465  0.4217 -0.0834  0.0908
  129OSM   H10S13829   2.224   1.469   7.499  0.4041  1.3881 -3.4395
  129OSM   H10T13830   2.223   1.291   7.514 -0.2176 -0.9731 -0.7804
  129OSM   C11S13831   2.027   1.383   7.496  0.0914  0.3188 -0.1303
  129OSM   H11S13832   1.968   1.318   7.428 -1.4005 -0.2705  1.6601
  129OSM   H11T13833   1.986   1.486   7.483 -0.5560 -0.2036 -2.7980
  129OSM   C12S13834   1.994   1.323   7.631  0.3471  0.1719  0.0855
  129OSM   H12S13835   2.033   1.220   7.632 -2.1351 -0.8401  0.6921
  129OSM   H12T13836   1.883   1.312   7.635  0.2760  0.6966 -0.2880
  129OSM   C13S13837   2.038   1.412   7.754  0.5969  0.0647  0.7338
  129OSM   H13S13838   1.984   1.509   7.765 -2.2117 -1.4629  1.2360
  129OSM   H13T13839   2.147   1.424   7.737  0.8153 -2.9203 -0.5601
  129OSM   C14S13840   2.027   1.326   7.885  0.6309 -0.2430  0.5170
  129OSM   H14S13841   2.093   1.237   7.879  2.9846  1.1935  2.5324
  129OSM   H14T13842   1.926   1.292   7.915  0.3092 -0.7447 -1.0470
  129OSM   C15S13843   2.085   1.402   8.004 -0.2916 -0.4540  0.0231
  129OSM   H15S13844   2.059   1.510   7.998  0.4441 -0.1888  1.2383
  129OSM   H15T13845   2.196   1.398   7.997 -0.0275  0.6265  2.5222
  129OSM   C16S13846   2.057   1.347   8.149  0.2634  0.9326 -0.5245
  129OSM   H16S13847   2.118   1.392   8.231  2.0937 -1.8940 -0.1955
  129OSM   H16T13848   2.090   1.241   8.143 -1.8280  0.1553  0.8123
  129OSM   C17S13849   1.907   1.347   8.192 -0.2818 -1.1498  0.0456
  129OSM   H17S13850   1.840   1.316   8.108  0.4555  0.1343 -1.0507
  129OSM   H17T13851   1.888   1.456   8.204  0.1489 -1.3133  2.5262
  129OSM   C18S13852   1.875   1.278   8.318  0.1467 -0.3360 -1.0307
  129OSM   H18S13853   1.769   1.288   8.350  0.8946 -1.1410  2.1042
  129OSM   H18T13854   1.941   1.310   8.402  0.7245  0.5393 -1.8069
  129OSM   H18U13855   1.895   1.169   8.311  1.4999 -0.2057  0.2927
  129OSM    C1F13856   2.761   1.368   6.872  0.0255 -0.4723 -0.5030
  129OSM     OF13857   2.809   1.478   6.836 -0.0392  0.2921  0.1795
  129OSM    C2F13858   2.827   1.283   6.976  0.7388 -0.0751 -0.7936
  129OSM    H2F13859   2.852   1.188   6.924  1.6416  1.3304 -3.0654
  129OSM    H2G13860   2.764   1.269   7.066 -0.3097  0.0346 -1.5003
  129OSM    C3F13861   2.967   1.328   7.023  0.3714  0.2075  0.7979
  129OSM    H3F13862   2.961   1.426   7.074 -3.4115 -0.1014  1.2296
  129OSM    H3G13863   3.036   1.323   6.935 -0.9700  1.1242 -0.3386
  129OSM    C4F13864   3.019   1.238   7.140  0.5204 -0.2997  0.2766
  129OSM    H4F13865   3.027   1.130   7.115  0.4111 -0.7867  2.2205
  129OSM    H4G13866   2.952   1.247   7.228  0.7301  2.9094  0.2115
  129OSM    C5F13867   3.161   1.277   7.188  0.6712 -0.4227 -1.0672
  129OSM    H5F13868   3.158   1.388   7.197  0.9597 -0.5911  1.9707
  129OSM    H5G13869   3.230   1.255   7.103 -1.3767 -1.7761 -2.4722
  129OSM    C6F13870   3.202   1.217   7.321  0.2746 -0.0143 -0.5631
  129OSM    H6F13871   3.233   1.111   7.305  1.0442  0.2830 -1.1421
  129OSM    H6G13872   3.129   1.214   7.404  0.7348  0.8484 -0.1187
  129OSM    C7F13873   3.324   1.281   7.389 -0.5108  0.0046  0.4185
  129OSM    H7F13874   3.313   1.391   7.401  0.8624 -0.0111  2.2997
  129OSM    H7G13875   3.398   1.261   7.308  1.2715  1.2295  1.6539
  129OSM    C8F13876   3.363   1.219   7.518  0.2917 -0.1752  0.1560
  129OSM    H8F13877   3.473   1.213   7.523  0.2245 -0.1894  2.6760
  129OSM    H8G13878   3.329   1.113   7.515 -1.0261  0.2250  0.3213
  129OSM    C9F13879   3.315   1.291   7.645 -0.2466  0.5188  0.1596
  129OSM    H9F13880   3.296   1.399   7.640  1.4671  0.8345 -0.0001
  129OSM   C10F13881   3.299   1.232   7.763 -0.4117 -0.4290 -0.3762
  129OSM   H10F13882   3.274   1.300   7.846 -0.5396  1.4242 -1.8529
  129OSM   C11F13883   3.346   1.090   7.791 -0.6880 -0.2950  0.1951
  129OSM   H11F13884   3.457   1.088   7.798 -0.5945  0.2799 -0.9987
  129OSM   H11G13885   3.322   1.025   7.704 -0.0405  0.1115 -0.2921
  129OSM   C12F13886   3.305   1.034   7.929 -0.4867 -0.2117  0.4973
  129OSM   H12F13887   3.318   0.924   7.919 -1.2600 -0.2402 -0.3307
  129OSM   H12G13888   3.195   1.047   7.940 -1.0311  1.0252 -4.1426
  129OSM   C13F13889   3.383   1.088   8.046  0.2821  0.3374 -0.1261
  129OSM   H13F13890   3.405   1.195   8.031  0.3534  0.1227 -1.7485
  129OSM   H13G13891   3.479   1.033   8.039 -0.2501 -0.4800 -1.2995
  129OSM   C14F13892   3.317   1.052   8.189  0.5009  0.1906 -0.1878
  129OSM   H14F13893   3.312   0.941   8.195 -0.2015 -0.0522 -3.4788
  129OSM   H14G13894   3.214   1.094   8.186 -0.6196 -2.3668 -2.0930
  129OSM   C15F13895   3.397   1.073   8.313  0.1794 -0.4193 -0.1519
  129OSM   H15F13896   3.411   1.184   8.313  0.6771 -0.4685  0.7842
  129OSM   H15G13897   3.498   1.027   8.304 -0.8896 -3.0504  0.4521
  129OSM   C16F13898   3.335   1.032   8.449  0.1825 -0.1991  0.4758
  129OSM   H16F13899   3.419   1.032   8.522  1.2767 -0.8483 -0.7327
  129OSM   H16G13900   3.310   0.926   8.430 -3.5160  0.8695 -1.7339
  129OSM   C17F13901   3.211   1.106   8.491 -0.4398  0.6648 -0.1465
  129OSM   H17F13902   3.135   1.089   8.412  1.2414 -0.6815 -1.5704
  129OSM   H17G13903   3.244   1.211   8.506  0.9926  0.1561  0.4141
  129OSM   C18F13904   3.161   1.043   8.628  0.0954 -0.7100  0.1880
  129OSM   H18F13905   3.073   1.105   8.656  1.6406  1.7060 -0.0684
  129OSM   H18G13906   3.243   1.060   8.700  0.0017  0.0539  0.1129
  129OSM   H18H13907   3.135   0.935   8.617 -1.0334 -0.5124  0.7934
  130OSM      N13908   3.552   4.161   6.155  0.8691  0.5933  0.2290
  130OSM    C1513909   3.577   4.038   6.066 -0.1395  0.2864  0.2493
  130OSM   H15A13910   3.494   4.013   6.002 -0.6009 -2.5069  1.7683
  130OSM   H15B13911   3.585   3.951   6.130 -0.3764  0.9824  1.2607
  130OSM   H15C13912   3.665   4.047   6.005 -0.5828 -2.0219 -0.8513
  130OSM    C1413913   3.675   4.176   6.242 -0.0483 -0.4192 -0.0309
  130OSM   H14A13914   3.677   4.094   6.311 -0.0613 -2.3293 -2.1676
  130OSM   H14B13915   3.662   4.265   6.302 -4.2876 -0.8340 -0.0844
  130OSM   H14C13916   3.770   4.167   6.191 -0.7825 -1.9938 -1.2271
  130OSM    C1313917   3.533   4.274   6.072  0.5584  0.2940  0.0750
  130OSM   H13A13918   3.465   4.253   5.991  1.7194  1.4684 -1.2683
  130OSM   H13B13919   3.626   4.293   6.020  1.2654 -1.9803  0.3972
  130OSM   H13C13920   3.500   4.360   6.127  1.6009  0.6543  0.1642
  130OSM    C1213921   3.434   4.137   6.250  0.5338 -0.6422 -0.1659
  130OSM   H12A13922   3.473   4.056   6.310  2.3126  0.0862 -0.2654
  130OSM   H12B13923   3.348   4.103   6.194  0.0492 -0.6825  0.5960
  130OSM    C1113924   3.387   4.257   6.337  0.2346  0.7820 -0.3727
  130OSM   H11A13925   3.300   4.235   6.403 -0.0515  0.4973 -0.8353
  130OSM   H11B13926   3.351   4.337   6.269  0.5424  0.1325 -1.3185
  130OSM      P13927   3.530   4.466   6.425 -0.4009 -0.0061  0.0581
  130OSM    O1313928   3.678   4.489   6.428  0.6113 -0.4703 -0.3046
  130OSM    O1413929   3.466   4.547   6.318  0.6728  0.2413 -0.1330
  130OSM    O1113930   3.464   4.521   6.560  0.3192 -0.0931  0.1743
  130OSM    O1213931   3.492   4.313   6.415 -0.3703 -0.3344  0.4403
  130OSM    C1S13932   3.356   4.455   6.626 -0.2847 -0.1513  0.1085
  130OSM    H1S13933   3.358   4.344   6.624 -3.1089 -0.3632  2.1401
  130OSM    H1T13934   3.256   4.481   6.584 -1.9236 -2.2369  2.3922
  130OSM     NF13935   3.231   4.424   6.836 -0.9225 -0.0932  0.3109
  130OSM    HNF13936   3.139   4.462   6.824  0.1730  2.6962 -0.0528
  130OSM    C2S13937   3.341   4.506   6.773 -0.1040 -0.2181  0.4401
  130OSM    H2S13938   3.434   4.482   6.828  1.6034  0.6647 -1.8742
  130OSM    C3S13939   3.319   4.663   6.778  0.4254  0.7487  0.2255
  130OSM    H3S13940   3.241   4.692   6.703  0.7410  1.3041  0.1095
  130OSM     O313941   3.438   4.733   6.731  0.0296  0.7435  0.5780
  130OSM    HO313942   3.475   4.664   6.674 -0.9752  1.1023 -0.5638
  130OSM    C4S13943   3.298   4.715   6.911 -0.0919 -0.2315 -0.0082
  130OSM    H4S13944   3.389   4.718   6.973  1.7697 -0.0486 -2.6076
  130OSM    C5S13945   3.186   4.771   6.960 -0.7542 -0.1780 -0.2049
  130OSM    H5S13946   3.107   4.797   6.888  0.8855 -1.5312 -2.6599
  130OSM    C6S13947   3.176   4.824   7.107  0.8984  0.1746 -0.4494
  130OSM    H6S13948   3.074   4.798   7.140  0.7409  0.7346 -0.4915
  130OSM    H6T13949   3.178   4.935   7.101  0.1829  0.1616 -1.0923
  130OSM    C7S13950   3.282   4.789   7.213 -0.4675 -0.2095 -0.7766
  130OSM    H7S13951   3.369   4.846   7.171 -0.7236  1.1545  0.4479
  130OSM    H7T13952   3.307   4.683   7.232  2.2379  0.7073  1.6677
  130OSM    C8S13953   3.256   4.863   7.346  0.5243 -0.0375 -0.7597
  130OSM    H8S13954   3.241   4.970   7.320 -0.2208  0.0969  0.1590
  130OSM    H8T13955   3.340   4.848   7.416  1.5190 -0.8579 -2.0880
  130OSM    C9S13956   3.131   4.825   7.429  0.1063 -0.2566  0.0358
  130OSM    H9S13957   3.146   4.724   7.472  0.3278 -0.1192  0.2821
  130OSM    H9T13958   3.037   4.833   7.371  0.6269  2.6407 -0.6013
  130OSM   C10S13959   3.109   4.899   7.557 -0.6086  0.1827  0.4638
  130OSM   H10S13960   3.093   5.005   7.529  0.6789 -0.0872 -1.5140
  130OSM   H10T13961   3.209   4.893   7.606 -0.2686 -0.5188 -0.2842
  130OSM   C11S13962   3.007   4.838   7.656  0.3901  0.0137  0.2172
  130OSM   H11S13963   3.029   4.730   7.670  0.5902 -0.0884 -0.7952
  130OSM   H11T13964   2.905   4.834   7.613 -0.4174 -0.1469  2.0690
  130OSM   C12S13965   3.007   4.911   7.787  0.5369 -0.2590 -0.1176
  130OSM   H12S13966   2.966   5.010   7.759 -1.8381 -1.9795 -3.5346
  130OSM   H12T13967   3.112   4.933   7.816 -0.4505  2.0074  1.9878
  130OSM   C13S13968   2.928   4.851   7.905  0.2056  0.1119 -0.2915
  130OSM   H13S13969   2.952   4.742   7.906 -0.5767 -0.0854  1.8541
  130OSM   H13T13970   2.818   4.855   7.886  0.6077  1.0023 -2.8419
  130OSM   C14S13971   2.961   4.906   8.046 -0.1466 -0.3960  0.3028
  130OSM   H14S13972   2.890   4.877   8.126  0.1153 -1.7072  0.0801
  130OSM   H14T13973   2.967   5.016   8.030 -0.1544 -0.0012  2.6455
  130OSM   C15S13974   3.096   4.857   8.101 -0.3679  0.2992 -0.6026
  130OSM   H15S13975   3.182   4.858   8.031  0.3709 -0.9012  0.2533
  130OSM   H15T13976   3.086   4.748   8.120  1.9924 -0.0972 -1.2994
  130OSM   C16S13977   3.134   4.920   8.233  0.2156 -0.5689  0.2014
  130OSM   H16S13978   3.041   4.919   8.295  1.4152  1.6973  2.1766
  130OSM   H16T13979   3.169   5.024   8.219  0.6948 -1.0428 -2.7423
  130OSM   C17S13980   3.241   4.844   8.314  0.3422 -0.4085  0.1103
  130OSM   H17S13981   3.341   4.836   8.265  0.5835  1.5689  0.2143
  130OSM   H17T13982   3.210   4.738   8.324  1.7513 -0.6516  6.3343
  130OSM   C18S13983   3.246   4.892   8.466 -0.6689  0.3675  0.1450
  130OSM   H18S13984   3.261   5.002   8.468 -2.2755  0.6219 -0.5317
  130OSM   H18T13985   3.318   4.835   8.528 -2.1700  0.7688  2.3486
  130OSM   H18U13986   3.155   4.854   8.517  0.2561  0.5970  2.0676
  130OSM    C1F13987   3.260   4.300   6.879  1.2521  0.5688 -0.3862
  130OSM     OF13988   3.365   4.244   6.867  0.5616 -0.7279 -0.1264
  130OSM    C2F13989   3.144   4.226   6.939  0.5103  0.1303 -0.2266
  130OSM    H2F13990   3.066   4.190   6.869  0.3985 -0.2856  0.1079
  130OSM    H2G13991   3.097   4.296   7.011 -0.5071 -1.6000  0.8531
  130OSM    C3F13992   3.185   4.097   7.018  0.0864 -0.0029 -0.0656
  130OSM    H3F13993   3.272   4.119   7.085 -0.7990  2.7787  0.2694
  130OSM    H3G13994   3.210   4.021   6.941  1.8917  1.0131 -0.5421
  130OSM    C4F13995   3.064   4.062   7.097  0.5546  0.0704  0.0288
  130OSM    H4F13996   2.977   4.060   7.028  1.5566 -3.2119 -1.3542
  130OSM    H4G13997   3.056   4.144   7.172  1.4825  0.8187 -0.6606
  130OSM    C5F13998   3.083   3.930   7.177 -0.0138  0.3759 -0.2988
  130OSM    H5F13999   3.186   3.926   7.217  0.6069 -1.8884 -1.9029
  130OSM    H5G14000   3.072   3.842   7.111  1.7066 -0.4712  0.4753
  130OSM    C6F14001   2.998   3.907   7.302  0.0101 -0.4778  0.0776
  130OSM    H6F14002   3.040   3.816   7.351  2.0880  1.0501  1.2691
  130OSM    H6G14003   2.895   3.881   7.268  0.3489  0.7434 -2.0106
  130OSM    C7F14004   3.002   4.020   7.403 -0.3505  0.1402 -0.0656
  130OSM    H7F14005   2.946   4.103   7.354  0.8337 -0.3426 -2.4381
  130OSM    H7G14006   3.109   4.050   7.405 -0.6186  1.1236 -0.1084
  130OSM    C8F14007   2.954   3.976   7.543 -0.1262 -0.4873 -0.4292
  130OSM    H8F14008   2.998   4.061   7.600 -2.6491  1.0447 -0.6113
  130OSM    H8G14009   3.005   3.883   7.575 -2.5274 -1.5517  0.5862
  130OSM    C9F14010   2.805   3.970   7.561  0.1290 -0.0472 -0.3425
  130OSM    H9F14011   2.762   3.905   7.483  2.7104 -1.7816 -0.4414
  130OSM   C10F14012   2.728   4.026   7.658 -0.3969  0.3448  0.4092
  130OSM   H10F14013   2.624   3.990   7.662  0.2469 -1.5971  0.6797
  130OSM   C11F14014   2.773   4.123   7.762 -0.9878 -0.2849  0.2255
  130OSM   H11F14015   2.678   4.175   7.787  0.2774  0.9585  2.8790
  130OSM   H11G14016   2.856   4.177   7.712 -2.4989 -0.1087 -2.2553
  130OSM   C12F14017   2.828   4.058   7.892  0.0356 -0.2878 -0.1853
  130OSM   H12F14018   2.859   4.137   7.963 -1.4651 -0.3926  0.6268
  130OSM   H12G14019   2.905   3.981   7.870 -0.0999  0.0148 -1.8042
  130OSM   C13F14020   2.715   3.970   7.955 -0.5499  0.5694  0.4038
  130OSM   H13F14021   2.671   3.905   7.877 -1.3359 -0.3279  1.5670
  130OSM   H13G14022   2.633   4.035   7.992  0.7878  1.8991  1.1391
  130OSM   C14F14023   2.762   3.896   8.079 -0.5576  0.4198  0.2256
  130OSM   H14F14024   2.807   3.969   8.150 -1.6388  0.1086  1.2424
  130OSM   H14G14025   2.847   3.828   8.059  0.1960  1.5335 -0.5154
  130OSM   C15F14026   2.652   3.826   8.162  0.7104 -0.4469  0.2032
  130OSM   H15F14027   2.579   3.773   8.098  0.2427 -2.2647  2.1492
  130OSM   H15G14028   2.589   3.898   8.218 -0.4373 -1.6654  0.5074
  130OSM   C16F14029   2.702   3.720   8.260 -0.0668 -0.2181 -0.1614
  130OSM   H16F14030   2.747   3.773   8.347  1.7467  1.9434 -2.2480
  130OSM   H16G14031   2.781   3.664   8.205  2.2003  0.5226  2.1371
  130OSM   C17F14032   2.587   3.629   8.310 -0.2153 -0.2174 -0.5144
  130OSM   H17F14033   2.554   3.551   8.238  2.8867 -2.6257  0.4041
  130OSM   H17G14034   2.499   3.691   8.335 -1.4242 -1.6780 -1.0327
  130OSM   C18F14035   2.635   3.541   8.422 -0.6445  0.1349  0.7039
  130OSM   H18F14036   2.714   3.473   8.383 -1.4825 -0.4975  0.0599
  130OSM   H18G14037   2.551   3.477   8.455 -2.5056  2.0859 -0.0024
  130OSM   H18H14038   2.687   3.596   8.503  1.3357 -1.3918  0.5339
  131OSM      N14039   0.521   3.347   6.303 -0.9495  0.4395 -0.3193
  131OSM    C1514040   0.520   3.268   6.174 -0.1300  0.1902 -0.9007
  131OSM   H15A14041   0.523   3.330   6.085 -2.1651 -0.6517 -1.6056
  131OSM   H15B14042   0.430   3.210   6.165 -1.0499  1.3275  0.5565
  131OSM   H15C14043   0.602   3.198   6.168  0.0516  0.4251 -1.2350
  131OSM    C1414044   0.608   3.468   6.291 -0.2830 -0.0279 -0.1179
  131OSM   H14A14045   0.574   3.526   6.207  0.4702 -0.2905 -0.6071
  131OSM   H14B14046   0.712   3.440   6.283  0.1541 -0.7185  4.8281
  131OSM   H14C14047   0.607   3.544   6.368  1.5333  1.4699 -1.4777
  131OSM    C1314048   0.385   3.392   6.337  0.3929  0.7050 -0.2445
  131OSM   H13A14049   0.313   3.313   6.354  0.3417  0.7099 -0.4370
  131OSM   H13B14050   0.348   3.454   6.257 -0.0368  0.6507 -0.0928
  131OSM   H13C14051   0.391   3.449   6.428 -1.1410 -0.0738  0.3807
  131OSM    C1214052   0.575   3.264   6.418  0.0633 -0.3119 -0.2914
  131OSM   H12A14053   0.514   3.177   6.439  0.7421 -0.9378 -0.8636
  131OSM   H12B14054   0.568   3.342   6.492  0.6000  1.6182 -2.1707
  131OSM    C1114055   0.716   3.213   6.417 -1.1245  0.2991 -0.4913
  131OSM   H11A14056   0.732   3.162   6.515  0.8410  0.9095 -0.4459
  131OSM   H11B14057   0.794   3.292   6.412  0.7613 -1.3897  0.6818
  131OSM      P14058   0.837   3.111   6.203 -0.3962  0.3456 -0.3349
  131OSM    O1314059   0.760   3.056   6.086  0.5909  0.5940 -0.2750
  131OSM    O1414060   0.908   3.239   6.190 -0.1416 -0.1711  0.3337
  131OSM    O1114061   0.948   3.001   6.245 -0.1950 -0.1105 -0.1934
  131OSM    O1214062   0.736   3.114   6.321 -0.1754  0.4846 -0.0461
  131OSM    C1S14063   1.063   3.041   6.324 -0.3688  0.6524  0.1042
  131OSM    H1S14064   1.106   3.133   6.279  0.7601 -0.3061 -0.8563
  131OSM    H1T14065   1.141   2.963   6.311 -0.8995  0.4571 -2.5588
  131OSM     NF14066   1.173   3.089   6.542  0.1802 -0.0455 -0.1139
  131OSM    HNF14067   1.219   3.020   6.598  1.9595  2.1724  1.3326
  131OSM    C2S14068   1.048   3.045   6.476 -0.6290  0.2376 -0.5188
  131OSM    H2S14069   0.978   3.128   6.502  3.8248  3.7558  1.8599
  131OSM    C3S14070   0.991   2.918   6.535 -0.4009 -0.2047 -0.3710
  131OSM    H3S14071   1.069   2.842   6.518  2.0691  2.5772 -2.4594
  131OSM     O314072   0.870   2.874   6.478  0.2261  0.1650  0.4534
  131OSM    HO314073   0.876   2.918   6.393  0.3735  1.5702  1.1664
  131OSM    C4S14074   0.970   2.926   6.683 -0.5606  0.1195  0.3357
  131OSM    H4S14075   1.052   2.869   6.728  0.3289 -1.6539 -3.1540
  131OSM    C5S14076   0.869   2.980   6.750 -0.1404 -1.0452  0.4434
  131OSM    H5S14077   0.800   3.043   6.692  2.3253  0.1108 -1.4380
  131OSM    C6S14078   0.855   2.972   6.901  0.1040  0.2772  0.3870
  131OSM    H6S14079   0.750   2.949   6.927 -0.0775  1.5606  0.8383
  131OSM    H6T14080   0.856   3.074   6.943 -1.2955  0.5430 -0.1592
  131OSM    C7S14081   0.954   2.881   6.974  0.2779  0.3138 -0.2638
  131OSM    H7S14082   1.060   2.896   6.944  0.0671 -2.2051 -2.6955
  131OSM    H7T14083   0.926   2.779   6.940  1.4435 -0.6670  1.5055
  131OSM    C8S14084   0.945   2.881   7.127  0.6326  0.1892  0.6024
  131OSM    H8S14085   0.898   2.976   7.160  0.0079 -0.2405  0.9872
  131OSM    H8T14086   1.042   2.873   7.179  0.2403  0.4391  1.3878
  131OSM    C9S14087   0.843   2.771   7.169 -0.5340 -0.4220 -0.0906
  131OSM    H9S14088   0.887   2.674   7.137 -0.7914 -0.5596 -0.0300
  131OSM    H9T14089   0.753   2.781   7.105 -0.1880 -0.0011 -0.5106
  131OSM   C10S14090   0.807   2.777   7.317  0.0701 -0.7660  0.1954
  131OSM   H10S14091   0.732   2.699   7.342 -3.2133  1.7102 -1.1127
  131OSM   H10T14092   0.780   2.883   7.336 -1.0483 -0.5523 -2.1630
  131OSM   C11S14093   0.930   2.738   7.396 -0.4065  0.0186 -0.0872
  131OSM   H11S14094   1.017   2.804   7.373 -0.0138 -0.0410  1.1563
  131OSM   H11T14095   0.955   2.633   7.370 -2.1865 -0.5101  0.1711
  131OSM   C12S14096   0.913   2.746   7.547  0.2324  0.2012  0.1224
  131OSM   H12S14097   0.997   2.691   7.595  0.8586 -1.7982 -2.9604
  131OSM   H12T14098   0.822   2.692   7.581  0.1244  0.5035  0.3215
  131OSM   C13S14099   0.907   2.887   7.601 -0.1263 -0.0931 -0.2963
  131OSM   H13S14100   0.817   2.942   7.567 -0.0070 -0.0295 -0.5129
  131OSM   H13T14101   0.999   2.942   7.575  1.0935 -0.7286  2.3253
  131OSM   C14S14102   0.895   2.881   7.753  0.3500 -0.3602  0.1097
  131OSM   H14S14103   0.967   2.802   7.782 -1.9098 -2.2077  1.0103
  131OSM   H14T14104   0.793   2.843   7.777 -0.1772 -0.0309 -1.4774
  131OSM   C15S14105   0.920   3.010   7.834 -0.3705 -0.0392  0.1359
  131OSM   H15S14106   0.850   3.086   7.794  2.2492  2.0501 -0.8145
  131OSM   H15T14107   1.021   3.057   7.834 -1.2738  2.0819 -1.6235
  131OSM   C16S14108   0.878   2.992   7.980  0.7020 -0.7357  1.2432
  131OSM   H16S14109   0.941   2.918   8.035 -0.1705 -2.6400 -0.2067
  131OSM   H16T14110   0.780   2.942   7.994 -0.9111  1.4027 -1.4552
  131OSM   C17S14111   0.880   3.126   8.053 -0.8322 -0.0909  0.2462
  131OSM   H17S14112   0.826   3.120   8.150  0.7891 -1.7145  1.0977
  131OSM   H17T14113   0.813   3.189   7.990  0.5063 -0.6561 -1.8483
  131OSM   C18S14114   1.016   3.184   8.086 -0.0562 -0.5868 -0.0973
  131OSM   H18S14115   1.010   3.293   8.107  2.0774 -0.0462 -1.8489
  131OSM   H18T14116   1.088   3.159   8.005 -0.1744 -0.2186 -0.3206
  131OSM   H18U14117   1.063   3.143   8.178 -1.0058  0.4174  0.8750
  131OSM    C1F14118   1.220   3.213   6.524 -0.6266  0.0522  0.1719
  131OSM     OF14119   1.152   3.297   6.469 -0.2335  0.0524  0.9736
  131OSM    C2F14120   1.359   3.241   6.572 -0.4051 -0.5010 -0.1381
  131OSM    H2F14121   1.421   3.275   6.487 -2.7358  2.1874 -0.8787
  131OSM    H2G14122   1.399   3.160   6.637 -0.3280 -0.1725  0.2288
  131OSM    C3F14123   1.350   3.366   6.668 -0.2933  0.2922  0.0800
  131OSM    H3F14124   1.272   3.351   6.745 -1.0403  0.5578 -0.6196
  131OSM    H3G14125   1.311   3.452   6.610  0.2694  0.3428 -0.2371
  131OSM    C4F14126   1.482   3.395   6.733  0.3531  0.2320  0.2238
  131OSM    H4F14127   1.555   3.402   6.649  0.4263 -2.0531  0.0208
  131OSM    H4G14128   1.517   3.306   6.790  1.5404  0.9478  0.6553
  131OSM    C5F14129   1.486   3.515   6.824  0.3866  0.2786 -0.7460
  131OSM    H5F14130   1.405   3.499   6.899  0.5668  1.6769 -0.2321
  131OSM    H5G14131   1.462   3.611   6.774  2.4804  0.2000 -2.0194
  131OSM    C6F14132   1.622   3.526   6.900  0.7020 -0.2360 -0.5173
  131OSM    H6F14133   1.707   3.504   6.831  0.4754  0.4864 -1.0507
  131OSM    H6G14134   1.620   3.453   6.983 -1.7539  0.3038 -0.0101
  131OSM    C7F14135   1.650   3.665   6.969 -0.0939 -0.3456  0.0806
  131OSM    H7F14136   1.574   3.693   7.046  0.8228 -0.1839  0.9428
  131OSM    H7G14137   1.648   3.746   6.894 -0.0794 -1.0101 -0.6508
  131OSM    C8F14138   1.787   3.660   7.041 -0.8215 -0.3614  0.3252
  131OSM    H8F14139   1.862   3.607   6.978 -2.4824 -2.1682 -0.2347
  131OSM    H8G14140   1.776   3.611   7.140 -0.9015 -2.3088 -0.6034
  131OSM    C9F14141   1.831   3.803   7.061 -0.4858 -0.4452 -0.4468
  131OSM    H9F14142   1.881   3.857   6.979  0.8706  0.3967  0.8665
  131OSM   C10F14143   1.820   3.879   7.177 -0.1865 -0.1072 -0.0463
  131OSM   H10F14144   1.863   3.980   7.181 -0.3206 -0.0119 -1.0131
  131OSM   C11F14145   1.758   3.836   7.306 -0.0102 -0.2743 -0.5004
  131OSM   H11F14146   1.710   3.736   7.302  3.3453 -2.3536  3.4115
  131OSM   H11G14147   1.675   3.907   7.324  0.1036 -0.5541  1.2519
  131OSM   C12F14148   1.838   3.853   7.427  0.0430  0.0196 -0.1091
  131OSM   H12F14149   1.872   3.959   7.426  1.5360 -0.4297  0.0168
  131OSM   H12G14150   1.926   3.785   7.433  2.0104  2.5072  1.4355
  131OSM   C13F14151   1.773   3.824   7.564  0.0682  0.5767  0.4948
  131OSM   H13F14152   1.688   3.894   7.577 -0.1031  0.7001 -1.0222
  131OSM   H13G14153   1.855   3.840   7.637  0.7557 -3.6339  0.9044
  131OSM   C14F14154   1.725   3.679   7.587  0.8353 -0.4270 -0.1704
  131OSM   H14F14155   1.807   3.605   7.574  0.8396 -0.5405  0.4735
  131OSM   H14G14156   1.641   3.666   7.516 -0.6440 -0.4864  1.5093
  131OSM   C15F14157   1.656   3.662   7.722 -0.2280  0.5983  0.4807
  131OSM   H15F14158   1.602   3.566   7.731 -2.8146  1.9431  0.0002
  131OSM   H15G14159   1.587   3.745   7.748 -1.2443  0.9514 -2.9057
  131OSM   C16F14160   1.763   3.650   7.834  0.2510 -0.2556  0.8171
  131OSM   H16F14161   1.793   3.756   7.852 -1.1082 -0.1168  2.4808
  131OSM   H16G14162   1.850   3.593   7.795 -0.4274  0.1985 -1.5684
  131OSM   C17F14163   1.707   3.591   7.962  0.2331  0.6853 -0.0696
  131OSM   H17F14164   1.780   3.542   8.030  0.3504 -1.4008 -1.5900
  131OSM   H17G14165   1.655   3.500   7.925  1.7590 -0.5392  0.6633
  131OSM   C18F14166   1.619   3.688   8.048 -0.2886 -0.1033 -0.2189
  131OSM   H18F14167   1.688   3.745   8.114  1.8256 -0.8630 -1.6447
  131OSM   H18G14168   1.539   3.640   8.109 -0.0701  2.4113  2.2154
  131OSM   H18H14169   1.566   3.761   7.984 -1.7493 -0.9275  0.0148
  132OSM      N14170   4.405   6.039   6.057  0.0497 -0.4366  0.2654
  132OSM    C1514171   4.411   5.891   6.089  0.1960  0.0345  0.3544
  132OSM   H15A14172   4.394   5.873   6.194 -0.2440 -0.8844  0.1408
  132OSM   H15B14173   4.500   5.851   6.043 -0.1843  1.4393 -1.7382
  132OSM   H15C14174   4.329   5.842   6.039 -0.2640  1.2407 -0.1236
  132OSM    C1414175   4.536   6.110   6.097  0.3398 -0.1398 -0.0138
  132OSM   H14A14176   4.539   6.099   6.204  1.8811  0.2828  0.0140
  132OSM   H14B14177   4.543   6.213   6.065 -0.9135 -0.7508 -2.5241
  132OSM   H14C14178   4.624   6.073   6.046  1.3227  2.1701 -0.1122
  132OSM    C1314179   4.387   6.049   5.907 -0.5134  0.4057 -0.3924
  132OSM   H13A14180   4.375   6.146   5.861  0.0392  1.0674  0.8100
  132OSM   H13B14181   4.307   5.986   5.872 -0.4571 -1.4567  2.5252
  132OSM   H13C14182   4.472   6.009   5.853 -1.4837 -1.3077 -0.7408
  132OSM    C1214183   4.286   6.091   6.125  0.0665 -0.1499 -0.0356
  132OSM   H12A14184   4.318   6.096   6.228  1.2954  1.2391 -0.4655
  132OSM   H12B14185   4.206   6.018   6.119  0.4032 -0.5678  0.4106
  132OSM    C1114186   4.228   6.230   6.091  0.3768 -0.1582  0.5290
  132OSM   H11A14187   4.175   6.210   5.996  0.4930 -0.1318  0.4593
  132OSM   H11B14188   4.304   6.311   6.087 -1.5981  1.7475 -0.5653
  132OSM      P14189   4.001   6.179   6.217  0.4012  0.0519 -0.0531
  132OSM    O1314190   3.906   6.257   6.298 -0.1700  0.0180 -0.3596
  132OSM    O1414191   3.944   6.119   6.088  0.0907 -0.2358  0.2831
  132OSM    O1114192   4.061   6.065   6.303 -0.3644  0.0306  0.1050
  132OSM    O1214193   4.123   6.269   6.183 -0.1062  0.2875 -0.0933
  132OSM    C1S14194   4.129   6.081   6.425  0.2763 -0.3744  0.0794
  132OSM    H1S14195   4.164   6.186   6.429 -2.1311  0.4741  0.3055
  132OSM    H1T14196   4.216   6.014   6.443  1.3748  1.0892  0.3279
  132OSM     NF14197   4.107   6.089   6.666  0.0409 -0.2525  0.2456
  132OSM    HNF14198   4.126   6.013   6.727  0.9374 -1.0655 -1.0132
  132OSM    C2S14199   4.038   6.059   6.545  0.1424  0.1032 -0.3985
  132OSM    H2S14200   3.948   6.123   6.536 -0.7489 -0.7814  1.6060
  132OSM    C3S14201   3.982   5.914   6.551 -0.3325  0.0936  0.3602
  132OSM    H3S14202   4.068   5.861   6.598 -0.8618 -0.0392  1.2054
  132OSM     O314203   3.966   5.849   6.427 -0.0239 -0.1185 -0.8355
  132OSM    HO314204   4.022   5.911   6.379 -0.2257  2.4628  1.9129
  132OSM    C4S14205   3.870   5.905   6.647 -0.0710  1.3771  1.0896
  132OSM    H4S14206   3.911   5.873   6.744  0.3448  2.0772  1.1471
  132OSM    C5S14207   3.737   5.913   6.628  0.5082  0.1091  0.5676
  132OSM    H5S14208   3.709   5.938   6.525 -0.0773  0.1412  0.7317
  132OSM    C6S14209   3.628   5.893   6.738  0.2501 -0.1787  0.0472
  132OSM    H6S14210   3.557   5.816   6.701  0.8093 -0.7558  0.1617
  132OSM    H6T14211   3.573   5.988   6.756 -0.0793 -0.3945  0.1852
  132OSM    C7S14212   3.678   5.848   6.878 -0.2126  0.5298 -0.2263
  132OSM    H7S14213   3.732   5.933   6.927  0.9405 -0.1938 -0.2110
  132OSM    H7T14214   3.756   5.770   6.877 -0.5532  0.1871 -0.0778
  132OSM    C8S14215   3.576   5.789   6.981  0.2645 -0.1992  0.1699
  132OSM    H8S14216   3.541   5.694   6.936  1.3328 -0.1336 -0.8653
  132OSM    H8T14217   3.490   5.858   6.989 -0.8116 -1.4878 -0.0567
  132OSM    C9S14218   3.633   5.781   7.120 -0.6049  0.6886  0.4194
  132OSM    H9S14219   3.684   5.878   7.136  0.2727  0.3126 -0.0614
  132OSM    H9T14220   3.710   5.702   7.114  0.2087  1.3643  1.6024
  132OSM   C10S14221   3.535   5.742   7.227 -0.2736  0.3772  0.0855
  132OSM   H10S14222   3.578   5.683   7.310 -2.7247 -0.8642  0.5674
  132OSM   H10T14223   3.457   5.683   7.175  0.7231  0.7286 -1.9294
  132OSM   C11S14224   3.470   5.870   7.293 -0.3936  0.4735  0.2935
  132OSM   H11S14225   3.394   5.909   7.221  0.0732 -0.6125 -0.8254
  132OSM   H11T14226   3.543   5.954   7.287 -1.7444  1.6051 -1.4980
  132OSM   C12S14227   3.405   5.848   7.434 -0.5015  0.8381 -0.4999
  132OSM   H12S14228   3.346   5.755   7.417  0.4818 -0.1711  1.3168
  132OSM   H12T14229   3.339   5.934   7.460  0.1301  1.2947 -0.4022
  132OSM   C13S14230   3.498   5.813   7.549 -0.8148  0.3155 -0.1890
  132OSM   H13S14231   3.571   5.897   7.549 -2.4799  1.8789 -1.9757
  132OSM   H13T14232   3.551   5.717   7.536 -2.0487 -1.1160  3.8574
  132OSM   C14S14233   3.427   5.811   7.685 -0.0815 -0.1408 -0.0421
  132OSM   H14S14234   3.332   5.757   7.665 -0.2517 -1.2385  3.1603
  132OSM   H14T14235   3.405   5.913   7.724 -0.7234  0.0716 -0.9259
  132OSM   C15S14236   3.510   5.739   7.785 -0.1368  0.0448 -0.6089
  132OSM   H15S14237   3.589   5.802   7.831  0.5903 -0.6515 -0.8926
  132OSM   H15T14238   3.562   5.648   7.750 -0.6574  0.1344 -1.6500
  132OSM   C16S14239   3.420   5.689   7.906  0.1683  0.7029  0.3118
  132OSM   H16S14240   3.454   5.589   7.937 -0.7149  0.7844  1.6263
  132OSM   H16T14241   3.317   5.681   7.865  0.3411  0.4604 -0.0841
  132OSM   C17S14242   3.407   5.788   8.030 -0.3527 -0.3730 -0.3448
  132OSM   H17S14243   3.376   5.887   7.991  0.0088 -0.0061  0.2770
  132OSM   H17T14244   3.512   5.795   8.065  0.0431 -4.2384 -0.3958
  132OSM   C18S14245   3.312   5.731   8.138 -0.1052 -0.6451 -0.1765
  132OSM   H18S14246   3.206   5.757   8.119  0.1254  0.5647  0.1219
  132OSM   H18T14247   3.351   5.776   8.232  1.2422 -1.9382 -0.0670
  132OSM   H18U14248   3.324   5.621   8.151 -0.9282 -0.4542  2.9285
  132OSM    C1F14249   4.150   6.209   6.700 -0.7232 -0.0671  0.0468
  132OSM     OF14250   4.140   6.305   6.625 -0.3940 -0.0618  0.3780
  132OSM    C2F14251   4.230   6.219   6.839 -0.5549  0.8202  0.5129
  132OSM    H2F14252   4.316   6.150   6.833  1.4311  3.2834 -1.3599
  132OSM    H2G14253   4.158   6.184   6.916 -0.4435  0.1212  0.3121
  132OSM    C3F14254   4.289   6.358   6.876  0.6341 -0.4160 -0.9330
  132OSM    H3F14255   4.212   6.438   6.871  0.5254 -0.3858  0.8509
  132OSM    H3G14256   4.363   6.381   6.796  2.0916 -0.3890  0.3953
  132OSM    C4F14257   4.370   6.344   7.008 -0.0082 -0.3664 -0.8118
  132OSM    H4F14258   4.421   6.439   7.030 -0.0380 -0.5187 -0.0526
  132OSM    H4G14259   4.447   6.269   6.981 -0.2792 -0.0795 -2.5121
  132OSM    C5F14260   4.291   6.314   7.142  0.2178 -0.2275  0.2199
  132OSM    H5F14261   4.197   6.257   7.132 -1.1475  1.9702  0.0049
  132OSM    H5G14262   4.250   6.408   7.184 -0.9191 -0.2796 -0.7232
  132OSM    C6F14263   4.379   6.245   7.248  0.1583 -0.2887  0.9693
  132OSM    H6F14264   4.455   6.318   7.282 -1.8039  2.8441 -0.9084
  132OSM    H6G14265   4.444   6.170   7.199  1.1623  1.3954 -0.4059
  132OSM    C7F14266   4.307   6.193   7.366  0.1993  0.1140 -0.5030
  132OSM    H7F14267   4.378   6.130   7.423  0.7332  1.1997  0.0534
  132OSM    H7G14268   4.223   6.128   7.334 -0.5813  1.3688 -1.1006
  132OSM    C8F14269   4.255   6.294   7.463  0.3727 -0.4329 -0.1416
  132OSM    H8F14270   4.172   6.350   7.414  0.3047 -0.8790 -0.5427
  132OSM    H8G14271   4.341   6.359   7.492  1.4436 -1.8016 -0.1712
  132OSM    C9F14272   4.196   6.227   7.594  0.3001  0.4661  0.3181
  132OSM    H9F14273   4.280   6.181   7.647  0.8955 -2.9584 -3.1645
  132OSM   C10F14274   4.068   6.221   7.635  0.5962  1.0238 -0.1373
  132OSM   H10F14275   4.049   6.169   7.730 -0.8154  0.3298 -0.7834
  132OSM   C11F14276   3.954   6.288   7.575 -0.4504 -0.4046  0.7905
  132OSM   H11F14277   3.977   6.321   7.472 -0.4906 -2.3224  0.1441
  132OSM   H11G14278   3.921   6.379   7.631  1.0299  0.9531 -0.4196
  132OSM   C12F14279   3.830   6.207   7.574 -0.5755 -0.3658  0.3454
  132OSM   H12F14280   3.789   6.189   7.676 -3.7119 -1.4329 -0.9509
  132OSM   H12G14281   3.852   6.104   7.537  2.5298  0.0714  0.7404
  132OSM   C13F14282   3.715   6.275   7.496  0.5889  0.4755  0.4532
  132OSM   H13F14283   3.703   6.372   7.549  1.5849  0.4781  0.7032
  132OSM   H13G14284   3.622   6.220   7.519  1.1177 -0.5983  0.0802
  132OSM   C14F14285   3.729   6.312   7.351  0.9700 -0.4196 -0.0503
  132OSM   H14F14286   3.814   6.384   7.341 -0.3909  1.2611  0.0348
  132OSM   H14G14287   3.640   6.367   7.316 -0.8814 -0.5632  3.9276
  132OSM   C15F14288   3.761   6.190   7.264  0.6981  0.1623 -0.1122
  132OSM   H15F14289   3.664   6.140   7.243  2.0438 -1.6031 -2.6171
  132OSM   H15G14290   3.826   6.120   7.320  1.1785 -1.0234 -2.0716
  132OSM   C16F14291   3.814   6.234   7.131  0.1269  0.1014  0.3722
  132OSM   H16F14292   3.854   6.150   7.070  0.0994  2.1234 -2.6003
  132OSM   H16G14293   3.899   6.304   7.138 -0.4831  0.9230 -0.2890
  132OSM   C17F14294   3.704   6.305   7.047  0.3061 -0.1288 -0.6287
  132OSM   H17F14295   3.675   6.400   7.096  0.4426 -1.0027  1.2007
  132OSM   H17G14296   3.616   6.238   7.058 -0.5029  1.2968  3.1425
  132OSM   C18F14297   3.741   6.342   6.910 -0.4958  0.0541 -0.3293
  132OSM   H18F14298   3.643   6.365   6.861 -1.7158 -0.1299  1.9221
  132OSM   H18G14299   3.790   6.261   6.851  0.2872  0.8393 -0.7907
  132OSM   H18H14300   3.818   6.422   6.906  1.0718 -1.2902  1.5340
  133SAPE     N14301   0.713   4.666  10.801  0.0386  0.1894 -0.4870
  133SAPE   HN114302   0.610   4.664  10.819  0.4189 -1.8623  1.8807
  133SAPE   HN214303   0.757   4.747  10.849  0.4277 -1.2952  1.7993
  133SAPE   HN314304   0.720   4.710  10.707 -1.8725  0.6463 -0.4618
  133SAPE   C1214305   0.791   4.542  10.800 -0.1612  0.3501  0.5535
  133SAPE  H12A14306   0.736   4.459  10.751  2.5994 -0.4358 -1.4942
  133SAPE  H12B14307   0.821   4.514  10.903 -0.2622 -0.8079  0.2758
  133SAPE   C1114308   0.912   4.570  10.700  0.3963 -0.3838 -0.1842
  133SAPE  H11A14309   0.858   4.569  10.603  0.7663 -0.4092 -0.3872
  133SAPE  H11B14310   0.972   4.477  10.695  0.8813 -0.0404 -0.8386
  133SAPE     P14311   1.119   4.671  10.796 -0.0279 -0.0403 -0.2916
  133SAPE   O1314312   1.166   4.793  10.863 -0.4397  0.0685  0.4145
  133SAPE   O1414313   1.106   4.559  10.887 -0.0014 -0.1594 -0.1412
  133SAPE   O1214314   0.984   4.693  10.724  0.6909  0.0070  0.1390
  133SAPE   O1114315   1.211   4.630  10.680 -0.7496  0.1293  0.4198
  133SAPE    C114316   1.275   4.716  10.583  0.2628  0.1009  0.7921
  133SAPE    HA14317   1.333   4.797  10.632  0.2246 -0.1655  1.2923
  133SAPE    HB14318   1.349   4.651  10.532  1.5070  2.1781 -0.1578
  133SAPE    C214319   1.172   4.752  10.471  0.4133  0.3939  0.0990
  133SAPE    HS14320   1.109   4.835  10.510 -0.0409  0.6869 -1.1964
  133SAPE   O2114321   1.099   4.637  10.428  0.0977  0.9378  0.7492
  133SAPE   C2114322   0.977   4.656  10.391 -0.4270  0.1059  0.6135
  133SAPE   O2214323   0.921   4.765  10.400  0.2848  0.0439  0.2140
  133SAPE   C2214324   0.924   4.537  10.308  0.4941 -0.1042  0.1787
  133SAPE   H2R14325   1.011   4.518  10.241  0.2409 -0.2544 -0.1129
  133SAPE   H2S14326   0.914   4.445  10.369  1.7079 -1.5865 -1.7331
  133SAPE    C314327   1.246   4.827  10.355 -0.1874 -0.3023  0.4159
  133SAPE    HX14328   1.338   4.770  10.333 -0.3759 -0.4385 -0.0325
  133SAPE    HY14329   1.275   4.929  10.390  0.2021 -0.6399  1.1013
  133SAPE   O3114330   1.161   4.834  10.241 -0.1512  0.6607  0.3637
  133SAPE   C3114331   1.096   4.946  10.230  0.9107  0.3452  0.8666
  133SAPE   O3214332   1.096   5.036  10.311 -0.1540  0.1884  0.5568
  133SAPE   C3214333   1.020   4.946  10.096  0.4189  0.1506  0.8706
  133SAPE   H2X14334   1.010   4.840  10.063 -1.7181  0.5915 -0.0920
  133SAPE   H2Y14335   1.092   4.998  10.029  0.0621 -0.0692  0.3155
  133SAPE   C2314336   0.801   4.552  10.217 -0.1493  0.3306  0.5039
  133SAPE   H3R14337   0.811   4.653  10.173 -0.6953  1.9154  3.7240
  133SAPE   H3S14338   0.707   4.549  10.276 -0.3607  0.5481  0.1835
  133SAPE   C2414339   0.776   4.448  10.106 -0.1590  0.4815 -0.5382
  133SAPE   H4R14340   0.859   4.445  10.031 -0.4800  2.4185 -1.0441
  133SAPE   H4S14341   0.688   4.474  10.044 -1.1276 -1.4639 -0.0529
  133SAPE   C2514342   0.760   4.314  10.172 -0.7204 -0.0683  0.1344
  133SAPE   H5R14343   0.831   4.285  10.251  0.8061  2.3817 -0.1962
  133SAPE   C2614344   0.665   4.228  10.143 -0.9085 -0.4812 -1.1352
  133SAPE   H6R14345   0.670   4.135  10.202 -1.4198  0.4159  0.3924
  133SAPE   C2714346   0.558   4.252  10.040  0.3816 -0.9295  0.0576
  133SAPE   H7R14347   0.581   4.272   9.934 -1.7555 -0.7954 -0.4380
  133SAPE   H7S14348   0.503   4.339  10.084 -0.5688 -0.6609 -1.5858
  133SAPE   C2814349   0.458   4.142  10.044  0.4862 -0.4918 -0.3122
  133SAPE   H8R14350   0.420   4.125  10.146 -0.7420  2.5568 -0.1664
  133SAPE   C2914351   0.414   4.070   9.941  1.0402  0.1220  0.8492
  133SAPE   H9R14352   0.355   3.981   9.966  0.7310  0.2041  0.4377
  133SAPE  C21014353   0.449   4.087   9.791 -0.8148 -0.4919 -0.0305
  133SAPE  H10R14354   0.517   4.005   9.760 -3.5675 -2.9334 -0.0380
  133SAPE  H10S14355   0.493   4.189   9.779 -1.6346  0.2418  2.5109
  133SAPE  C21114356   0.331   4.083   9.696 -0.1790 -0.1383 -0.1139
  133SAPE  H11R14357   0.234   4.074   9.747 -0.7014  0.4711 -0.9737
  133SAPE  C21214358   0.342   4.080   9.562 -0.3874 -0.6687 -0.9915
  133SAPE  H12R14359   0.249   4.070   9.505 -1.0176 -2.8805  0.2856
  133SAPE  C21314360   0.474   4.079   9.490  0.0464  0.0237 -0.3287
  133SAPE  H13R14361   0.540   4.140   9.555 -0.5630 -0.0200  0.3414
  133SAPE  H13S14362   0.482   4.142   9.398  1.7086 -0.8880 -0.8472
  133SAPE  C21414363   0.534   3.938   9.471 -0.5436 -0.6757 -0.6270
  133SAPE  H14R14364   0.584   3.894   9.559  1.5690  1.7582 -0.5016
  133SAPE  C21514365   0.554   3.887   9.353  0.3345 -0.5170  0.2254
  133SAPE  H15R14366   0.597   3.786   9.344  0.9383 -0.2636  0.2346
  133SAPE  C21614367   0.508   3.949   9.221  0.0832 -0.0392 -0.1717
  133SAPE  H16R14368   0.558   3.902   9.134 -0.4655 -1.2814  0.1695
  133SAPE  H16S14369   0.515   4.060   9.216  1.9588 -0.1864 -2.1281
  133SAPE  C21714370   0.354   3.918   9.208  0.4263  0.8905  0.1290
  133SAPE  H17R14371   0.285   3.954   9.287 -1.8007 -0.7034 -0.9759
  133SAPE  H17S14372   0.335   3.809   9.218  0.8504  0.8435  0.4638
  133SAPE  C21814373   0.302   3.956   9.072  0.4618  0.1873 -0.5416
  133SAPE  H18R14374   0.206   3.909   9.044  0.9305 -0.1391 -1.6440
  133SAPE  H18S14375   0.375   3.921   8.996 -0.3311 -0.7049 -0.9133
  133SAPE  C21914376   0.283   4.109   9.048  0.2126 -0.0189  0.0761
  133SAPE  H19R14377   0.382   4.155   9.068  0.0573 -0.1125  1.1153
  133SAPE  H19S14378   0.204   4.162   9.104 -0.5638  1.0631 -1.9404
  133SAPE  C22014379   0.242   4.145   8.902 -0.1480 -0.0277  0.6588
  133SAPE  H20R14380   0.320   4.118   8.827 -0.9234 -0.7165  0.0753
  133SAPE  H20S14381   0.230   4.255   8.898 -0.5562 -0.0987 -0.6758
  133SAPE  H20T14382   0.151   4.090   8.871 -0.4901  1.6756 -1.6054
  133SAPE   C3314383   0.883   5.010  10.094  0.7591  0.1670  0.4014
  133SAPE   H3X14384   0.898   5.118  10.072 -0.7375  0.3422  0.1453
  133SAPE   H3Y14385   0.837   4.990  10.194  2.9905 -0.7076  1.3034
  133SAPE   C3414386   0.790   4.956   9.979 -0.0214 -0.9347 -0.5555
  133SAPE   H4X14387   0.688   5.001   9.987 -0.9064 -3.1521  2.1032
  133SAPE   H4Y14388   0.771   4.850  10.007  2.3222 -1.4446 -0.6825
  133SAPE   C3514389   0.844   4.961   9.838  0.0875  0.5759 -0.3695
  133SAPE   H5X14390   0.923   4.885   9.826  0.2908  0.2206  2.5328
  133SAPE   H5Y14391   0.894   5.059   9.820 -0.5636  1.2442  1.2574
  133SAPE   C3614392   0.729   4.955   9.727  0.5505  0.8018  0.0329
  133SAPE   H6X14393   0.677   5.048   9.755  1.5568  0.9064  1.7278
  133SAPE   H6Y14394   0.662   4.873   9.762  0.3133  1.4985  1.2663
  133SAPE   C3714395   0.768   4.950   9.579  0.2984 -0.3537 -0.4805
  133SAPE   H7X14396   0.822   4.855   9.560  1.3701  0.0718  0.3812
  133SAPE   H7Y14397   0.833   5.037   9.553  1.0766 -0.8134 -0.0881
  133SAPE   C3814398   0.651   4.967   9.475  0.1761 -0.1275 -0.4589
  133SAPE   H8X14399   0.632   5.072   9.443 -1.4422  0.0563  0.9270
  133SAPE   H8Y14400   0.559   4.923   9.521  0.8695 -2.8801 -1.5292
  133SAPE   C3914401   0.672   4.878   9.363  0.2175  0.2031  0.1120
  133SAPE   H9X14402   0.681   4.771   9.389  2.0320 -0.2431 -2.0150
  133SAPE   H9Y14403   0.774   4.896   9.321  0.1757  1.5822  0.5285
  133SAPE  C31014404   0.577   4.884   9.245 -0.4024 -0.1856  0.4705
  133SAPE  H10X14405   0.475   4.855   9.275  0.4343  0.3881  4.3140
  133SAPE  H10Y14406   0.608   4.805   9.173 -1.8742 -0.8248  0.5088
  133SAPE  C31114407   0.578   5.017   9.171 -0.3888 -0.4925 -1.0635
  133SAPE  H11X14408   0.683   5.053   9.160 -1.1007  1.6860 -1.3889
  133SAPE  H11Y14409   0.528   5.106   9.216 -1.6322 -0.6222 -2.1270
  133SAPE  C31214410   0.522   5.008   9.031  0.1553  0.3602  0.2462
  133SAPE  H12X14411   0.419   4.967   9.041  0.2094 -0.0299 -0.7120
  133SAPE  H12Y14412   0.581   4.925   8.986  0.2716  1.2225 -1.2553
  133SAPE  C31314413   0.532   5.133   8.955  0.3067 -0.2474  0.6116
  133SAPE  H13X14414   0.636   5.170   8.971  0.1174  0.5790  0.0160
  133SAPE  H13Y14415   0.453   5.204   8.989 -0.8149 -0.7046 -0.9329
  133SAPE  C31414416   0.508   5.131   8.806  0.7783  0.9950 -0.2047
  133SAPE  H14X14417   0.570   5.054   8.754 -0.1834  0.6620 -0.8775
  133SAPE  H14Y14418   0.520   5.233   8.765 -1.1535  1.3317 -0.0221
  133SAPE  C31514419   0.358   5.087   8.790 -0.0248  0.0882  0.7963
  133SAPE  H15X14420   0.285   5.144   8.851  1.2391  1.4101  1.1305
  133SAPE  H15Y14421   0.362   4.981   8.823  0.4219 -0.6782 -1.5527
  133SAPE  C31614422   0.304   5.076   8.645  0.2319  0.0100 -0.5389
  133SAPE  H16X14423   0.392   5.041   8.588  0.9121  0.0540  0.4592
  133SAPE  H16Y14424   0.274   5.176   8.607 -1.4624 -0.9750 -1.9594
  133SAPE  C31714425   0.191   4.966   8.632  0.3803 -0.2320 -0.0562
  133SAPE  H17X14426   0.106   4.976   8.702  2.2008 -1.3750  2.4766
  133SAPE  H17Y14427   0.244   4.878   8.673  0.4607 -0.1886 -0.0648
  133SAPE  C31814428   0.150   4.933   8.491 -0.6932  0.1190 -0.7199
  133SAPE  H18X14429   0.137   5.028   8.435  1.2043  1.0921  0.3915
  133SAPE  H18Y14430   0.052   4.881   8.491  1.1926 -3.8521 -0.1124
  133SAPE  H18Z14431   0.221   4.868   8.435 -1.4040 -1.1391 -0.2102
  134SAPE     N14432   4.226   5.353  10.794 -0.7466 -0.5927  0.5445
  134SAPE   HN114433   4.235   5.431  10.862  1.1170  0.5045 -0.8938
  134SAPE   HN214434   4.309   5.293  10.775 -0.4889  0.2427 -1.0798
  134SAPE   HN314435   4.202   5.407  10.709 -0.1679  0.0698  0.7957
  134SAPE   C1214436   4.112   5.266  10.834 -0.3267 -0.1329  0.3141
  134SAPE  H12A14437   4.145   5.183  10.901 -2.0024 -1.9641 -1.0043
  134SAPE  H12B14438   4.072   5.228  10.738 -2.1324  1.6028  0.3150
  134SAPE   C1114439   4.011   5.349  10.907 -0.5105  0.3486 -0.1289
  134SAPE  H11A14440   4.046   5.381  11.008 -1.1678  0.8093 -0.0421
  134SAPE  H11B14441   3.924   5.283  10.926  0.3366 -0.8674 -0.3948
  134SAPE     P14442   3.837   5.541  10.869  0.0851 -0.3315 -0.0378
  134SAPE   O1314443   3.802   5.503  11.007  0.5723 -0.0786 -0.7188
  134SAPE   O1414444   3.850   5.682  10.840  0.4761 -0.3163  0.3827
  134SAPE   O1214445   3.969   5.469  10.829 -0.0797  0.5962  0.2490
  134SAPE   O1114446   3.742   5.482  10.768  0.1087 -0.1017  0.2045
  134SAPE    C114447   3.758   5.371  10.683  0.2595  0.5670  0.3916
  134SAPE    HA14448   3.829   5.295  10.721 -2.7665 -2.4688  0.4365
  134SAPE    HB14449   3.661   5.318  10.696  1.2145 -0.9276  1.7614
  134SAPE    C214450   3.793   5.412  10.535 -0.0103  0.8613 -0.0450
  134SAPE    HS14451   3.901   5.436  10.533 -0.2848  2.1098 -0.2382
  134SAPE   O2114452   3.723   5.525  10.490  0.0813  0.4486 -0.6037
  134SAPE   C2114453   3.796   5.600  10.402  0.0209  0.0728  0.1449
  134SAPE   O2214454   3.908   5.579  10.355  0.2469 -0.1387 -0.1670
  134SAPE   C2214455   3.717   5.722  10.369 -0.0324  0.2288  0.0434
  134SAPE   H2R14456   3.609   5.703  10.382 -0.3105 -0.3437 -2.5207
  134SAPE   H2S14457   3.750   5.806  10.434  1.6749  1.2807 -2.0227
  134SAPE    C314458   3.759   5.286  10.445  0.8910  0.2511  0.1294
  134SAPE    HX14459   3.649   5.285  10.429  0.9822 -3.3449 -1.0206
  134SAPE    HY14460   3.776   5.189  10.497 -0.2441  1.8036  3.6962
  134SAPE   O3114461   3.817   5.296  10.313 -0.0337  1.0863  0.0676
  134SAPE   C3114462   3.939   5.249  10.292  0.2009 -0.7945 -0.4639
  134SAPE   O3214463   4.021   5.240  10.384  0.6636  0.5363 -0.7383
  134SAPE   C3214464   3.964   5.208  10.143 -0.2483 -0.2649 -0.0215
  134SAPE   H2X14465   3.909   5.282  10.082  0.3414  1.9263  1.9734
  134SAPE   H2Y14466   3.918   5.107  10.129  1.0861 -1.0594  1.0181
  134SAPE   C2314467   3.740   5.762  10.219  0.3897  0.1686 -0.5879
  134SAPE   H3R14468   3.841   5.742  10.177  0.0492 -0.1515 -1.2677
  134SAPE   H3S14469   3.708   5.868  10.208  0.6446  0.2734 -0.3428
  134SAPE   C2414470   3.644   5.691  10.119 -0.1603  0.7628  0.1725
  134SAPE   H4R14471   3.666   5.746  10.025 -1.1398 -2.1301 -1.8652
  134SAPE   H4S14472   3.536   5.707  10.143 -0.1039  0.7999  0.4081
  134SAPE   C2514473   3.679   5.541  10.082  0.5211 -0.0351 -0.7187
  134SAPE   H5R14474   3.669   5.465  10.162 -1.5727 -0.7449 -1.5853
  134SAPE   C2614475   3.720   5.486   9.974 -1.2411 -0.4537  0.4841
  134SAPE   H6R14476   3.698   5.380   9.952 -0.4758 -0.4196 -0.5180
  134SAPE   C2714477   3.753   5.551   9.836  0.6296 -0.1932 -0.2830
  134SAPE   H7R14478   3.835   5.500   9.781 -0.0467  1.1008 -2.5922
  134SAPE   H7S14479   3.788   5.655   9.854 -2.1875  0.4731  2.3014
  134SAPE   C2814480   3.633   5.550   9.741 -0.0071  0.1043  1.0672
  134SAPE   H8R14481   3.538   5.525   9.790 -1.2516  0.9952 -0.7985
  134SAPE   C2914482   3.628   5.592   9.609 -0.0603  0.0117 -0.2409
  134SAPE   H9R14483   3.537   5.578   9.548  0.7486 -0.4428 -1.3706
  134SAPE  C21014484   3.748   5.642   9.534  0.7333 -0.1709  0.2382
  134SAPE  H10R14485   3.804   5.551   9.503  0.8882  0.0340 -0.0914
  134SAPE  H10S14486   3.812   5.703   9.601 -0.6756  3.0653 -1.1784
  134SAPE  C21114487   3.708   5.727   9.418  0.5107  0.9237  0.3657
  134SAPE  H11R14488   3.645   5.812   9.449 -0.4782  0.6360 -0.7871
  134SAPE  C21214489   3.760   5.724   9.293  0.2919  0.4584  0.3937
  134SAPE  H12R14490   3.722   5.806   9.230 -2.2563  0.9493  2.3694
  134SAPE  C21314491   3.865   5.624   9.253  0.9375  0.0684  0.1263
  134SAPE  H13R14492   3.828   5.520   9.265 -0.2517  0.1698 -2.1423
  134SAPE  H13S14493   3.947   5.638   9.327 -0.5715 -0.6524  2.0108
  134SAPE  C21414494   3.920   5.632   9.110 -0.3235  0.5657 -0.6233
  134SAPE  H14R14495   4.024   5.667   9.104  0.9554 -2.9335 -0.7596
  134SAPE  C21514496   3.848   5.618   8.999 -0.6998 -0.0461 -0.0180
  134SAPE  H15R14497   3.901   5.632   8.904  2.4223  1.5690  1.8045
  134SAPE  C21614498   3.702   5.576   8.988  1.0752 -0.3214  0.4488
  134SAPE  H16R14499   3.662   5.546   9.088 -0.1763 -0.7621 -0.1557
  134SAPE  H16S14500   3.690   5.492   8.916 -2.1010 -0.1654  0.6388
  134SAPE  C21714501   3.600   5.692   8.940  0.5264 -0.6923 -0.2154
  134SAPE  H17R14502   3.608   5.776   9.012 -0.7120 -0.0457 -0.8193
  134SAPE  H17S14503   3.497   5.653   8.951 -0.1099  1.0633  0.3856
  134SAPE  C21814504   3.611   5.749   8.795  0.0487 -0.1570 -0.1702
  134SAPE  H18R14505   3.610   5.660   8.728 -1.1513 -0.8191  0.6908
  134SAPE  H18S14506   3.710   5.800   8.789  0.4157 -0.8536 -0.1499
  134SAPE  C21914507   3.506   5.857   8.750  0.2648 -0.7924 -0.5713
  134SAPE  H19R14508   3.538   5.953   8.795  0.2406 -2.7344  4.1298
  134SAPE  H19S14509   3.406   5.822   8.783 -0.6107  0.5512 -1.6746
  134SAPE  C22014510   3.490   5.871   8.602  0.5188 -0.5047  0.1535
  134SAPE  H20R14511   3.570   5.933   8.558 -0.3157 -0.7448 -1.8159
  134SAPE  H20S14512   3.389   5.914   8.584  0.9017 -0.1501 -1.3077
  134SAPE  H20T14513   3.495   5.765   8.568  1.5608 -0.7858  1.1190
  134SAPE   C3314514   4.119   5.215  10.114  0.0729  0.1386  0.0995
  134SAPE   H3X14515   4.170   5.146  10.185 -0.8343 -0.9796 -0.3078
  134SAPE   H3Y14516   4.163   5.317  10.118  1.2016 -0.3771  2.0502
  134SAPE   C3414517   4.140   5.156   9.975 -0.2641 -0.2720  0.3656
  134SAPE   H4X14518   4.079   5.063   9.975 -2.5812  1.1665  0.9089
  134SAPE   H4Y14519   4.247   5.139   9.951 -0.7900  0.0982 -2.6791
  134SAPE   C3514520   4.096   5.255   9.867  0.0308  0.8581  0.2048
  134SAPE   H5X14521   4.139   5.356   9.881  1.2441  0.5209 -0.8954
  134SAPE   H5Y14522   3.986   5.267   9.874  0.0167  0.9625 -0.1674
  134SAPE   C3614523   4.136   5.204   9.727  0.1162  0.0060  0.0749
  134SAPE   H6X14524   4.082   5.109   9.713  0.0717  0.1593 -0.8006
  134SAPE   H6Y14525   4.245   5.184   9.735  0.0980 -0.3019 -0.4338
  134SAPE   C3714526   4.100   5.301   9.609  0.2087  0.2102  0.5761
  134SAPE   H7X14527   4.161   5.394   9.615  0.2185  0.2913 -0.6148
  134SAPE   H7Y14528   3.993   5.332   9.612  0.0158 -0.3967  3.6113
  134SAPE   C3814529   4.126   5.227   9.473 -0.3513 -0.1325  0.1123
  134SAPE   H8X14530   4.059   5.270   9.395 -0.8827 -0.6258  0.2961
  134SAPE   H8Y14531   4.097   5.122   9.490 -1.0973  0.1897  0.9105
  134SAPE   C3914532   4.262   5.265   9.417 -1.2203 -0.6522 -0.3184
  134SAPE   H9X14533   4.345   5.231   9.482 -1.0239 -0.9362 -0.7155
  134SAPE   H9Y14534   4.272   5.376   9.407 -2.2104 -0.6662 -1.6607
  134SAPE  C31014535   4.291   5.210   9.274 -0.0695  0.4569 -0.0591
  134SAPE  H10X14536   4.266   5.103   9.261 -2.3030  1.1073 -1.8472
  134SAPE  H10Y14537   4.399   5.224   9.254 -0.6489  1.8768 -2.6791
  134SAPE  C31114538   4.231   5.306   9.166 -0.1621 -0.2415  0.0604
  134SAPE  H11X14539   4.269   5.405   9.200  2.1018 -0.5327 -1.3455
  134SAPE  H11Y14540   4.120   5.308   9.174 -0.1960  0.8752 -0.4541
  134SAPE  C31214541   4.278   5.288   9.024  0.1506  0.3414  0.0509
  134SAPE  H12X14542   4.267   5.181   8.995 -0.6450  0.1563  0.9789
  134SAPE  H12Y14543   4.384   5.320   9.018  1.0974 -2.4234  0.2361
  134SAPE  C31314544   4.210   5.383   8.924 -0.0900 -0.0598  0.3743
  134SAPE  H13X14545   4.176   5.480   8.965 -0.8093 -0.6636  1.2540
  134SAPE  H13Y14546   4.116   5.341   8.883 -1.0757  1.2786  1.1963
  134SAPE  C31414547   4.305   5.401   8.809 -0.1485  0.0477  0.4946
  134SAPE  H14X14548   4.361   5.313   8.769  0.2095  0.9752 -1.1131
  134SAPE  H14Y14549   4.378   5.481   8.834 -1.7066  0.4997  4.3873
  134SAPE  C31514550   4.220   5.439   8.681  0.5640  0.0058 -0.9663
  134SAPE  H15X14551   4.148   5.518   8.709  0.7783 -0.8274  2.2789
  134SAPE  H15Y14552   4.165   5.345   8.659  2.6253 -1.1616 -1.4281
  134SAPE  C31614553   4.317   5.482   8.566  0.3277  0.2470  0.0511
  134SAPE  H16X14554   4.407   5.417   8.571 -0.0342 -0.3395 -0.8011
  134SAPE  H16Y14555   4.356   5.584   8.585 -0.2030  1.1016 -2.9429
  134SAPE  C31714556   4.249   5.465   8.422 -0.2224  1.1747  0.4879
  134SAPE  H17X14557   4.172   5.543   8.406 -2.1075 -0.1606  2.4974
  134SAPE  H17Y14558   4.199   5.367   8.409  0.2080  1.2012 -1.7560
  134SAPE  C31814559   4.351   5.463   8.313  0.0726  0.2272  0.8406
  134SAPE  H18X14560   4.396   5.564   8.313 -0.0844  0.3052  1.6818
  134SAPE  H18Y14561   4.311   5.447   8.210 -1.8024  3.9765  0.8193
  134SAPE  H18Z14562   4.422   5.380   8.335  1.3172  1.4525  1.5790
  135SAPE     N14563   4.098   3.426  10.469 -0.6376  0.2382  1.1742
  135SAPE   HN114564   4.076   3.349  10.536  2.1922 -1.6648  0.0822
  135SAPE   HN214565   4.101   3.517  10.518  3.2005  0.1647  1.3689
  135SAPE   HN314566   4.027   3.429  10.393  0.9266  3.3434 -0.3522
  135SAPE   C1214567   4.223   3.393  10.391  0.4769 -0.7079  0.1627
  135SAPE  H12A14568   4.216   3.287  10.360  4.0760 -0.8460 -0.5408
  135SAPE  H12B14569   4.308   3.399  10.463  1.4284  0.0302 -0.9770
  135SAPE   C1114570   4.226   3.480  10.261  0.7244  0.2118 -0.0858
  135SAPE  H11A14571   4.144   3.462  10.188  0.9333 -1.8182  0.1112
  135SAPE  H11B14572   4.315   3.445  10.205  0.1518  0.8577 -1.4376
  135SAPE     P14573   4.355   3.701  10.308  0.3547 -0.3952 -0.3597
  135SAPE   O1314574   4.336   3.783  10.429  0.1239 -0.3918 -0.9391
  135SAPE   O1414575   4.477   3.615  10.302 -0.0698 -0.1898  0.3094
  135SAPE   O1214576   4.227   3.619  10.283  0.0016  0.0721 -0.0693
  135SAPE   O1114577   4.356   3.799  10.184 -0.3274  0.0585  0.1798
  135SAPE    C114578   4.420   3.757  10.061 -0.5918 -0.0209 -0.0936
  135SAPE    HA14579   4.521   3.801  10.051 -0.5681 -0.3688 -1.5998
  135SAPE    HB14580   4.431   3.647  10.047 -0.4897  0.1346 -1.3332
  135SAPE    C214581   4.335   3.799   9.935  0.3680 -0.2683  0.2955
  135SAPE    HS14582   4.406   3.779   9.851  0.0311 -3.4592  0.6289
  135SAPE   O2114583   4.283   3.929   9.953  0.4285 -0.6896 -0.5487
  135SAPE   C2114584   4.344   4.030   9.887  0.1616  0.6128  0.0751
  135SAPE   O2214585   4.453   4.022   9.837  0.4257 -0.1381  0.9504
  135SAPE   C2214586   4.262   4.159   9.894  0.3066 -0.4218 -0.1336
  135SAPE   H2R14587   4.153   4.149   9.875  0.3361  1.6434 -1.8259
  135SAPE   H2S14588   4.272   4.192   9.999 -2.0797  0.2294 -0.0523
  135SAPE    C314589   4.223   3.699   9.904 -0.4524  0.6942  0.2999
  135SAPE    HX14590   4.144   3.720   9.979 -0.5126  0.4900  0.2924
  135SAPE    HY14591   4.266   3.600   9.927 -2.2519 -0.2490 -0.1866
  135SAPE   O3114592   4.161   3.713   9.775  0.5169  0.1081 -0.1580
  135SAPE   C3114593   4.233   3.667   9.673  0.2289  0.2283  0.1956
  135SAPE   O3214594   4.332   3.593   9.693  0.5892  0.5156 -0.0299
  135SAPE   C3214595   4.195   3.716   9.533  0.6773 -0.0674  0.2209
  135SAPE   H2X14596   4.268   3.799   9.520  0.6919 -0.0063  0.6810
  135SAPE   H2Y14597   4.105   3.781   9.528  1.5879  1.1854 -1.1250
  135SAPE   C2314598   4.306   4.264   9.790 -0.3449 -0.1695 -0.5560
  135SAPE   H3R14599   4.410   4.295   9.813 -0.3024  0.1822 -1.2133
  135SAPE   H3S14600   4.237   4.351   9.799 -0.3914 -0.1335 -1.2339
  135SAPE   C2414601   4.309   4.218   9.637  0.8814  0.5790 -1.0142
  135SAPE   H4R14602   4.387   4.140   9.626  1.4777  1.2430 -1.5021
  135SAPE   H4S14603   4.333   4.311   9.581  0.1119  1.0579 -0.5765
  135SAPE   C2514604   4.175   4.169   9.579  0.1973 -0.0344 -0.2976
  135SAPE   H5R14605   4.091   4.210   9.637 -0.2664 -0.0674 -0.9337
  135SAPE   C2614606   4.156   4.105   9.459  0.0502 -0.4727 -0.1473
  135SAPE   H6R14607   4.053   4.093   9.421 -0.1532 -1.0889  0.5719
  135SAPE   C2714608   4.255   4.062   9.353 -0.4981  0.2381  0.2315
  135SAPE   H7R14609   4.229   3.955   9.337  0.5643 -0.2852  1.7314
  135SAPE   H7S14610   4.358   4.071   9.395 -0.4929 -1.6464  0.7244
  135SAPE   C2814611   4.259   4.141   9.225 -1.0442 -0.2001  0.4090
  135SAPE   H8R14612   4.207   4.237   9.222  2.2774  1.7498 -0.2604
  135SAPE   C2914613   4.339   4.111   9.116  0.6802 -0.7570  0.3106
  135SAPE   H9R14614   4.332   4.176   9.027 -2.5945 -1.2130  0.1023
  135SAPE  C21014615   4.422   3.986   9.099  0.1200  0.0802 -0.0784
  135SAPE  H10R14616   4.394   3.915   9.180  0.9609  0.1106  0.2553
  135SAPE  H10S14617   4.532   4.002   9.094 -0.2800  3.6341  0.0193
  135SAPE  C21114618   4.386   3.928   8.966 -0.5631 -0.1092 -0.3664
  135SAPE  H11R14619   4.298   3.862   8.957 -0.7475  0.2600 -1.3649
  135SAPE  C21214620   4.457   3.957   8.848  0.1890  0.4415 -0.4355
  135SAPE  H12R14621   4.429   3.904   8.755  2.0105 -3.8106  1.1598
  135SAPE  C21314622   4.577   4.038   8.828 -0.7807 -0.0220  0.3122
  135SAPE  H13R14623   4.666   3.973   8.845 -1.1237 -0.6075 -0.0817
  135SAPE  H13S14624   4.585   4.120   8.903  2.1210  0.0927  0.0235
  135SAPE  C21414625   4.588   4.111   8.696  0.1500 -0.5660 -0.9509
  135SAPE  H14R14626   4.620   4.045   8.614  0.2620 -3.8841  1.5552
  135SAPE  C21514627   4.553   4.239   8.675  0.6088  0.5952 -0.0438
  135SAPE  H15R14628   4.559   4.278   8.572 -1.6902 -1.6101 -1.1164
  135SAPE  C21614629   4.502   4.340   8.772  0.7691  0.2270  0.1816
  135SAPE  H16R14630   4.585   4.410   8.792 -1.1141  2.9313 -0.8691
  135SAPE  H16S14631   4.472   4.301   8.872 -1.0902  2.9881  0.8229
  135SAPE  C21714632   4.380   4.421   8.712  0.2169  0.0620 -0.4842
  135SAPE  H17R14633   4.286   4.363   8.702 -1.2388  2.2149  0.2024
  135SAPE  H17S14634   4.418   4.456   8.614 -0.3956 -0.6662 -0.9935
  135SAPE  C21814635   4.349   4.551   8.798 -0.5894  0.2016 -0.6286
  135SAPE  H18R14636   4.430   4.628   8.807 -0.9098  0.4825 -0.1280
  135SAPE  H18S14637   4.333   4.507   8.899 -0.0979 -1.4532 -1.2359
  135SAPE  C21914638   4.223   4.619   8.763  0.1108  0.3382  0.5111
  135SAPE  H19R14639   4.139   4.547   8.759  1.3140 -1.1395  0.6318
  135SAPE  H19S14640   4.237   4.657   8.660 -1.9374  0.5193  0.2604
  135SAPE  C22014641   4.189   4.730   8.866 -0.9460  0.0992 -0.5952
  135SAPE  H20R14642   4.081   4.753   8.862 -1.1920 -1.0127 -0.6585
  135SAPE  H20S14643   4.245   4.824   8.844  1.2099 -1.3803 -1.7453
  135SAPE  H20T14644   4.200   4.685   8.967  1.4301 -0.3947 -1.0090
  135SAPE   C3314645   4.210   3.617   9.418  0.1454 -0.9492 -0.1293
  135SAPE   H3X14646   4.163   3.673   9.334 -0.3401 -0.0977  0.6866
  135SAPE   H3Y14647   4.156   3.522   9.437 -0.4049 -0.8254 -1.0296
  135SAPE   C3414648   4.360   3.602   9.378 -0.4989  1.2255 -0.3535
  135SAPE   H4X14649   4.420   3.555   9.458 -1.5907 -0.2506 -0.3747
  135SAPE   H4Y14650   4.406   3.699   9.348  1.4833  0.0323 -1.4023
  135SAPE   C3514651   4.376   3.526   9.247 -0.3511 -0.4356  0.9375
  135SAPE   H5X14652   4.484   3.528   9.222 -0.4661  0.3284  0.4890
  135SAPE   H5Y14653   4.318   3.579   9.168  0.5046  0.5122  0.9410
  135SAPE   C3614654   4.340   3.373   9.254  0.2163 -0.0650  0.0262
  135SAPE   H6X14655   4.238   3.367   9.298  1.1131  0.7803  2.4132
  135SAPE   H6Y14656   4.407   3.315   9.322 -2.0009 -2.8898 -0.0115
  135SAPE   C3714657   4.352   3.297   9.119 -0.1356 -0.0924  0.5180
  135SAPE   H7X14658   4.282   3.329   9.039  0.5700  1.2612  0.4257
  135SAPE   H7Y14659   4.345   3.188   9.144 -0.2964 -0.5517 -1.3947
  135SAPE   C3814660   4.501   3.323   9.065 -0.1793  0.7754  0.0710
  135SAPE   H8X14661   4.570   3.282   9.142 -1.4045 -2.7397 -0.4909
  135SAPE   H8Y14662   4.517   3.431   9.048  0.3207  0.4456 -1.7115
  135SAPE   C3914663   4.548   3.242   8.939 -0.3922 -0.1589  0.0085
  135SAPE   H9X14664   4.647   3.284   8.910 -1.4539  1.1430 -1.9634
  135SAPE   H9Y14665   4.480   3.282   8.860  1.0526  4.1682  0.6575
  135SAPE  C31014666   4.563   3.089   8.961  0.5034 -0.1172 -0.5588
  135SAPE  H10X14667   4.574   3.040   8.862 -4.7907 -1.8152 -0.6399
  135SAPE  H10Y14668   4.469   3.041   8.997  0.9147 -0.1355  0.5396
  135SAPE  C31114669   4.670   3.052   9.066 -0.7705 -0.8088 -0.1050
  135SAPE  H11X14670   4.622   3.064   9.166 -1.4908  1.6798 -0.6706
  135SAPE  H11Y14671   4.754   3.125   9.070 -2.0903  0.7531  0.2354
  135SAPE  C31214672   4.716   2.908   9.053 -0.1757 -0.6540  1.4578
  135SAPE  H12X14673   4.772   2.894   8.958 -1.5267 -1.6525  0.7836
  135SAPE  H12Y14674   4.621   2.851   9.041  0.1162 -1.1301  1.4074
  135SAPE  C31314675   4.799   2.840   9.168  0.4752 -0.7304  0.5405
  135SAPE  H13X14676   4.724   2.812   9.245  0.2028 -1.6443 -0.0468
  135SAPE  H13Y14677   4.858   2.923   9.213  1.2270 -0.7431 -0.3834
  135SAPE  C31414678   4.887   2.729   9.111 -0.5877 -0.3254  0.4814
  135SAPE  H14X14679   4.961   2.706   9.190  0.6833 -0.6508 -0.7481
  135SAPE  H14Y14680   4.942   2.763   9.020 -1.7539  2.0285  0.5695
  135SAPE  C31514681   4.814   2.599   9.076  1.0133  1.0135  0.3097
  135SAPE  H15X14682   4.727   2.629   9.013 -1.1913 -0.8066  2.2993
  135SAPE  H15Y14683   4.779   2.555   9.172  0.1847  1.1614  0.0857
  135SAPE  C31614684   4.898   2.499   9.002 -0.3372  1.0522  0.5886
  135SAPE  H16X14685   4.992   2.487   9.058 -0.3314  1.1397  0.5967
  135SAPE  H16Y14686   4.919   2.539   8.900 -2.5505 -0.7706 -0.7087
  135SAPE  C31714687   4.825   2.365   8.986 -0.0293 -0.0373 -0.5824
  135SAPE  H17X14688   4.759   2.379   8.898  0.1648  1.5020 -0.5117
  135SAPE  H17Y14689   4.763   2.352   9.078  0.1559  2.8066  0.0530
  135SAPE  C31814690   4.912   2.243   8.968 -0.3889 -0.0429 -0.3758
  135SAPE  H18X14691   4.837   2.162   8.956 -0.8641  0.1288  1.2341
  135SAPE  H18Y14692   4.968   2.230   9.063 -1.4187  0.5466  0.3237
  135SAPE  H18Z14693   4.984   2.244   8.883  1.1316 -1.4356  0.8397
  136SAPE     N14694   3.730   2.043  10.603 -0.6151  0.1498  0.3856
  136SAPE   HN114695   3.705   1.945  10.581  2.1695 -0.6651  0.4457
  136SAPE   HN214696   3.676   2.085  10.681 -0.0995  0.1003  0.7755
  136SAPE   HN314697   3.710   2.106  10.522 -0.3910  0.4190  0.5348
  136SAPE   C1214698   3.887   2.054  10.622 -0.4428 -0.7301  0.0196
  136SAPE  H12A14699   3.946   2.023  10.533 -0.4959 -1.3535  0.1936
  136SAPE  H12B14700   3.921   1.998  10.711 -1.1413 -1.3310 -0.0844
  136SAPE   C1114701   3.906   2.204  10.655 -0.3698 -0.2427  0.3328
  136SAPE  H11A14702   3.891   2.254  10.557 -0.6954  0.8486  0.9289
  136SAPE  H11B14703   4.012   2.227  10.678 -1.1635  1.6679  2.4609
  136SAPE     P14704   3.845   2.397  10.800 -0.0252  0.1536 -0.0470
  136SAPE   O1314705   3.728   2.453  10.873 -0.2980 -0.5956  0.0823
  136SAPE   O1414706   3.974   2.397  10.875 -0.4337  0.0098 -0.3648
  136SAPE   O1214707   3.816   2.250  10.751  0.3302  0.6158 -0.5365
  136SAPE   O1114708   3.882   2.483  10.671 -0.5238  0.8605  0.3442
  136SAPE    C114709   3.766   2.504  10.586 -0.5315 -0.1934  0.0551
  136SAPE    HA14710   3.704   2.412  10.590 -2.8012  1.2953  0.7817
  136SAPE    HB14711   3.704   2.584  10.631  0.1697  0.4100 -0.0269
  136SAPE    C214712   3.820   2.540  10.446  0.1868  0.3394  0.0498
  136SAPE    HS14713   3.850   2.439  10.410 -2.4456 -1.3991  2.2736
  136SAPE   O2114714   3.929   2.626  10.449 -0.4332  0.3146 -0.1380
  136SAPE   C2114715   4.012   2.619  10.349 -1.0053 -0.0345 -0.1966
  136SAPE   O2214716   4.029   2.531  10.272 -0.1047 -0.3319  0.5765
  136SAPE   C2214717   4.098   2.746  10.356  0.0716 -0.3825 -0.3314
  136SAPE   H2R14718   4.136   2.754  10.460 -1.8939 -2.3015  0.6239
  136SAPE   H2S14719   4.184   2.743  10.286 -0.2461 -0.1902 -0.7320
  136SAPE    C314720   3.712   2.611  10.356  0.0481 -0.4720  0.0411
  136SAPE    HX14721   3.704   2.710  10.406  1.4993 -0.4175  0.2119
  136SAPE    HY14722   3.610   2.569  10.370  0.7940 -2.4014 -0.0200
  136SAPE   O3114723   3.749   2.618  10.217 -0.3060  0.0306  0.1777
  136SAPE   C3114724   3.705   2.510  10.150  0.4366  0.0937  0.1035
  136SAPE   O3214725   3.657   2.412  10.204 -0.5848  0.3733 -0.1351
  136SAPE   C3214726   3.735   2.518   9.998 -0.0093 -0.0593 -0.1135
  136SAPE   H2X14727   3.834   2.468   9.995  0.4065  0.7284  0.0143
  136SAPE   H2Y14728   3.750   2.619   9.955 -3.0441  2.3565  3.7522
  136SAPE   C2314729   4.010   2.871  10.327  0.3182  0.2129  0.2014
  136SAPE   H3R14730   3.914   2.879  10.383 -0.3530  0.6650 -0.9899
  136SAPE   H3S14731   3.988   2.866  10.219  2.2606  0.0033 -0.2316
  136SAPE   C2414732   4.089   3.004  10.359 -0.7598  0.2668 -0.5232
  136SAPE   H4R14733   4.109   3.010  10.468  0.4513 -0.6202 -0.6787
  136SAPE   H4S14734   4.028   3.090  10.323 -1.3669 -0.2926 -0.8604
  136SAPE   C2514735   4.223   3.011  10.279  0.1481 -0.2629 -0.2776
  136SAPE   H5R14736   4.313   2.981  10.334  0.7762 -0.8836 -1.6117
  136SAPE   C2614737   4.229   3.064  10.152  1.0653  0.1880  0.2574
  136SAPE   H6R14738   4.330   3.058  10.110 -0.1073  1.3641 -2.9922
  136SAPE   C2714739   4.111   3.093  10.064  0.5560  0.1054 -0.2959
  136SAPE   H7R14740   4.032   3.133  10.131  0.7763 -1.0207  0.6663
  136SAPE   H7S14741   4.068   3.000  10.022 -1.3912  0.4894  0.7464
  136SAPE   C2814742   4.133   3.182   9.945 -0.0778 -0.4131 -0.0082
  136SAPE   H8R14743   4.143   3.285   9.981  0.5548 -0.9779  1.5149
  136SAPE   C2914744   4.143   3.161   9.808 -0.1335 -0.1781 -0.1481
  136SAPE   H9R14745   4.164   3.244   9.739 -2.1592 -1.1397 -2.0016
  136SAPE  C21014746   4.123   3.021   9.754 -0.4353 -0.5079  0.0339
  136SAPE  H10R14747   4.093   3.018   9.647  2.4685  0.2558 -0.8863
  136SAPE  H10S14748   4.050   2.952   9.800  0.6525 -2.2152 -0.7214
  136SAPE  C21114749   4.248   2.938   9.772 -0.2019 -0.6354  0.7474
  136SAPE  H11R14750   4.244   2.886   9.869 -1.4067  1.2246  1.7763
  136SAPE  C21214751   4.357   2.915   9.690  0.0826 -0.1419 -0.5241
  136SAPE  H12R14752   4.427   2.841   9.732 -2.7846 -3.2119 -0.7385
  136SAPE  C21314753   4.379   2.964   9.546 -0.2141 -0.7631  0.3757
  136SAPE  H13R14754   4.475   3.020   9.537 -0.5594 -0.1642  0.3957
  136SAPE  H13S14755   4.298   3.033   9.517  0.0990 -0.8354 -0.7277
  136SAPE  C21414756   4.391   2.845   9.453 -0.3160  0.5922  0.9857
  136SAPE  H14R14757   4.443   2.757   9.494  1.1630  0.1724 -1.5815
  136SAPE  C21514758   4.341   2.838   9.328  0.5329  0.2845  0.4032
  136SAPE  H15R14759   4.355   2.742   9.277  2.2624  1.0856 -0.7485
  136SAPE  C21614760   4.257   2.934   9.249 -1.0256 -0.2089  0.2782
  136SAPE  H16R14761   4.307   2.956   9.153  1.1196 -2.7053  0.6933
  136SAPE  H16S14762   4.254   3.031   9.304 -0.9403 -0.1927  0.2545
  136SAPE  C21714763   4.116   2.881   9.225 -0.1126  0.5653 -0.3377
  136SAPE  H17R14764   4.058   2.967   9.185 -1.8172  0.2611  1.3428
  136SAPE  H17S14765   4.072   2.844   9.320 -1.4237 -0.1862 -1.1954
  136SAPE  C21814766   4.108   2.770   9.127  0.0922 -0.3908  0.2097
  136SAPE  H18R14767   4.161   2.679   9.163 -2.0295 -1.8433 -0.1537
  136SAPE  H18S14768   4.145   2.810   9.031  0.2821  2.2752  1.3023
  136SAPE  C21914769   3.966   2.712   9.087  0.4433  0.3806 -0.5043
  136SAPE  H19R14770   3.885   2.787   9.095 -1.6933 -1.7831 -0.4743
  136SAPE  H19S14771   3.946   2.634   9.165  2.1511 -0.1802 -0.5782
  136SAPE  C22014772   3.964   2.649   8.948  0.4939  0.5575  0.5047
  136SAPE  H20R14773   4.046   2.575   8.940  0.2308  0.4702 -2.4270
  136SAPE  H20S14774   3.988   2.721   8.868  2.1923 -1.0401 -0.5018
  136SAPE  H20T14775   3.871   2.593   8.924  0.0625  0.6576  1.8346
  136SAPE   C3314776   3.626   2.442   9.921 -0.2648  0.3529  0.6515
  136SAPE   H3X14777   3.530   2.496   9.936 -0.6616 -0.0830 -0.2578
  136SAPE   H3Y14778   3.605   2.337   9.951 -2.7265  0.0670 -1.6811
  136SAPE   C3414779   3.667   2.438   9.764  0.3997 -0.4547  1.2101
  136SAPE   H4X14780   3.761   2.380   9.749 -0.0816 -0.9565  0.0096
  136SAPE   H4Y14781   3.665   2.543   9.728 -2.3265 -0.4144  1.2275
  136SAPE   C3514782   3.572   2.346   9.679  0.0048  0.2077  0.1960
  136SAPE   H5X14783   3.473   2.395   9.665 -1.7105 -2.7161  1.3133
  136SAPE   H5Y14784   3.559   2.246   9.724  2.1843 -2.1726 -3.8757
  136SAPE   C3614785   3.649   2.309   9.550 -0.3154 -0.6097  0.4965
  136SAPE   H6X14786   3.732   2.248   9.590 -1.3593 -1.3924  1.5512
  136SAPE   H6Y14787   3.683   2.407   9.509 -1.9254  0.3793  1.4069
  136SAPE   C3714788   3.562   2.216   9.461  0.4068 -0.0327  0.9789
  136SAPE   H7X14789   3.467   2.271   9.445  1.3246  1.2231 -0.3702
  136SAPE   H7Y14790   3.540   2.122   9.517 -0.7604 -0.3906 -0.0681
  136SAPE   C3814791   3.642   2.185   9.332  0.0691  0.6230  0.0555
  136SAPE   H8X14792   3.737   2.133   9.360 -0.8186 -0.9607  0.2509
  136SAPE   H8Y14793   3.677   2.281   9.288  0.3845  0.9060  0.9055
  136SAPE   C3914794   3.579   2.085   9.231  0.2211 -0.5110 -0.8204
  136SAPE   H9X14795   3.497   2.143   9.183  0.3531  1.3338  1.0095
  136SAPE   H9Y14796   3.528   2.003   9.285  0.2471  0.3667  0.6073
  136SAPE  C31014797   3.686   2.033   9.130  0.0363  0.0973 -0.1212
  136SAPE  H10X14798   3.744   1.946   9.168 -0.0191 -0.2575 -0.8472
  136SAPE  H10Y14799   3.751   2.121   9.110  1.0173 -0.3475  0.9569
  136SAPE  C31114800   3.608   1.983   9.008  0.9152  0.7549  0.9097
  136SAPE  H11X14801   3.673   1.941   8.929 -0.1434 -0.4496  0.6556
  136SAPE  H11Y14802   3.563   2.069   8.954  0.3132 -0.0009  0.1786
  136SAPE  C31214803   3.492   1.880   9.032 -0.1098  0.6553  0.6175
  136SAPE  H12X14804   3.427   1.883   8.942 -1.8097 -1.8440  1.6279
  136SAPE  H12Y14805   3.422   1.913   9.112 -3.8894 -1.2269 -1.6276
  136SAPE  C31314806   3.534   1.734   9.064  0.8598 -0.6797 -0.4544
  136SAPE  H13X14807   3.590   1.737   9.160 -0.4317 -1.4897  0.3628
  136SAPE  H13Y14808   3.593   1.690   8.981  0.4377 -1.2900 -0.4381
  136SAPE  C31414809   3.421   1.634   9.095 -0.4630 -0.4267 -0.2045
  136SAPE  H14X14810   3.368   1.678   9.183  1.8164  3.8049 -0.6972
  136SAPE  H14Y14811   3.465   1.536   9.126 -2.0088 -0.9037  0.5625
  136SAPE  C31514812   3.324   1.633   8.985 -0.2516 -0.0629  0.3096
  136SAPE  H15X14813   3.369   1.650   8.884 -0.5776  1.1943  0.3611
  136SAPE  H15Y14814   3.258   1.723   8.986  0.0538  0.3075 -2.6855
  136SAPE  C31614815   3.234   1.504   8.978  0.3338 -0.0582 -0.0180
  136SAPE  H16X14816   3.155   1.503   9.055  1.4560  0.0267  1.1664
  136SAPE  H16Y14817   3.294   1.410   8.988  1.1000  0.2752 -1.2066
  136SAPE  C31714818   3.162   1.481   8.839  0.4486  0.4924 -0.6652
  136SAPE  H17X14819   3.150   1.578   8.787 -1.0925 -0.2024 -1.6481
  136SAPE  H17Y14820   3.056   1.453   8.853 -0.4022  3.1398 -1.3033
  136SAPE  C31814821   3.238   1.385   8.742 -0.0831  0.0646  0.7097
  136SAPE  H18X14822   3.258   1.290   8.795  1.8055  1.3273  2.3902
  136SAPE  H18Y14823   3.336   1.433   8.722 -0.4372 -0.0630 -1.5736
  136SAPE  H18Z14824   3.188   1.368   8.644  1.4134 -0.3275 -0.0048
  137SAPE     N14825   2.860   0.208  10.948 -0.6030 -1.2183 -0.2170
  137SAPE   HN114826   2.765   0.226  10.986 -0.8131 -1.1444 -0.7585
  137SAPE   HN214827   2.865   0.105  10.933  2.1906 -1.5306  1.9486
  137SAPE   HN314828   2.933   0.230  11.019 -0.5124  1.1008 -0.9432
  137SAPE   C1214829   2.892   0.297  10.832 -0.1180  0.1235  0.1781
  137SAPE  H12A14830   2.820   0.280  10.750  0.6895  1.2617 -0.7935
  137SAPE  H12B14831   2.996   0.283  10.796  0.2720  7.3802 -3.0676
  137SAPE   C1114832   2.901   0.438  10.878  0.3372  0.0373 -0.6670
  137SAPE  H11A14833   2.924   0.501  10.789  0.1796  1.1136  0.0470
  137SAPE  H11B14834   2.977   0.437  10.959 -0.8216  1.1058  0.4776
  137SAPE     P14835   2.640   0.483  10.849  0.0349 -0.0006  0.1162
  137SAPE   O1314836   2.573   0.360  10.879  0.2759  0.3475 -0.0824
  137SAPE   O1414837   2.576   0.608  10.897  0.5363 -0.3906 -0.0613
  137SAPE   O1214838   2.775   0.474  10.936 -0.3032  0.0188 -0.0003
  137SAPE   O1114839   2.688   0.502  10.694  0.1183 -0.2491 -0.3052
  137SAPE    C114840   2.620   0.429  10.587 -0.1673 -0.1607 -0.8479
  137SAPE    HA14841   2.548   0.354  10.626 -0.1911  1.4577  2.6871
  137SAPE    HB14842   2.564   0.506  10.531  1.5389  1.0119 -1.0369
  137SAPE    C214843   2.723   0.371  10.486 -0.0130 -0.6705  0.3504
  137SAPE    HS14844   2.791   0.317  10.554  2.5682  1.1005 -0.6804
  137SAPE   O2114845   2.788   0.486  10.427  0.7226  0.8412 -0.0762
  137SAPE   C2114846   2.902   0.465  10.373 -0.5452 -0.7669  0.2773
  137SAPE   O2214847   2.970   0.362  10.374 -0.5313 -0.2188 -0.0577
  137SAPE   C2214848   2.961   0.601  10.326  0.1719 -0.4043 -0.8828
  137SAPE   H2R14849   2.883   0.681  10.326 -1.4806 -1.9478 -1.7735
  137SAPE   H2S14850   3.041   0.622  10.400  0.3484  0.2358 -1.2507
  137SAPE    C314851   2.662   0.272  10.385  0.4961 -0.1668  0.8280
  137SAPE    HX14852   2.654   0.174  10.436  0.9604 -2.3776 -3.0357
  137SAPE    HY14853   2.731   0.256  10.300  1.2196 -0.2100  1.4122
  137SAPE   O3114854   2.529   0.313  10.340  0.2805  0.1232  0.0023
  137SAPE   C3114855   2.528   0.393  10.237  0.0809 -0.1838 -0.0629
  137SAPE   O3214856   2.622   0.411  10.161 -0.0885 -0.1085  0.5222
  137SAPE   C3214857   2.392   0.462  10.225 -0.5256  0.0301  0.1211
  137SAPE   H2X14858   2.411   0.572  10.230 -0.8636  0.1042 -0.1596
  137SAPE   H2Y14859   2.326   0.435  10.310  0.5929  0.1997  1.0816
  137SAPE   C2314860   3.040   0.584  10.195  0.2536  0.1037 -0.7551
  137SAPE   H3R14861   3.126   0.518  10.219  2.5258  2.4732 -1.8672
  137SAPE   H3S14862   3.077   0.684  10.164  0.1776  0.9201  1.5900
  137SAPE   C2414863   2.946   0.533  10.078 -0.4178  0.1733  0.2467
  137SAPE   H4R14864   2.877   0.619  10.071 -0.2956  0.3525  1.0800
  137SAPE   H4S14865   2.885   0.448  10.117 -0.4957 -0.3066 -0.8915
  137SAPE   C2514866   3.015   0.497   9.945 -0.5817 -0.4244  0.9400
  137SAPE   H5R14867   3.113   0.451   9.959  0.5400  1.5998  0.1297
  137SAPE   C2614868   2.964   0.518   9.823  0.0745  0.2693  0.4852
  137SAPE   H6R14869   3.018   0.478   9.736 -2.9538 -1.1302 -0.8841
  137SAPE   C2714870   2.834   0.580   9.787 -0.1944  0.2878  0.2063
  137SAPE   H7R14871   2.828   0.613   9.681 -1.0469  0.3352  0.2649
  137SAPE   H7S14872   2.819   0.672   9.848  2.6279  1.3289 -0.5225
  137SAPE   C2814873   2.710   0.502   9.824 -0.1203 -0.8193 -0.4325
  137SAPE   H8R14874   2.708   0.485   9.933  0.9089  2.7239  0.2776
  137SAPE   C2914875   2.612   0.444   9.751 -0.5638 -0.1343 -0.4724
  137SAPE   H9R14876   2.537   0.388   9.808  0.6715 -1.1997  0.1503
  137SAPE  C21014877   2.590   0.434   9.607  0.1106 -0.4769  0.6934
  137SAPE  H10R14878   2.578   0.539   9.572 -2.2224 -0.6060  0.9609
  137SAPE  H10S14879   2.494   0.387   9.578  0.1420 -0.0063 -0.2266
  137SAPE  C21114880   2.704   0.377   9.529 -0.3945  0.0717 -0.2548
  137SAPE  H11R14881   2.804   0.380   9.574 -0.0796  1.7713 -0.9861
  137SAPE  C21214882   2.696   0.309   9.414 -0.2031 -0.0459  0.3937
  137SAPE  H12R14883   2.788   0.264   9.373  1.3630  1.5036  2.0585
  137SAPE  C21314884   2.571   0.295   9.335  0.2674  0.1476 -0.3126
  137SAPE  H13R14885   2.531   0.397   9.322 -0.2987  0.0787  0.7692
  137SAPE  H13S14886   2.489   0.247   9.393 -0.5701  1.2632 -0.5513
  137SAPE  C21414887   2.573   0.222   9.202 -0.0206  0.0093  0.3710
  137SAPE  H14R14888   2.496   0.145   9.191  0.8929 -0.7163 -1.3017
  137SAPE  C21514889   2.644   0.239   9.086  0.4600 -0.1929 -0.7603
  137SAPE  H15R14890   2.628   0.158   9.013  0.0519 -1.6854  0.9109
  137SAPE  C21614891   2.745   0.345   9.067  0.0909  0.1949 -0.0720
  137SAPE  H16R14892   2.846   0.299   9.070 -0.7567 -1.8389 -0.9488
  137SAPE  H16S14893   2.737   0.432   9.136  1.9044  0.7629 -0.5364
  137SAPE  C21714894   2.736   0.410   8.919  0.2272  0.6680 -0.0060
  137SAPE  H17R14895   2.637   0.439   8.879 -1.0478 -3.2307 -0.0980
  137SAPE  H17S14896   2.768   0.344   8.836 -1.0267  2.2011 -1.7991
  137SAPE  C21814897   2.835   0.527   8.912 -0.2466  0.1829  0.6068
  137SAPE  H18R14898   2.940   0.496   8.936  0.8655  2.7338 -0.5785
  137SAPE  H18S14899   2.814   0.598   8.996 -0.0463  2.0255 -0.8367
  137SAPE  C21914900   2.829   0.608   8.782  0.6626 -0.1038  0.0064
  137SAPE  H19R14901   2.889   0.701   8.796  3.3300 -1.6610 -0.3740
  137SAPE  H19S14902   2.729   0.652   8.763  0.8839  0.8054  0.8498
  137SAPE  C22014903   2.876   0.544   8.650  0.7186 -0.8346 -0.0266
  137SAPE  H20R14904   2.872   0.616   8.566 -0.7694 -1.0050 -0.1260
  137SAPE  H20S14905   2.812   0.455   8.630  2.8384 -2.6843  0.9588
  137SAPE  H20T14906   2.976   0.497   8.650  1.1782  0.0190 -2.0055
  137SAPE   C3314907   2.316   0.430  10.095 -0.5972 -0.2608 -0.6508
  137SAPE   H3X14908   2.382   0.450  10.008  1.5396 -1.6577  0.5733
  137SAPE   H3Y14909   2.227   0.496  10.084 -0.6058 -0.2884 -0.7512
  137SAPE   C3414910   2.268   0.288  10.085 -0.0404 -0.3682 -0.4463
  137SAPE   H4X14911   2.215   0.259  10.179  0.8540  1.7018  0.7581
  137SAPE   H4Y14912   2.359   0.226  10.073  0.1591 -0.1883  0.0843
  137SAPE   C3514913   2.173   0.262   9.967  0.3083 -0.3875  0.4278
  137SAPE   H5X14914   2.082   0.319   9.993 -1.0199 -2.1866 -0.0623
  137SAPE   H5Y14915   2.148   0.154   9.971  0.4570 -0.4103  0.7429
  137SAPE   C3614916   2.231   0.300   9.828  0.7450  0.8546  0.4598
  137SAPE   H6X14917   2.325   0.242   9.819 -0.2352 -0.9290  1.2151
  137SAPE   H6Y14918   2.244   0.410   9.820 -0.6623  1.1084  1.3442
  137SAPE   C3714919   2.132   0.263   9.715 -0.4364 -0.0316  0.5429
  137SAPE   H7X14920   2.040   0.317   9.747  1.4879  2.6214  1.9633
  137SAPE   H7Y14921   2.113   0.154   9.707 -1.3314  0.2041 -1.0418
  137SAPE   C3814922   2.196   0.314   9.584  0.3808 -0.2461  0.3478
  137SAPE   H8X14923   2.292   0.261   9.565 -1.1355 -2.4201 -1.9071
  137SAPE   H8Y14924   2.202   0.424   9.600  0.1936  0.0854 -1.6716
  137SAPE   C3914925   2.103   0.291   9.462 -0.0743 -0.3593 -0.4856
  137SAPE   H9X14926   2.003   0.333   9.488 -0.2393 -1.1477  0.1967
  137SAPE   H9Y14927   2.102   0.182   9.444  0.1161 -0.3778 -0.3832
  137SAPE  C31014928   2.156   0.367   9.333  0.0145  0.3618  0.0161
  137SAPE  H10X14929   2.259   0.329   9.312 -0.5608 -0.8858 -0.6562
  137SAPE  H10Y14930   2.159   0.476   9.353 -0.5233 -0.0138  2.3655
  137SAPE  C31114931   2.063   0.339   9.212 -0.3208 -0.3537 -0.3697
  137SAPE  H11X14932   1.966   0.389   9.231  0.6133  1.7090 -0.7654
  137SAPE  H11Y14933   2.041   0.231   9.201 -0.5662 -0.2821 -0.5910
  137SAPE  C31214934   2.122   0.406   9.085  0.2980  0.3214  0.0075
  137SAPE  H12X14935   2.218   0.359   9.057  1.1564  0.1691  2.8439
  137SAPE  H12Y14936   2.142   0.511   9.113 -0.8952  0.7433 -0.6689
  137SAPE  C31314937   2.020   0.407   8.970 -0.3486 -0.0045  0.4487
  137SAPE  H13X14938   1.933   0.476   8.980 -2.0132 -1.8978 -0.0916
  137SAPE  H13Y14939   1.974   0.306   8.978  0.1360 -0.1638  1.3209
  137SAPE  C31414940   2.100   0.436   8.842 -0.3356  0.2492 -0.7924
  137SAPE  H14X14941   2.173   0.354   8.823 -0.5360 -0.7787  2.2850
  137SAPE  H14Y14942   2.147   0.532   8.875  1.4747 -0.0129 -2.4121
  137SAPE  C31514943   2.007   0.465   8.721  0.3598  0.0492  0.1567
  137SAPE  H15X14944   1.952   0.556   8.751  0.7468 -0.3826  2.3587
  137SAPE  H15Y14945   1.929   0.387   8.717  0.6640 -0.5737  3.5099
  137SAPE  C31614946   2.085   0.480   8.589  1.6297 -0.1099 -0.1012
  137SAPE  H16X14947   2.146   0.388   8.588  0.8961 -0.6061 -0.0419
  137SAPE  H16Y14948   2.157   0.564   8.596 -1.0497  2.3180  0.3141
  137SAPE  C31714949   2.003   0.499   8.459  0.1637 -0.1301 -0.6704
  137SAPE  H17X14950   2.069   0.488   8.370 -0.1772 -2.4250 -0.7179
  137SAPE  H17Y14951   1.959   0.600   8.447 -1.4224 -0.3864  2.0325
  137SAPE  C31814952   1.910   0.382   8.451 -0.9414  0.4468 -0.3870
  137SAPE  H18X14953   1.966   0.287   8.467  0.7082  1.2128 -1.3120
  137SAPE  H18Y14954   1.846   0.370   8.360 -0.7439  1.6223 -0.6942
  137SAPE  H18Z14955   1.843   0.407   8.536  0.2784  1.2139  0.3756
  138SAPE     N14956   6.359   2.051  11.036 -0.1004 -0.1983  0.3577
  138SAPE   HN114957   6.333   2.131  11.098  1.0917 -1.6580  2.8928
  138SAPE   HN214958   6.435   2.011  11.095 -0.5836 -1.4041  0.1735
  138SAPE   HN314959   6.392   2.098  10.949 -0.9049  0.5857  0.4623
  138SAPE   C1214960   6.246   1.965  11.001 -0.3746  1.0153  0.6769
  138SAPE  H12A14961   6.228   1.895  11.086  2.6833  0.1011  0.7114
  138SAPE  H12B14962   6.272   1.905  10.911 -0.9695  2.3900 -0.4481
  138SAPE   C1114963   6.129   2.054  10.954 -0.3930 -0.0286 -0.1885
  138SAPE  H11A14964   6.091   2.114  11.039 -0.2884  1.0244 -0.8656
  138SAPE  H11B14965   6.045   1.985  10.928 -0.9427  0.5728 -0.0259
  138SAPE     P14966   6.071   2.188  10.737  0.0556 -0.5775  0.0729
  138SAPE   O1314967   5.959   2.254  10.806 -0.4859 -0.7170 -0.2775
  138SAPE   O1414968   6.149   2.272  10.639 -0.3058 -0.4621  0.2495
  138SAPE   O1214969   6.172   2.129  10.842 -0.3879 -0.5354  0.1223
  138SAPE   O1114970   6.023   2.056  10.675 -0.4205 -0.0457  0.0283
  138SAPE    C114971   6.082   1.986  10.561 -0.4642 -0.1017 -0.4553
  138SAPE    HA14972   6.193   1.984  10.561 -0.4653 -0.9667  0.3025
  138SAPE    HB14973   6.054   1.879  10.565  0.5774 -0.5235 -3.0894
  138SAPE    C214974   6.032   2.047  10.429 -0.5428 -0.0527  0.1931
  138SAPE    HS14975   6.073   2.150  10.417  2.3077 -1.4034 -3.7313
  138SAPE   O2114976   5.888   2.044  10.432 -0.0641  0.2387 -0.1082
  138SAPE   C2114977   5.831   2.143  10.377 -0.3307  0.2239  0.3166
  138SAPE   O2214978   5.881   2.254  10.361 -0.2119 -0.2137 -0.8502
  138SAPE   C2214979   5.686   2.104  10.345  0.5922 -0.5006  0.6421
  138SAPE   H2R14980   5.616   2.148  10.419 -1.1270 -1.9114 -0.0804
  138SAPE   H2S14981   5.661   2.131  10.241  2.4500 -0.4114  0.1780
  138SAPE    C314982   6.087   1.963  10.312  0.1031  0.0002 -0.0229
  138SAPE    HX14983   6.046   1.862  10.334  1.2279 -0.6901 -0.9639
  138SAPE    HY14984   6.198   1.956  10.308  0.0045 -1.9041 -0.8827
  138SAPE   O3114985   6.035   2.005  10.183  0.0761  0.1837 -0.2572
  138SAPE   C3114986   6.093   2.116  10.141 -0.6580  0.1078 -0.1461
  138SAPE   O3214987   6.190   2.173  10.189 -0.5552  0.3865 -0.3985
  138SAPE   C3214988   6.018   2.172  10.017  0.1006  0.3477  0.6803
  138SAPE   H2X14989   6.048   2.278  10.003  1.7337 -0.2692 -0.8847
  138SAPE   H2Y14990   5.909   2.159  10.032  0.2745 -0.2256  1.5071
  138SAPE   C2314991   5.659   1.949  10.347 -0.1724 -0.8497 -0.9254
  138SAPE   H3R14992   5.553   1.939  10.378  0.2582 -0.2662  0.8208
  138SAPE   H3S14993   5.719   1.909  10.431 -0.2087 -0.1314 -0.5539
  138SAPE   C2414994   5.681   1.882  10.214  0.0882 -0.3136 -0.3219
  138SAPE   H4R14995   5.785   1.912  10.190 -1.2376  3.0234 -2.6337
  138SAPE   H4S14996   5.619   1.941  10.144  0.3458  1.5304  0.9260
  138SAPE   C2514997   5.671   1.736  10.200 -0.4024 -0.0817 -0.1621
  138SAPE   H5R14998   5.669   1.675  10.292  0.8657  2.2972  1.5351
  138SAPE   C2614999   5.666   1.675  10.082  0.6385  0.1262  0.1514
  138SAPE   H6R15000   5.662   1.565  10.083 -2.0299  0.1194 -1.3907
  138SAPE   C2715001   5.682   1.734   9.946 -0.0045 -0.0631 -0.2437
  138SAPE   H7R15002   5.704   1.843   9.948  0.2828 -0.1021 -0.9286
  138SAPE   H7S15003   5.587   1.717   9.892 -0.8796 -1.5646  1.6781
  138SAPE   C2815004   5.791   1.667   9.867 -0.3699  0.5526 -0.5653
  138SAPE   H8R15005   5.875   1.628   9.927  0.1790  2.1566 -0.2263
  138SAPE   C2915006   5.788   1.645   9.738 -0.2671  0.1572 -0.8161
  138SAPE   H9R15007   5.872   1.590   9.692 -0.5930 -2.2947  1.3453
  138SAPE  C21015008   5.684   1.694   9.642 -0.1397  0.1217  0.2108
  138SAPE  H10R15009   5.720   1.706   9.537  1.2406  1.9705  0.8398
  138SAPE  H10S15010   5.660   1.800   9.663  0.4163  0.3118 -0.0867
  138SAPE  C21115011   5.562   1.602   9.644 -0.1476 -0.3907  0.3437
  138SAPE  H11R15012   5.530   1.562   9.741  1.9706 -0.7242  0.9615
  138SAPE  C21215013   5.494   1.547   9.537 -0.6989 -0.4460 -0.0046
  138SAPE  H12R15014   5.406   1.484   9.556 -0.3406 -0.7237  0.7432
  138SAPE  C21315015   5.525   1.589   9.389 -0.0681  0.5007 -0.5008
  138SAPE  H13R15016   5.635   1.584   9.380  0.3730 -0.2263  3.4924
  138SAPE  H13S15017   5.484   1.688   9.360  1.5374  2.3128  2.8272
  138SAPE  C21415018   5.455   1.478   9.310  0.7708  0.6377  0.1065
  138SAPE  H14R15019   5.483   1.377   9.344  0.1864  0.7191  0.8576
  138SAPE  C21515020   5.391   1.494   9.195  0.1912 -0.2958 -0.2925
  138SAPE  H15R15021   5.354   1.402   9.147 -0.9333 -0.9899  1.7914
  138SAPE  C21615022   5.371   1.626   9.117 -0.1561  0.8997  0.1363
  138SAPE  H16R15023   5.453   1.700   9.127 -1.2709  2.3269 -0.9209
  138SAPE  H16S15024   5.270   1.668   9.134  0.0446  2.2096 -1.6340
  138SAPE  C21715025   5.374   1.592   8.965 -0.1385  1.0501 -0.1551
  138SAPE  H17R15026   5.339   1.676   8.901  1.4399  0.6439 -1.6080
  138SAPE  H17S15027   5.321   1.500   8.935  1.1258  0.2023  0.1520
  138SAPE  C21815028   5.516   1.579   8.904 -0.0359  0.5069  0.5206
  138SAPE  H18R15029   5.585   1.653   8.950  2.3025 -0.4274 -1.2647
  138SAPE  H18S15030   5.515   1.599   8.794 -0.3980  0.9041  0.5940
  138SAPE  C21915031   5.591   1.441   8.914  0.2513  0.2164 -0.1592
  138SAPE  H19R15032   5.526   1.358   8.879  0.0442 -0.4039  1.6321
  138SAPE  H19S15033   5.616   1.417   9.019 -1.5457 -0.3161  0.1847
  138SAPE  C22015034   5.722   1.446   8.843 -0.4892 -0.5060  0.8616
  138SAPE  H20R15035   5.707   1.460   8.734 -0.3465 -0.5101  0.8414
  138SAPE  H20S15036   5.782   1.356   8.867  0.9827  0.4056  0.7119
  138SAPE  H20T15037   5.789   1.531   8.865  0.5289 -0.3509 -2.4224
  138SAPE   C3315038   6.058   2.112   9.879  0.6597  0.4870  0.1812
  138SAPE   H3X15039   6.156   2.140   9.836  0.6224 -1.1332 -1.0389
  138SAPE   H3Y15040   5.992   2.154   9.799  0.6917 -0.1822 -0.2029
  138SAPE   C3415041   6.035   1.959   9.871 -0.2345  0.1630  0.2635
  138SAPE   H4X15042   5.934   1.930   9.908  0.2036 -2.9375 -0.6767
  138SAPE   H4Y15043   6.101   1.911   9.947  1.8822  1.8398 -0.4394
  138SAPE   C3515044   6.077   1.895   9.731 -0.8048  0.3867 -1.1159
  138SAPE   H5X15045   6.048   1.788   9.739  0.7943  0.0686  2.4342
  138SAPE   H5Y15046   6.187   1.891   9.713 -0.6763 -1.5537 -0.1708
  138SAPE   C3615047   6.021   1.974   9.611  0.9103  0.4653 -0.7194
  138SAPE   H6X15048   6.059   2.078   9.604  2.3075  0.0350  0.1367
  138SAPE   H6Y15049   5.911   1.968   9.626  0.9902 -0.0453 -0.3193
  138SAPE   C3715050   6.027   1.897   9.480 -0.4180 -0.0009 -0.2487
  138SAPE   H7X15051   5.991   1.793   9.495 -0.5976 -0.0635 -1.0571
  138SAPE   H7Y15052   6.131   1.898   9.441 -0.4478  2.3983 -0.3639
  138SAPE   C3815053   5.930   1.946   9.371 -0.2668 -0.0209  0.5914
  138SAPE   H8X15054   5.967   2.050   9.363 -1.6136  0.4468  0.0847
  138SAPE   H8Y15055   5.824   1.956   9.402 -0.9705 -0.4469 -1.4826
  138SAPE   C3915056   5.938   1.869   9.237  0.4369 -0.0076  1.1486
  138SAPE   H9X15057   5.906   1.769   9.274  0.6711 -1.3252 -1.8602
  138SAPE   H9Y15058   6.042   1.867   9.198 -0.3539  0.3335 -1.1822
  138SAPE  C31015059   5.837   1.914   9.129 -0.2112 -0.0688  0.8534
  138SAPE  H10X15060   5.839   2.024   9.114  1.1940 -0.0090  1.3264
  138SAPE  H10Y15061   5.733   1.884   9.156  0.7722 -1.6727  3.2103
  138SAPE  C31115062   5.841   1.846   8.991  0.3820  0.1570 -0.3664
  138SAPE  H11X15063   5.742   1.876   8.950 -0.0086  0.0529  0.4684
  138SAPE  H11Y15064   5.842   1.736   9.002  0.0401  0.2801  1.1356
  138SAPE  C31215065   5.954   1.889   8.897 -0.4563  0.2396 -0.3432
  138SAPE  H12X15066   6.049   1.846   8.934 -0.6025  0.1772 -0.0337
  138SAPE  H12Y15067   5.955   2.000   8.889 -0.6889  0.1493 -2.1985
  138SAPE  C31315068   5.930   1.833   8.757 -0.1624  0.0036  0.4723
  138SAPE  H13X15069   5.822   1.845   8.733  0.1406 -0.2737 -1.1232
  138SAPE  H13Y15070   5.951   1.724   8.767 -0.7924 -0.0176  1.9212
  138SAPE  C31415071   5.998   1.911   8.644  1.0697 -0.2918  0.0070
  138SAPE  H14X15072   5.965   2.017   8.645 -0.4692 -0.5569 -3.6391
  138SAPE  H14Y15073   5.963   1.869   8.547 -0.3053 -1.6187  1.0382
  138SAPE  C31515074   6.151   1.899   8.647  0.2829 -0.2357 -0.4276
  138SAPE  H15X15075   6.186   1.917   8.751  2.4122 -0.8220 -0.9874
  138SAPE  H15Y15076   6.183   1.978   8.576 -1.6620 -0.5189 -1.6726
  138SAPE  C31615077   6.207   1.768   8.606 -0.0018  0.7835 -0.0729
  138SAPE  H16X15078   6.136   1.733   8.528 -1.0909  0.8709  0.8518
  138SAPE  H16Y15079   6.196   1.700   8.694  0.4084 -1.4468 -1.6493
  138SAPE  C31715080   6.343   1.784   8.552 -0.3975 -0.4774  0.2515
  138SAPE  H17X15081   6.336   1.862   8.473 -0.6295 -1.1912 -0.4324
  138SAPE  H17Y15082   6.373   1.689   8.504  0.3225  0.7360 -1.8167
  138SAPE  C31815083   6.452   1.835   8.650  0.3019 -0.3039 -0.1092
  138SAPE  H18X15084   6.452   1.765   8.736 -1.9095  0.2840  0.4345
  138SAPE  H18Y15085   6.422   1.928   8.702  5.1655  1.6907 -0.3629
  138SAPE  H18Z15086   6.555   1.845   8.610  0.7979 -1.6962  0.7607
  139SAPE     N15087   1.157   5.752  10.737  0.1300 -0.2781  0.2242
  139SAPE   HN115088   1.249   5.797  10.718  0.3679 -0.6918  0.3758
  139SAPE   HN215089   1.086   5.783  10.668 -0.6054  0.9494  1.4816
  139SAPE   HN315090   1.130   5.789  10.831  2.3407 -1.1321  1.2696
  139SAPE   C1215091   1.139   5.599  10.743 -0.4479 -0.8045  0.3352
  139SAPE  H12A15092   1.049   5.579  10.804 -1.4308 -1.7614 -1.3517
  139SAPE  H12B15093   1.222   5.558  10.804 -1.1778  2.2019  3.7261
  139SAPE   C1115094   1.129   5.531  10.603  0.1540  0.5313 -0.4766
  139SAPE  H11A15095   1.036   5.560  10.550  0.0299  0.6575 -0.1940
  139SAPE  H11B15096   1.126   5.421  10.619 -4.3310  0.5547  0.1065
  139SAPE     P15097   1.383   5.493  10.534  0.4040  0.0249  0.2088
  139SAPE   O1315098   1.450   5.568  10.640 -0.1076  0.1241  0.3293
  139SAPE   O1415099   1.359   5.348  10.551 -0.4121 -0.9518 -0.7709
  139SAPE   O1215100   1.246   5.565  10.528  0.6890  0.2611  0.2384
  139SAPE   O1115101   1.438   5.516  10.389  0.4482  0.0205 -0.2707
  139SAPE    C115102   1.409   5.639  10.323  0.5442 -0.5817  0.1250
  139SAPE    HA15103   1.312   5.687  10.347  0.7711  0.0299 -0.1780
  139SAPE    HB15104   1.482   5.721  10.340  1.0408 -0.8711 -0.5628
  139SAPE    C215105   1.422   5.625  10.161 -0.1431  1.2024  0.4461
  139SAPE    HS15106   1.377   5.705  10.098 -0.0661 -0.6038 -2.0637
  139SAPE   O2115107   1.361   5.500  10.123  0.2765 -0.2236  0.9571
  139SAPE   C2115108   1.230   5.501  10.140 -0.3226 -0.0948  0.0820
  139SAPE   O2215109   1.161   5.597  10.163  0.3599 -0.1066  0.0970
  139SAPE   C2215110   1.178   5.366  10.125  0.5876  0.4893  0.7484
  139SAPE   H2R15111   1.263   5.299  10.150  0.0611  0.1335  1.6232
  139SAPE   H2S15112   1.096   5.360  10.200 -0.0395 -2.3525 -0.0089
  139SAPE    C315113   1.570   5.625  10.116  0.7353  0.3653 -0.4363
  139SAPE    HX15114   1.615   5.543  10.177 -1.6555 -0.3423  0.5131
  139SAPE    HY15115   1.617   5.719  10.151  1.4367  0.2152 -0.9467
  139SAPE   O3115116   1.596   5.613   9.973  0.0351 -0.4595  0.5752
  139SAPE   C3115117   1.579   5.494   9.924 -0.7908 -0.4124  0.5156
  139SAPE   O3215118   1.583   5.388   9.980 -0.6926 -0.2532  0.2375
  139SAPE   C3215119   1.545   5.518   9.775 -0.7580  0.2398 -0.1347
  139SAPE   H2X15120   1.641   5.565   9.744  0.3249 -0.8038  1.4602
  139SAPE   H2Y15121   1.457   5.579   9.745  1.0176  1.0273 -4.4764
  139SAPE   C2315122   1.103   5.338   9.988 -0.3894 -0.6308  0.3387
  139SAPE   H3R15123   1.031   5.415   9.954  0.0181  0.1220  1.1458
  139SAPE   H3S15124   1.050   5.240   9.996  0.6544 -1.1752  0.8851
  139SAPE   C2415125   1.214   5.320   9.880  0.6964 -0.2124  0.4374
  139SAPE   H4R15126   1.296   5.391   9.904  1.9478 -1.3188 -0.4190
  139SAPE   H4S15127   1.166   5.348   9.784  1.4860 -1.5756 -0.3945
  139SAPE   C2515128   1.281   5.189   9.871  0.0654 -0.2024  0.3389
  139SAPE   H5R15129   1.323   5.156   9.967 -3.3801  1.7198  2.7358
  139SAPE   C2615130   1.289   5.105   9.766  0.0070 -0.7254 -0.6259
  139SAPE   H6R15131   1.353   5.015   9.774 -2.3310 -2.3910  0.4552
  139SAPE   C2715132   1.235   5.135   9.629  0.3190 -0.3192  0.0860
  139SAPE   H7R15133   1.324   5.127   9.563  1.5121 -1.2717  1.7323
  139SAPE   H7S15134   1.185   5.234   9.626 -0.1218 -0.5212  0.6810
  139SAPE   C2815135   1.120   5.026   9.613  0.0357 -0.5839  0.2634
  139SAPE   H8R15136   1.033   5.053   9.674 -0.4006  0.6518 -0.8409
  139SAPE   C2915137   1.110   4.925   9.524  0.0788 -0.6775  0.3571
  139SAPE   H9R15138   1.022   4.858   9.527 -0.3141 -0.5295 -3.0602
  139SAPE  C21015139   1.219   4.891   9.424 -0.2814 -0.5238  0.1019
  139SAPE  H10R15140   1.317   4.931   9.460 -0.4247  0.3365 -0.4411
  139SAPE  H10S15141   1.189   4.957   9.340 -4.0695 -1.3557  0.6406
  139SAPE  C21115142   1.238   4.744   9.388 -0.0319 -0.0743 -0.5720
  139SAPE  H11R15143   1.220   4.666   9.464 -0.9828  0.2813 -0.4086
  139SAPE  C21215144   1.285   4.697   9.270  0.1320  0.2589  0.5751
  139SAPE  H12R15145   1.304   4.588   9.265 -0.4409  0.1818 -0.1445
  139SAPE  C21315146   1.321   4.781   9.141  0.5562 -0.4639 -0.0850
  139SAPE  H13R15147   1.403   4.739   9.078  1.3322  1.3052 -0.2891
  139SAPE  H13S15148   1.369   4.875   9.173  0.8540  0.3045 -2.5975
  139SAPE  C21415149   1.201   4.825   9.059 -0.1162 -0.5554  0.3756
  139SAPE  H14R15150   1.167   4.929   9.072 -0.4304 -0.9182  2.9708
  139SAPE  C21515151   1.133   4.751   8.967 -0.3606 -0.3087 -0.3271
  139SAPE  H15R15152   1.062   4.804   8.902 -1.5035  0.5560  1.5536
  139SAPE  C21615153   1.164   4.609   8.937  0.1962 -0.2689  0.7752
  139SAPE  H16R15154   1.075   4.559   8.980  0.3067 -1.0345  0.1374
  139SAPE  H16S15155   1.253   4.572   8.991  0.1109 -0.8114  0.5524
  139SAPE  C21715156   1.180   4.577   8.780  0.5404 -0.7366  0.1337
  139SAPE  H17R15157   1.090   4.609   8.723  1.0277 -0.5614 -0.5454
  139SAPE  H17S15158   1.184   4.466   8.781 -1.5303 -0.9253 -2.4807
  139SAPE  C21815159   1.304   4.629   8.719  0.4143 -0.6347 -0.4335
  139SAPE  H18R15160   1.385   4.614   8.794 -0.1332  1.4584  0.6555
  139SAPE  H18S15161   1.296   4.740   8.716  0.4275 -0.5716  0.9326
  139SAPE  C21915162   1.347   4.572   8.585  0.3549 -0.7893 -0.2050
  139SAPE  H19R15163   1.344   4.461   8.585 -0.5601 -0.7793 -0.9912
  139SAPE  H19S15164   1.454   4.591   8.564  0.6841 -1.2597  0.9614
  139SAPE  C22015165   1.272   4.622   8.461  0.3871  0.1648 -0.2677
  139SAPE  H20R15166   1.169   4.579   8.457  0.4227 -0.0817  1.0845
  139SAPE  H20S15167   1.325   4.574   8.376 -0.3546 -2.5292  0.7004
  139SAPE  H20T15168   1.257   4.732   8.462  0.0210  0.1186 -0.4815
  139SAPE   C3315169   1.518   5.380   9.696 -0.5507  0.1999  0.3868
  139SAPE   H3X15170   1.409   5.379   9.676 -1.0877 -0.6687  2.9745
  139SAPE   H3Y15171   1.540   5.295   9.764  0.4914  0.9744  1.0399
  139SAPE   C3415172   1.608   5.361   9.574 -0.0049 -0.0445 -0.4402
  139SAPE   H4X15173   1.598   5.259   9.532  2.2038 -0.6614  0.4220
  139SAPE   H4Y15174   1.713   5.380   9.605 -0.6675  0.2639  1.7520
  139SAPE   C3515175   1.576   5.469   9.467  0.1113 -0.3485  0.2164
  139SAPE   H5X15176   1.651   5.475   9.385  3.1025  2.2405  2.8878
  139SAPE   H5Y15177   1.567   5.573   9.503 -1.5423 -0.1918 -0.5521
  139SAPE   C3615178   1.431   5.452   9.408  0.9274  0.8548 -0.6231
  139SAPE   H6X15179   1.355   5.455   9.489  2.1325  0.2000  0.5756
  139SAPE   H6Y15180   1.422   5.347   9.373 -1.5318  1.0044 -0.6483
  139SAPE   C3715181   1.400   5.551   9.299 -0.2304 -0.3174 -0.6025
  139SAPE   H7X15182   1.406   5.652   9.346 -1.9750 -0.4266 -0.0775
  139SAPE   H7Y15183   1.298   5.533   9.257  0.7454 -1.0107 -2.7809
  139SAPE   C3815184   1.492   5.547   9.180  0.4034  0.3376  0.0107
  139SAPE   H8X15185   1.491   5.440   9.148  1.3220  0.0841  0.7759
  139SAPE   H8Y15186   1.593   5.584   9.205  0.0832  2.1018 -1.1463
  139SAPE   C3915187   1.456   5.639   9.064  0.2632  0.3321  0.0620
  139SAPE   H9X15188   1.468   5.745   9.096  0.0283 -0.1747  2.0135
  139SAPE   H9Y15189   1.348   5.622   9.042  0.5284 -2.1649  0.4138
  139SAPE  C31015190   1.534   5.632   8.933 -0.2959 -0.2646 -0.4204
  139SAPE  H10X15191   1.634   5.677   8.949  1.5339 -3.4565 -1.8065
  139SAPE  H10Y15192   1.486   5.687   8.849 -0.4610  0.8351  0.3831
  139SAPE  C31115193   1.566   5.484   8.891  0.0246  1.0999 -0.2007
  139SAPE  H11X15194   1.471   5.428   8.891 -0.5463  2.0441 -0.7522
  139SAPE  H11Y15195   1.625   5.442   8.975 -1.6696  0.9412  0.9532
  139SAPE  C31215196   1.643   5.483   8.764  0.3089  0.1708  0.4835
  139SAPE  H12X15197   1.698   5.386   8.759 -1.1720 -0.6361 -1.4397
  139SAPE  H12Y15198   1.719   5.562   8.746  0.2872  0.1291  0.2060
  139SAPE  C31315199   1.552   5.490   8.645  0.8498 -0.2033 -0.1344
  139SAPE  H13X15200   1.522   5.597   8.635  0.2685 -0.0611  2.4081
  139SAPE  H13Y15201   1.456   5.436   8.659  0.0193  0.7474 -1.8119
  139SAPE  C31415202   1.622   5.454   8.509  0.1810  0.7518  0.5024
  139SAPE  H14X15203   1.674   5.356   8.515  0.1665  0.5164 -2.0843
  139SAPE  H14Y15204   1.705   5.524   8.484  1.9401 -0.9052  1.4085
  139SAPE  C31515205   1.518   5.437   8.402 -0.2045  0.8702 -0.2778
  139SAPE  H15X15206   1.501   5.540   8.365  1.6917  1.1476 -0.4799
  139SAPE  H15Y15207   1.423   5.392   8.436 -0.6086  0.9521 -1.2760
  139SAPE  C31615208   1.575   5.352   8.288 -0.5366 -0.5972 -0.0209
  139SAPE  H16X15209   1.671   5.400   8.260 -1.0080  0.5184  0.2525
  139SAPE  H16Y15210   1.612   5.255   8.329  0.8003 -0.2604 -0.3813
  139SAPE  C31715211   1.475   5.327   8.175  0.1385 -0.4687  0.1645
  139SAPE  H17X15212   1.444   5.428   8.141  2.0120  0.5417  1.3091
  139SAPE  H17Y15213   1.379   5.278   8.205 -1.5151  0.5996 -2.9283
  139SAPE  C31815214   1.528   5.252   8.050 -1.0079  0.5192  0.0483
  139SAPE  H18X15215   1.566   5.154   8.086  1.2552  0.2725 -2.6574
  139SAPE  H18Y15216   1.617   5.297   8.000  0.1207 -0.8247  0.7738
  139SAPE  H18Z15217   1.455   5.236   7.968  0.8305 -0.1277 -1.5436
  140SAPE     N15218   2.642   1.602  11.136  0.1424  0.0404  0.2030
  140SAPE   HN115219   2.731   1.586  11.084  0.4744  2.7898 -0.2393
  140SAPE   HN215220   2.667   1.583  11.235 -1.2026  0.6673  0.6910
  140SAPE   HN315221   2.566   1.537  11.109 -1.8412  0.5445  3.9289
  140SAPE   C1215222   2.599   1.748  11.131  0.1755 -0.5624 -0.2631
  140SAPE  H12A15223   2.674   1.823  11.164 -1.5393  0.2355  2.1091
  140SAPE  H12B15224   2.512   1.755  11.199 -0.2689 -2.2385 -0.6079
  140SAPE   C1115225   2.556   1.781  10.985 -0.6059 -0.2189 -0.8508
  140SAPE  H11A15226   2.646   1.755  10.924  0.5691  2.3666 -0.3629
  140SAPE  H11B15227   2.542   1.890  10.970 -2.6635 -0.2607  0.4915
  140SAPE     P15228   2.297   1.741  10.943 -0.1898  0.0969  0.3761
  140SAPE   O1315229   2.219   1.636  11.014 -0.1459 -0.0522 -0.2586
  140SAPE   O1415230   2.292   1.878  10.998 -0.1479  0.3582  0.0811
  140SAPE   O1215231   2.448   1.698  10.934 -0.5698 -0.1995  0.7976
  140SAPE   O1115232   2.244   1.754  10.794  0.4079  0.0994 -0.4598
  140SAPE    C115233   2.302   1.675  10.685  0.1044 -0.0350 -0.4930
  140SAPE    HA15234   2.410   1.694  10.672  0.3482 -0.9590  0.0704
  140SAPE    HB15235   2.309   1.568  10.714  3.2342  0.4143  0.8172
  140SAPE    C215236   2.220   1.685  10.549 -0.7758 -0.4950 -0.2730
  140SAPE    HS15237   2.286   1.652  10.465  0.2220 -0.8199  0.6174
  140SAPE   O2115238   2.164   1.814  10.526  0.2061 -0.1851  0.1700
  140SAPE   C2115239   2.243   1.901  10.465  0.3582  0.5220 -0.8381
  140SAPE   O2215240   2.358   1.884  10.437  0.3989  0.0506  0.0003
  140SAPE   C2215241   2.173   2.030  10.441  0.2648  1.1218  0.6264
  140SAPE   H2R15242   2.104   2.060  10.523  0.3424  0.4836  0.9390
  140SAPE   H2S15243   2.248   2.112  10.433 -0.2286  1.5857  0.7380
  140SAPE    C315244   2.116   1.569  10.544  0.4981  0.4610  0.1206
  140SAPE    HX15245   2.042   1.579  10.627  0.1680 -1.2837  0.0517
  140SAPE    HY15246   2.170   1.473  10.557  1.1895  0.7117 -0.8404
  140SAPE   O3115247   2.037   1.568  10.416 -0.2621  0.5511  0.0368
  140SAPE   C3115248   2.096   1.498  10.318  0.4553  0.6097 -0.5877
  140SAPE   O3215249   2.201   1.436  10.329 -0.0235 -0.0817  0.0316
  140SAPE   C3215250   2.012   1.493  10.194  0.2637  0.1243 -0.2212
  140SAPE   H2X15251   1.943   1.407  10.205 -0.9001  0.8198 -1.6662
  140SAPE   H2Y15252   2.078   1.463  10.110 -1.9657  0.9437 -2.3895
  140SAPE   C2315253   2.101   2.008  10.306 -0.8990 -0.8126  0.0580
  140SAPE   H3R15254   2.015   1.943  10.333 -1.6342  1.0525  2.4964
  140SAPE   H3S15255   2.160   1.963  10.223 -1.5001 -0.5914 -0.5028
  140SAPE   C2415256   2.032   2.131  10.243  0.4689 -0.0834 -0.7026
  140SAPE   H4R15257   1.961   2.183  10.311  1.2759  1.0163 -0.6687
  140SAPE   H4S15258   1.973   2.092  10.157 -1.0253 -1.5575  0.9036
  140SAPE   C2515259   2.133   2.233  10.194  0.8899  0.0837  0.1473
  140SAPE   H5R15260   2.177   2.297  10.273  1.9500  1.4609 -1.4881
  140SAPE   C2615261   2.171   2.254  10.063 -0.1699  0.3703 -0.3530
  140SAPE   H6R15262   2.245   2.334  10.054  1.2477 -0.2489  3.8571
  140SAPE   C2715263   2.122   2.182   9.936 -0.4361  0.5978  0.0935
  140SAPE   H7R15264   2.029   2.129   9.967  1.1218 -1.8532  0.8375
  140SAPE   H7S15265   2.198   2.106   9.910 -1.9416 -2.1513  3.0008
  140SAPE   C2815266   2.084   2.275   9.822  0.6214  0.3857 -0.2078
  140SAPE   H8R15267   2.154   2.360   9.821  1.9801 -0.6881 -0.5421
  140SAPE   C2915268   1.979   2.271   9.744 -0.1470 -0.6762 -0.3896
  140SAPE   H9R15269   1.957   2.350   9.671 -1.8048  1.3969  2.1513
  140SAPE  C21015270   1.863   2.179   9.749  0.4950 -1.3803 -0.2074
  140SAPE  H10R15271   1.778   2.219   9.690  0.6332  1.5096  1.3729
  140SAPE  H10S15272   1.821   2.155   9.850 -1.3226  0.3757 -0.4832
  140SAPE  C21115273   1.908   2.048   9.689  0.3228 -0.1117 -0.2132
  140SAPE  H11R15274   1.967   1.982   9.754  1.4865 -2.0591 -3.0347
  140SAPE  C21215275   1.875   2.003   9.569  0.4936  0.3049 -0.2405
  140SAPE  H12R15276   1.913   1.905   9.537  1.2727  0.6411 -0.3636
  140SAPE  C21315277   1.793   2.076   9.458  0.1784  0.6739 -1.1986
  140SAPE  H13R15278   1.786   2.187   9.465 -2.2667  0.4846  0.8999
  140SAPE  H13S15279   1.687   2.048   9.475  0.8683 -1.3735  0.1966
  140SAPE  C21415280   1.825   2.020   9.320 -0.1381 -0.1531  0.1250
  140SAPE  H14R15281   1.865   1.917   9.320 -0.4071 -0.3016 -1.7736
  140SAPE  C21515282   1.827   2.086   9.209  0.1582 -0.2825  0.0165
  140SAPE  H15R15283   1.868   2.033   9.122  1.0670 -0.3172  0.4502
  140SAPE  C21615284   1.789   2.230   9.179  1.3318 -0.6359  0.0410
  140SAPE  H16R15285   1.870   2.278   9.120  1.0831 -0.2863 -0.0251
  140SAPE  H16S15286   1.772   2.294   9.268  0.1073  1.1378 -1.3728
  140SAPE  C21715287   1.659   2.238   9.087  0.9536 -0.7169  0.7064
  140SAPE  H17R15288   1.679   2.181   8.994 -1.1139 -0.7315  0.2356
  140SAPE  H17S15289   1.661   2.344   9.054 -0.7516 -0.4053  1.5210
  140SAPE  C21815290   1.527   2.195   9.150 -0.3839 -0.2678 -0.0001
  140SAPE  H18R15291   1.520   2.229   9.255 -3.2267 -2.5258  0.6783
  140SAPE  H18S15292   1.521   2.084   9.152  2.5698 -0.5401 -1.4380
  140SAPE  C21915293   1.414   2.254   9.075 -0.3945 -0.1557 -0.2687
  140SAPE  H19R15294   1.435   2.360   9.046 -1.5883 -0.1351 -1.1697
  140SAPE  H19S15295   1.318   2.253   9.131 -0.9729  1.3238 -1.1418
  140SAPE  C22015296   1.398   2.185   8.937  0.7374  0.2736 -0.5984
  140SAPE  H20R15297   1.356   2.088   8.972 -1.5475  0.9767 -1.1796
  140SAPE  H20S15298   1.498   2.178   8.891  0.6841 -0.1244 -0.6592
  140SAPE  H20T15299   1.320   2.227   8.870 -2.3046 -2.3121  1.0433
  140SAPE   C3315300   1.933   1.631  10.172  0.3685 -0.1411 -0.2792
  140SAPE   H3X15301   2.005   1.714  10.157  2.2659 -1.6513  0.0335
  140SAPE   H3Y15302   1.873   1.661  10.260  0.0059 -0.6652 -0.3410
  140SAPE   C3415303   1.844   1.635  10.045  0.5009  0.0041 -0.8566
  140SAPE   H4X15304   1.761   1.562  10.054  0.2719  0.4331  0.9305
  140SAPE   H4Y15305   1.908   1.612   9.957  1.3955 -2.2184  0.2984
  140SAPE   C3515306   1.790   1.782  10.026  0.1634  0.5798  0.3468
  140SAPE   H5X15307   1.882   1.833   9.988  0.6480  0.2032  0.9861
  140SAPE   H5Y15308   1.752   1.832  10.117 -1.8050  0.3231 -0.2849
  140SAPE   C3615309   1.683   1.785   9.916  0.2748 -0.2259  0.0622
  140SAPE   H6X15310   1.652   1.889   9.896 -0.8734 -1.1253 -3.5407
  140SAPE   H6Y15311   1.598   1.741   9.972  1.3817 -2.8013 -0.1244
  140SAPE   C3715312   1.729   1.721   9.787  0.0658 -0.4219  0.1782
  140SAPE   H7X15313   1.744   1.611   9.791  0.4298 -0.4581 -1.4877
  140SAPE   H7Y15314   1.825   1.769   9.762  0.3400 -1.3889 -0.7028
  140SAPE   C3815315   1.632   1.744   9.674  0.0737 -0.0153  0.1659
  140SAPE   H8X15316   1.637   1.849   9.637 -0.7429 -0.6973 -2.0896
  140SAPE   H8Y15317   1.535   1.726   9.725  0.7134  0.3908  1.5576
  140SAPE   C3915318   1.632   1.650   9.553  0.0837  0.1312 -0.3517
  140SAPE   H9X15319   1.580   1.555   9.578 -0.6750  0.3633 -1.0183
  140SAPE   H9Y15320   1.736   1.630   9.520  1.4120  1.7698  2.4148
  140SAPE  C31015321   1.564   1.704   9.429  0.0360 -0.1379  0.5670
  140SAPE  H10X15322   1.629   1.776   9.375  2.2513 -1.4395  1.3949
  140SAPE  H10Y15323   1.469   1.748   9.467 -1.5261 -1.5170 -1.4994
  140SAPE  C31115324   1.513   1.591   9.331 -0.4639  0.2329 -0.3082
  140SAPE  H11X15325   1.445   1.520   9.382  1.5111 -0.0310  2.1349
  140SAPE  H11Y15326   1.602   1.529   9.304  0.4004  0.9527  0.7873
  140SAPE  C31215327   1.461   1.648   9.203 -0.1809 -0.3039  0.0207
  140SAPE  H12X15328   1.515   1.743   9.185 -0.0465 -0.3899 -0.0300
  140SAPE  H12Y15329   1.355   1.674   9.226 -0.4199 -0.0626 -1.2950
  140SAPE  C31315330   1.485   1.559   9.077 -0.0447  0.0439 -0.5608
  140SAPE  H13X15331   1.465   1.451   9.098 -1.2704 -0.3872 -3.4975
  140SAPE  H13Y15332   1.589   1.561   9.038  0.6167 -1.5467  0.9753
  140SAPE  C31415333   1.392   1.601   8.960  0.3434 -0.8173  0.1576
  140SAPE  H14X15334   1.286   1.574   8.983 -0.7149  1.9142 -1.1015
  140SAPE  H14Y15335   1.414   1.528   8.879 -0.3297 -1.3591  0.4430
  140SAPE  C31515336   1.409   1.745   8.907 -0.6673 -0.4501 -0.3030
  140SAPE  H15X15337   1.513   1.762   8.870 -1.3388  1.8721 -1.3312
  140SAPE  H15Y15338   1.385   1.817   8.988  1.6000  0.6434 -0.5212
  140SAPE  C31615339   1.330   1.771   8.780  0.7750  0.2891 -0.6287
  140SAPE  H16X15340   1.225   1.749   8.809  1.8440  0.5164  4.2948
  140SAPE  H16Y15341   1.364   1.701   8.701  1.7456 -0.0836  0.1134
  140SAPE  C31715342   1.335   1.912   8.732  0.6155  0.3441 -0.1930
  140SAPE  H17X15343   1.438   1.953   8.730  1.3253 -1.2043  1.6568
  140SAPE  H17Y15344   1.275   1.968   8.806 -2.2253 -3.1515  0.4458
  140SAPE  C31815345   1.265   1.940   8.599 -0.3450 -0.2490  0.2535
  140SAPE  H18X15346   1.176   1.875   8.587  1.9394 -3.3110 -1.9636
  140SAPE  H18Y15347   1.334   1.924   8.513  0.9158  1.6152  0.8594
  140SAPE  H18Z15348   1.238   2.047   8.597  0.5219  0.0793  2.7110
  141SAPE     N15349   3.290   3.410  10.636  0.1485  0.1346  0.0317
  141SAPE   HN115350   3.219   3.485  10.626 -0.2110 -0.0936  0.8452
  141SAPE   HN215351   3.238   3.321  10.647  1.9328 -1.3233 -2.2348
  141SAPE   HN315352   3.329   3.417  10.732 -0.8270  1.1764  0.3681
  141SAPE   C1215353   3.389   3.415  10.514  0.6914 -0.0184 -0.6676
  141SAPE  H12A15354   3.326   3.424  10.423 -0.8329  1.0410  0.4369
  141SAPE  H12B15355   3.431   3.312  10.511  0.7573 -0.0074 -0.1795
  141SAPE   C1115356   3.490   3.530  10.525 -0.0334  0.5321 -0.0412
  141SAPE  H11A15357   3.548   3.534  10.431  0.5490 -0.0935  0.2751
  141SAPE  H11B15358   3.555   3.500  10.611 -3.0566 -0.7792  1.9450
  141SAPE     P15359   3.494   3.786  10.600  0.1360  0.0445  0.4741
  141SAPE   O1315360   3.421   3.840  10.719  0.1596 -0.3233  0.2203
  141SAPE   O1415361   3.638   3.767  10.629  1.0065 -0.1553  0.0102
  141SAPE   O1215362   3.427   3.651  10.558 -0.3494 -0.9186  0.7807
  141SAPE   O1115363   3.467   3.878  10.469  0.4556  0.0989 -0.2192
  141SAPE    C115364   3.338   3.924  10.437  0.1833 -0.6281  0.0650
  141SAPE    HA15365   3.279   3.956  10.526 -0.7268 -2.0851  0.0194
  141SAPE    HB15366   3.345   4.004  10.360 -0.6596 -0.2087  0.4156
  141SAPE    C215367   3.252   3.817  10.366 -0.1752  0.6096  0.0018
  141SAPE    HS15368   3.257   3.719  10.418 -0.0407 -0.2130 -1.5186
  141SAPE   O2115369   3.305   3.800  10.241 -0.0690  0.5466  0.7221
  141SAPE   C2115370   3.281   3.686  10.177 -0.6028  0.1672  0.0735
  141SAPE   O2215371   3.233   3.584  10.222  0.1255 -0.0909 -0.1333
  141SAPE   C2215372   3.319   3.708  10.027 -0.0552 -0.6583  0.1410
  141SAPE   H2R15373   3.275   3.797   9.977 -1.4170 -1.6087 -0.3939
  141SAPE   H2S15374   3.429   3.706  10.012 -0.2408 -0.7325 -1.3941
  141SAPE    C315375   3.096   3.857  10.368  0.2575  0.0549 -0.2828
  141SAPE    HX15376   3.092   3.963  10.335  1.4163  0.1918 -0.0277
  141SAPE    HY15377   3.060   3.853  10.473 -1.7753  1.7852 -0.8275
  141SAPE   O3115378   3.007   3.777  10.282 -0.0885 -0.0625  0.4910
  141SAPE   C3115379   2.899   3.719  10.331  0.1480 -1.2476  0.9850
  141SAPE   O3215380   2.852   3.745  10.442  0.4701  0.4724  0.1148
  141SAPE   C3215381   2.829   3.630  10.229  0.0283 -0.1698 -0.3606
  141SAPE   H2X15382   2.719   3.635  10.245  0.1202  0.2146  0.1818
  141SAPE   H2Y15383   2.868   3.527  10.248 -1.4416 -0.7680 -0.4549
  141SAPE   C2315384   3.276   3.589   9.937  0.0962 -0.1078 -0.2899
  141SAPE   H3R15385   3.168   3.562   9.932  0.7135 -2.5721 -1.8788
  141SAPE   H3S15386   3.327   3.497   9.972 -0.8987 -1.3435 -1.9143
  141SAPE   C2415387   3.312   3.613   9.789 -0.7484  0.1595  0.2756
  141SAPE   H4R15388   3.338   3.517   9.739 -4.1759 -1.5979  1.5105
  141SAPE   H4S15389   3.410   3.665   9.786 -0.3556 -0.5698  0.2257
  141SAPE   C2515390   3.201   3.672   9.705  0.8901 -0.5238 -0.1190
  141SAPE   H5R15391   3.120   3.727   9.754  0.1354 -0.3146 -1.5240
  141SAPE   C2615392   3.187   3.662   9.570  0.2256  0.2865 -0.0717
  141SAPE   H6R15393   3.097   3.699   9.519 -1.1816 -0.8063  1.5366
  141SAPE   C2715394   3.278   3.592   9.475 -0.3867  0.2884  0.4998
  141SAPE   H7R15395   3.355   3.530   9.526 -2.4775 -0.7947  2.5081
  141SAPE   H7S15396   3.318   3.673   9.410  0.3872  1.2865  2.1669
  141SAPE   C2815397   3.206   3.494   9.393 -0.1343 -0.5285 -0.1634
  141SAPE   H8R15398   3.156   3.410   9.442  1.6683 -0.5220  1.8281
  141SAPE   C2915399   3.206   3.490   9.258 -0.3465  0.6342 -0.0882
  141SAPE   H9R15400   3.165   3.400   9.209  0.4528  0.5005 -0.5444
  141SAPE  C21015401   3.285   3.578   9.166 -0.6227  0.3152  1.1347
  141SAPE  H10R15402   3.304   3.679   9.207  1.9816  0.4444 -0.1680
  141SAPE  H10S15403   3.238   3.584   9.065  0.2776  2.8406  0.8029
  141SAPE  C21115404   3.419   3.518   9.143  0.0176  0.5691  0.3306
  141SAPE  H11R15405   3.496   3.563   9.207  0.2916 -0.8934  1.0714
  141SAPE  C21215406   3.454   3.429   9.049 -0.4778 -0.6123 -0.7069
  141SAPE  H12R15407   3.557   3.389   9.046  0.2524  0.8434  2.1581
  141SAPE  C21315408   3.359   3.370   8.948  0.5163  0.1247  0.3520
  141SAPE  H13R15409   3.254   3.372   8.984  0.1857  0.6503 -0.5982
  141SAPE  H13S15410   3.399   3.267   8.940  2.7585  0.9632  0.0948
  141SAPE  C21415411   3.371   3.430   8.812  0.4436  0.0643 -0.4616
  141SAPE  H14R15412   3.436   3.519   8.803 -0.1806  0.3685 -2.9125
  141SAPE  C21515413   3.297   3.405   8.706 -0.3594  0.5621  0.3917
  141SAPE  H15R15414   3.324   3.461   8.615  1.9456  0.5446  1.0092
  141SAPE  C21615415   3.180   3.311   8.690 -0.2833  0.1032 -0.0158
  141SAPE  H16R15416   3.136   3.289   8.789  1.4545 -3.4649  0.1283
  141SAPE  H16S15417   3.206   3.209   8.654  1.5120 -0.3823  2.4064
  141SAPE  C21715418   3.074   3.364   8.598  0.4674 -0.3338  0.1177
  141SAPE  H17R15419   3.047   3.466   8.632  1.3607 -0.7691  2.3209
  141SAPE  H17S15420   2.982   3.301   8.594  0.6646 -0.5723 -1.0674
  141SAPE  C21815421   3.136   3.369   8.458 -0.1738 -0.7864  0.7222
  141SAPE  H18R15422   3.193   3.275   8.441  4.0570  1.2714  2.0767
  141SAPE  H18S15423   3.215   3.447   8.447 -0.1089 -1.1047 -1.5303
  141SAPE  C21915424   3.042   3.383   8.340  0.3136 -0.4864 -0.0827
  141SAPE  H19R15425   2.969   3.467   8.346 -1.8353 -2.1736 -1.4942
  141SAPE  H19S15426   2.987   3.290   8.319 -1.9564  0.5900  0.7568
  141SAPE  C22015427   3.122   3.404   8.210 -0.5638 -0.0604  0.7210
  141SAPE  H20R15428   3.059   3.418   8.120 -0.0594 -0.1589  0.3500
  141SAPE  H20S15429   3.182   3.312   8.193 -0.8661  0.0150 -0.9354
  141SAPE  H20T15430   3.192   3.491   8.205 -0.5703 -0.0912  0.0293
  141SAPE   C3315431   2.865   3.658  10.080  0.0196  0.8054  0.5250
  141SAPE   H3X15432   2.974   3.669  10.063 -0.4314  0.4911 -3.7481
  141SAPE   H3Y15433   2.810   3.747  10.042 -0.5907 -0.1333 -0.8702
  141SAPE   C3415434   2.818   3.543   9.989 -0.1515  0.2533 -0.4570
  141SAPE   H4X15435   2.708   3.552   9.993 -0.1886 -0.4356  0.2006
  141SAPE   H4Y15436   2.833   3.439  10.023 -1.0051  0.8744  2.0258
  141SAPE   C3515437   2.874   3.557   9.844 -0.2748 -0.5897  0.0583
  141SAPE   H5X15438   2.985   3.557   9.848 -0.2551 -1.5920 -0.2395
  141SAPE   H5Y15439   2.838   3.659   9.817  0.8433  0.1664  1.2937
  141SAPE   C3615440   2.818   3.451   9.745 -0.5944  0.0340  0.0327
  141SAPE   H6X15441   2.716   3.418   9.773  0.3374 -1.6350  1.6838
  141SAPE   H6Y15442   2.875   3.356   9.756  0.0907  0.0375 -2.7006
  141SAPE   C3715443   2.834   3.481   9.594 -0.1335 -0.1597  0.3505
  141SAPE   H7X15444   2.933   3.527   9.571 -0.9841  1.2005 -0.7908
  141SAPE   H7Y15445   2.769   3.568   9.568 -0.5338 -0.1241  1.4235
  141SAPE   C3815446   2.793   3.358   9.503 -0.0191  0.5466  0.2598
  141SAPE   H8X15447   2.691   3.328   9.536 -0.2187  1.4367  0.4774
  141SAPE   H8Y15448   2.857   3.277   9.544 -0.2513 -0.7804 -1.8625
  141SAPE   C3915449   2.820   3.380   9.356  0.6937  0.5047 -0.1794
  141SAPE   H9X15450   2.929   3.397   9.352  0.5121  1.8514  0.2639
  141SAPE   H9Y15451   2.777   3.480   9.332  1.3735  0.9370  0.3742
  141SAPE  C31015452   2.791   3.262   9.268  0.3974 -0.2594 -0.4883
  141SAPE  H10X15453   2.681   3.248   9.258  0.6326 -2.1480 -0.8002
  141SAPE  H10Y15454   2.840   3.183   9.329  0.2799  0.9512  1.2465
  141SAPE  C31115455   2.852   3.273   9.133  0.7491  0.1257  0.0504
  141SAPE  H11X15456   2.961   3.291   9.145  0.4654  0.6120  2.3371
  141SAPE  H11Y15457   2.805   3.361   9.084 -2.3355  0.2404  2.9178
  141SAPE  C31215458   2.814   3.151   9.056 -0.2291  0.7923  0.1115
  141SAPE  H12X15459   2.710   3.111   9.055  0.3892 -0.9211 -1.1221
  141SAPE  H12Y15460   2.868   3.065   9.101 -1.0896  0.7305  1.0630
  141SAPE  C31315461   2.852   3.169   8.905  0.1754  0.1130  0.5280
  141SAPE  H13X15462   2.864   3.073   8.850 -0.3846 -0.0561  0.6942
  141SAPE  H13Y15463   2.950   3.220   8.916  1.8682 -3.3382  3.7187
  141SAPE  C31415464   2.751   3.255   8.834 -0.1529  0.1044  0.2743
  141SAPE  H14X15465   2.785   3.252   8.728 -2.2769 -0.6949 -0.4493
  141SAPE  H14Y15466   2.733   3.361   8.862 -1.4273  0.2252 -0.9026
  141SAPE  C31515467   2.612   3.196   8.834 -0.9198 -0.3134 -0.0942
  141SAPE  H15X15468   2.561   3.213   8.932  1.2989 -0.2495  1.1103
  141SAPE  H15Y15469   2.608   3.088   8.808  1.2769 -1.1137  2.4535
  141SAPE  C31615470   2.532   3.270   8.725  0.0211 -0.2433 -0.1623
  141SAPE  H16X15471   2.595   3.337   8.663 -1.8327  0.2953 -1.5659
  141SAPE  H16Y15472   2.455   3.343   8.759  0.4594  0.3861 -0.5172
  141SAPE  C31715473   2.470   3.172   8.625 -0.0780 -0.2423 -0.2636
  141SAPE  H17X15474   2.410   3.100   8.683  0.4063 -0.8740 -0.5364
  141SAPE  H17Y15475   2.554   3.114   8.581  1.1635 -0.7284  2.5606
  141SAPE  C31815476   2.380   3.229   8.506  0.6479 -0.0095 -0.2658
  141SAPE  H18X15477   2.432   3.314   8.457  0.9809 -0.6674 -1.0713
  141SAPE  H18Y15478   2.283   3.264   8.549  0.2392  0.1895 -1.3126
  141SAPE  H18Z15479   2.355   3.156   8.426  0.7507 -1.8416  1.3074
  142SAPE     N15480   3.944   1.332  10.938  0.1308 -0.0703 -0.6468
  142SAPE   HN115481   3.932   1.433  10.920 -1.2021  0.5402  2.8532
  142SAPE   HN215482   4.042   1.301  10.917  1.4710  2.5376  1.2054
  142SAPE   HN315483   3.873   1.272  10.891 -0.2910  1.3679 -1.9216
  142SAPE   C1215484   3.913   1.330  11.085 -0.0389 -0.1469  0.0031
  142SAPE  H12A15485   3.968   1.416  11.131 -1.3247  0.8998 -0.3379
  142SAPE  H12B15486   3.945   1.230  11.121 -3.3639 -1.6018 -0.7140
  142SAPE   C1115487   3.762   1.358  11.104 -0.7812  0.2036 -0.0679
  142SAPE  H11A15488   3.756   1.326  11.210  0.7692 -1.3056 -0.4040
  142SAPE  H11B15489   3.696   1.298  11.038  0.8912  1.1533 -2.7269
  142SAPE     P15490   3.602   1.561  11.077 -0.4418  0.1778  0.4457
  142SAPE   O1315491   3.545   1.540  11.213 -0.2442 -0.0957 -0.5568
  142SAPE   O1415492   3.624   1.706  11.039 -0.5746 -0.5505  0.3763
  142SAPE   O1215493   3.742   1.496  11.088 -0.2519 -0.3317 -0.0578
  142SAPE   O1115494   3.515   1.475  10.970 -0.0489  0.1957  0.2636
  142SAPE    C115495   3.561   1.454  10.832  0.4407 -0.7005 -0.5562
  142SAPE    HA15496   3.672   1.449  10.828  0.6114  1.0241  0.9270
  142SAPE    HB15497   3.527   1.352  10.803  0.2777 -0.7923 -0.0368
  142SAPE    C215498   3.492   1.565  10.757  0.4376 -0.8923  0.0983
  142SAPE    HS15499   3.520   1.660  10.807 -1.8794 -0.2258  0.2224
  142SAPE   O2115500   3.349   1.541  10.765 -0.0538 -0.7318  0.1472
  142SAPE   C2115501   3.279   1.661  10.751 -0.1520 -0.3023  0.5808
  142SAPE   O2215502   3.325   1.770  10.729  0.0040 -0.3392 -0.2424
  142SAPE   C2215503   3.135   1.623  10.779 -0.0507  0.1806  0.1899
  142SAPE   H2R15504   3.118   1.531  10.719 -1.8699  1.0408 -0.6984
  142SAPE   H2S15505   3.141   1.594  10.886  3.8251  0.5925  0.2117
  142SAPE    C315506   3.551   1.564  10.611 -0.8688  0.4258  0.9955
  142SAPE    HX15507   3.572   1.461  10.575  1.1668  1.1633 -0.1234
  142SAPE    HY15508   3.653   1.604  10.629 -0.2032 -0.3967 -0.7386
  142SAPE   O3115509   3.474   1.626  10.508 -0.6819 -0.3688  0.2979
  142SAPE   C3115510   3.506   1.750  10.491  0.1871  0.0594 -0.3036
  142SAPE   O3215511   3.604   1.815  10.530 -0.6871  0.7432 -0.0863
  142SAPE   C3215512   3.392   1.809  10.405 -0.6629  0.1619 -0.4561
  142SAPE   H2X15513   3.337   1.866  10.483 -1.3911 -2.3156  0.9611
  142SAPE   H2Y15514   3.322   1.727  10.377 -0.0898 -0.3583 -0.3819
  142SAPE   C2315515   3.036   1.732  10.741  0.3117  0.0402 -0.3302
  142SAPE   H3R15516   3.048   1.821  10.806 -1.8775 -0.8951  1.4848
  142SAPE   H3S15517   2.935   1.696  10.771  0.3285 -0.4829 -0.8757
  142SAPE   C2415518   3.026   1.757  10.588  0.2910  0.3146 -0.7057
  142SAPE   H4R15519   2.993   1.658  10.548 -1.5796  0.1060  1.1479
  142SAPE   H4S15520   3.127   1.759  10.542 -0.2501 -0.3800 -1.9654
  142SAPE   C2515521   2.930   1.873  10.554 -0.5829  0.2036 -0.0838
  142SAPE   H5R15522   2.892   1.930  10.641 -1.2648  0.0895 -0.3005
  142SAPE   C2615523   2.891   1.887  10.427 -0.1383 -0.0712 -0.2381
  142SAPE   H6R15524   2.822   1.971  10.407  1.9244  2.2192  1.6447
  142SAPE   C2715525   2.931   1.807  10.302  0.0949 -0.4277 -0.3216
  142SAPE   H7R15526   2.849   1.801  10.227 -0.8284  1.4629  0.4698
  142SAPE   H7S15527   2.949   1.702  10.335 -0.6858 -0.1907  0.9233
  142SAPE   C2815528   3.053   1.854  10.239 -0.2596  0.3145 -0.9561
  142SAPE   H8R15529   3.114   1.918  10.305  1.7081 -2.0460 -0.3425
  142SAPE   C2915530   3.104   1.827  10.115 -0.0838  0.0962 -0.0835
  142SAPE   H9R15531   3.207   1.859  10.091  1.2351 -1.8672  2.4404
  142SAPE  C21015532   3.039   1.729  10.013 -0.0418  0.0062  0.7144
  142SAPE  H10R15533   2.942   1.684  10.045  1.2925 -1.2634  3.1931
  142SAPE  H10S15534   3.093   1.633  10.002  2.0211  1.1173  0.5424
  142SAPE  C21115535   3.038   1.787   9.874  0.0546 -1.3873 -0.6479
  142SAPE  H11R15536   3.127   1.772   9.811  1.4809  0.5326  0.8056
  142SAPE  C21215537   2.937   1.855   9.816  0.2411  0.1580  0.0432
  142SAPE  H12R15538   2.937   1.899   9.716  0.0590 -1.4966 -0.7098
  142SAPE  C21315539   2.803   1.883   9.880  0.5087  0.3429  0.1353
  142SAPE  H13R15540   2.809   1.870   9.991  1.3118  2.8467  0.4414
  142SAPE  H13S15541   2.727   1.806   9.854  0.1861  0.0246  1.8798
  142SAPE  C21415542   2.753   2.023   9.855  0.7235 -0.3613  0.5920
  142SAPE  H14R15543   2.812   2.111   9.884 -1.4656  0.5943  2.4496
  142SAPE  C21515544   2.635   2.060   9.791 -0.2629 -0.2383 -0.4368
  142SAPE  H15R15545   2.635   2.165   9.760  1.7684 -0.0215  0.1487
  142SAPE  C21615546   2.532   1.968   9.732  0.3820 -0.1203 -0.0094
  142SAPE  H16R15547   2.438   2.025   9.748  2.0294  3.0412 -0.6376
  142SAPE  H16S15548   2.532   1.874   9.792 -0.3434  0.8937  1.6506
  142SAPE  C21715549   2.542   1.932   9.582 -0.1419  0.1423 -0.2158
  142SAPE  H17R15550   2.544   2.027   9.523  0.0793 -0.1908 -0.7513
  142SAPE  H17S15551   2.453   1.868   9.562  0.2854 -1.2690  2.0672
  142SAPE  C21815552   2.662   1.845   9.544  0.3913  0.1088  0.2782
  142SAPE  H18R15553   2.649   1.742   9.585 -0.0843 -0.1136 -0.4132
  142SAPE  H18S15554   2.751   1.888   9.595  0.4694 -1.2763  1.3832
  142SAPE  C21915555   2.698   1.854   9.398 -0.0159  0.2098  0.3814
  142SAPE  H19R15556   2.806   1.834   9.386 -0.2494 -0.5588 -0.5818
  142SAPE  H19S15557   2.677   1.955   9.356 -2.9460 -0.9739 -1.3479
  142SAPE  C22015558   2.626   1.741   9.312  0.0871 -0.2350 -0.1060
  142SAPE  H20R15559   2.521   1.778   9.321 -0.0815 -1.1092  2.4053
  142SAPE  H20S15560   2.647   1.639   9.353 -1.6439 -0.2633  0.8193
  142SAPE  H20T15561   2.651   1.733   9.205 -1.8168  0.0914 -0.6205
  142SAPE   C3315562   3.438   1.900  10.294 -0.6602 -0.1341  0.6576
  142SAPE   H3X15563   3.516   1.970  10.332 -1.1650 -0.3801  2.2495
  142SAPE   H3Y15564   3.354   1.964  10.259 -0.6129 -0.2354  0.3555
  142SAPE   C3415565   3.503   1.829  10.173 -0.2297  0.8904  0.7639
  142SAPE   H4X15566   3.431   1.748  10.149  1.9985 -0.5891 -1.4732
  142SAPE   H4Y15567   3.601   1.791  10.211  0.1869  2.3141  1.1611
  142SAPE   C3515568   3.513   1.914  10.043 -0.1717  0.5888  0.0807
  142SAPE   H5X15569   3.564   2.007  10.075 -2.7014  1.8282  0.8213
  142SAPE   H5Y15570   3.406   1.932  10.018 -0.7187 -1.6177  0.6100
  142SAPE   C3615571   3.572   1.842   9.916  0.7140  0.2659 -0.2196
  142SAPE   H6X15572   3.527   1.740   9.916 -1.2008  1.0718 -0.9239
  142SAPE   H6Y15573   3.682   1.843   9.930  0.8464  2.0961 -1.1412
  142SAPE   C3715574   3.530   1.923   9.789 -0.2439 -0.0909 -0.2435
  142SAPE   H7X15575   3.570   2.025   9.807  0.5088 -0.0798 -1.8201
  142SAPE   H7Y15576   3.422   1.928   9.764  0.0264 -2.1276 -2.1411
  142SAPE   C3815577   3.603   1.871   9.667 -0.3043 -0.2222 -0.8139
  142SAPE   H8X15578   3.707   1.838   9.685 -0.4181 -0.8016 -1.2058
  142SAPE   H8Y15579   3.613   1.953   9.593 -1.2169 -1.1932 -2.0627
  142SAPE   C3915580   3.527   1.765   9.594  0.0790  0.5347  0.5424
  142SAPE   H9X15581   3.427   1.806   9.569 -1.3372 -1.7587  2.1552
  142SAPE   H9Y15582   3.497   1.677   9.654 -0.3568  0.0870 -0.3157
  142SAPE  C31015583   3.594   1.720   9.459 -0.2164 -0.1149  0.1363
  142SAPE  H10X15584   3.648   1.802   9.406  0.1496 -0.7112 -0.4368
  142SAPE  H10Y15585   3.505   1.680   9.407 -1.0166  1.4583  0.2418
  142SAPE  C31115586   3.700   1.615   9.487  0.4004  0.3001 -0.5647
  142SAPE  H11X15587   3.673   1.534   9.558 -0.1734  0.9505 -0.0200
  142SAPE  H11Y15588   3.781   1.665   9.544  0.1725  0.3655 -0.2939
  142SAPE  C31215589   3.760   1.558   9.359  0.8088 -0.4310  0.5515
  142SAPE  H12X15590   3.866   1.529   9.376  0.7365 -1.2963 -0.3478
  142SAPE  H12Y15591   3.759   1.641   9.285  1.4101  0.1423  1.1782
  142SAPE  C31315592   3.686   1.437   9.309 -0.0940  0.0631  0.0754
  142SAPE  H13X15593   3.580   1.468   9.300  0.7135  4.0662  2.1905
  142SAPE  H13Y15594   3.689   1.354   9.382  0.0032 -2.3936 -2.5582
  142SAPE  C31415595   3.728   1.396   9.169  0.7548 -0.0308  0.2973
  142SAPE  H14X15596   3.838   1.382   9.179  0.6956  0.5119  2.2398
  142SAPE  H14Y15597   3.712   1.493   9.118  1.0608  0.4980  1.1742
  142SAPE  C31515598   3.649   1.282   9.109  0.5451 -0.1901 -0.3338
  142SAPE  H15X15599   3.542   1.312   9.116  0.5625  0.6143 -2.5888
  142SAPE  H15Y15600   3.650   1.197   9.180  1.9378  0.9570  1.0861
  142SAPE  C31615601   3.687   1.235   8.974 -0.2557  0.2295 -0.2117
  142SAPE  H16X15602   3.795   1.256   8.958  0.1852  0.1495  2.2649
  142SAPE  H16Y15603   3.633   1.288   8.893 -0.6667  0.7476  0.3912
  142SAPE  C31715604   3.667   1.084   8.967 -0.5533  0.0940  0.0023
  142SAPE  H17X15605   3.565   1.065   9.008 -0.6292  1.7808  0.6842
  142SAPE  H17Y15606   3.735   1.030   9.036  0.3868  1.0890 -0.1197
  142SAPE  C31815607   3.690   1.037   8.828  0.3809 -0.3962  0.6315
  142SAPE  H18X15608   3.629   1.104   8.764 -0.7650 -1.0559  1.0139
  142SAPE  H18Y15609   3.645   0.936   8.813 -1.4050  0.5366 -0.7503
  142SAPE  H18Z15610   3.797   1.042   8.797  0.1802  3.3428  0.1178
  143SAPE     N15611   4.503   0.825  11.069 -0.8702  0.0221 -0.0291
  143SAPE   HN115612   4.509   0.801  11.170 -0.5845  0.3542  0.0337
  143SAPE   HN215613   4.401   0.821  11.050 -0.7770 -0.1917 -0.5079
  143SAPE   HN315614   4.552   0.749  11.017 -1.3600 -0.9422  0.8693
  143SAPE   C1215615   4.561   0.962  11.066 -0.2117 -0.6332  0.7668
  143SAPE  H12A15616   4.670   0.945  11.070 -0.1463 -0.6466 -0.6241
  143SAPE  H12B15617   4.522   1.018  11.154  1.6872  3.1562 -0.5679
  143SAPE   C1115618   4.526   1.047  10.937 -0.4944  0.0271  0.1815
  143SAPE  H11A15619   4.567   0.975  10.863 -0.9798 -0.1410  0.0721
  143SAPE  H11B15620   4.586   1.139  10.919  0.4541 -0.1517  2.1667
  143SAPE     P15621   4.321   1.188  10.943 -0.0975  0.1100  0.0816
  143SAPE   O1315622   4.178   1.187  10.914  0.4201  0.1394 -0.5442
  143SAPE   O1415623   4.357   1.212  11.086 -0.8431 -0.2481  0.3426
  143SAPE   O1215624   4.385   1.056  10.904  0.6580  1.1785  0.0060
  143SAPE   O1115625   4.401   1.292  10.848  0.3373  0.9199 -0.1614
  143SAPE    C115626   4.400   1.265  10.706  0.2035  0.1559  0.0127
  143SAPE    HA15627   4.492   1.304  10.657  0.9195 -1.0663  0.3492
  143SAPE    HB15628   4.393   1.157  10.683 -1.6075  0.4158 -0.8714
  143SAPE    C215629   4.286   1.341  10.628  0.4769 -0.7504  0.7289
  143SAPE    HS15630   4.193   1.280  10.633 -0.3995  0.3628 -1.0823
  143SAPE   O2115631   4.331   1.369  10.496 -0.0082  0.3221 -0.0054
  143SAPE   C2115632   4.346   1.256  10.425  0.5616  0.0145  0.3411
  143SAPE   O2215633   4.326   1.140  10.457 -0.3404 -0.0377  0.3615
  143SAPE   C2215634   4.396   1.300  10.286  0.2510  0.0766  0.4332
  143SAPE   H2R15635   4.325   1.361  10.226 -2.3197 -1.6060  1.5601
  143SAPE   H2S15636   4.488   1.361  10.298  0.3021 -0.1215  1.1001
  143SAPE    C315637   4.264   1.472  10.704  0.1471 -1.2214  0.2784
  143SAPE    HX15638   4.358   1.525  10.729 -0.6052 -0.7074  2.1380
  143SAPE    HY15639   4.210   1.458  10.800 -2.2382 -1.1141 -0.9511
  143SAPE   O3115640   4.182   1.565  10.629  0.1036  0.0760 -0.0722
  143SAPE   C3115641   4.053   1.541  10.625 -0.1529 -0.0464 -0.1291
  143SAPE   O3215642   4.000   1.437  10.669  0.1423  0.4368 -0.1618
  143SAPE   C3215643   3.983   1.666  10.566 -0.7176 -0.6090  0.0096
  143SAPE   H2X15644   4.057   1.746  10.547 -1.0085 -0.3477 -0.0398
  143SAPE   H2Y15645   3.914   1.701  10.646 -0.9809  0.5640 -0.7076
  143SAPE   C2315646   4.414   1.175  10.193 -0.5456  0.5803 -0.1658
  143SAPE   H3R15647   4.323   1.116  10.219  0.5924 -1.0363  0.2754
  143SAPE   H3S15648   4.499   1.110  10.222  2.6812  2.8285 -3.6114
  143SAPE   C2415649   4.408   1.208  10.045 -0.3198 -0.1668 -0.2351
  143SAPE   H4R15650   4.319   1.262  10.008  1.7131  1.9113 -2.5356
  143SAPE   H4S15651   4.402   1.115   9.984  1.5413  0.2460 -1.1288
  143SAPE   C2515652   4.513   1.299  10.009  0.1624  0.0758  0.0424
  143SAPE   H5R15653   4.491   1.406  10.025  0.0680  0.0432  0.1332
  143SAPE   C2615654   4.643   1.278   9.975 -0.1624  1.3581 -0.4763
  143SAPE   H6R15655   4.709   1.354   9.932  0.1985  0.1436 -2.1801
  143SAPE   C2715656   4.701   1.136   9.960 -0.5145 -1.4183 -0.3138
  143SAPE   H7R15657   4.627   1.070   9.909 -0.6267  0.1467 -2.2931
  143SAPE   H7S15658   4.741   1.097  10.056  3.5195  2.5712 -0.0337
  143SAPE   C2815659   4.827   1.141   9.885 -0.3077 -0.3488  0.4595
  143SAPE   H8R15660   4.914   1.172   9.944  0.0244 -0.4544  0.0311
  143SAPE   C2915661   4.844   1.113   9.754  0.2534 -0.2310  0.3775
  143SAPE   H9R15662   4.944   1.123   9.710  1.1195 -3.2740  1.4408
  143SAPE  C21015663   4.730   1.074   9.664 -0.4323 -0.5211 -0.2813
  143SAPE  H10R15664   4.721   1.146   9.580 -1.2080 -1.6858 -1.2201
  143SAPE  H10S15665   4.632   1.095   9.713  0.5796  0.0715  1.6137
  143SAPE  C21115666   4.726   0.936   9.612  0.2688 -0.3274  0.2448
  143SAPE  H11R15667   4.709   0.861   9.690 -1.2955  1.2425  1.4737
  143SAPE  C21215668   4.736   0.882   9.489 -0.0964  0.0657  0.0453
  143SAPE  H12R15669   4.736   0.772   9.481  0.5477  0.0418  0.3113
  143SAPE  C21315670   4.754   0.954   9.356 -0.1370  0.7598  0.4328
  143SAPE  H13R15671   4.829   0.895   9.299  0.9984  1.9808  0.6231
  143SAPE  H13S15672   4.804   1.052   9.371  1.3369 -0.1245  1.5231
  143SAPE  C21415673   4.626   0.969   9.277 -0.0392 -0.0439 -0.1844
  143SAPE  H14R15674   4.550   1.032   9.326  2.6497  3.1662  0.2969
  143SAPE  C21515675   4.596   0.918   9.153  0.0641  0.0050  0.4348
  143SAPE  H15R15676   4.494   0.934   9.115  0.7457 -0.2854 -1.6782
  143SAPE  C21615677   4.684   0.834   9.065 -0.8166 -0.0124 -0.5773
  143SAPE  H16R15678   4.777   0.802   9.115  0.0100  0.4538 -1.7623
  143SAPE  H16S15679   4.707   0.883   8.968  1.6694  1.2754  0.5561
  143SAPE  C21715680   4.599   0.700   9.047  0.3279 -0.1660 -0.4152
  143SAPE  H17R15681   4.667   0.625   9.000  1.6934 -0.1526  1.4404
  143SAPE  H17S15682   4.503   0.724   8.997  0.2375  3.2410  1.1310
  143SAPE  C21815683   4.575   0.626   9.183 -0.4980  0.3711 -0.1866
  143SAPE  H18R15684   4.490   0.677   9.233  0.7805  0.9695  1.4463
  143SAPE  H18S15685   4.655   0.630   9.259  0.6191  2.0514 -1.3619
  143SAPE  C21915686   4.531   0.482   9.160  0.0720  0.2137  0.0136
  143SAPE  H19R15687   4.621   0.429   9.121  0.6907  0.2837  1.3108
  143SAPE  H19S15688   4.453   0.474   9.082  0.8987  1.1204 -0.9471
  143SAPE  C22015689   4.507   0.414   9.293 -0.4613 -0.2218  0.1811
  143SAPE  H20R15690   4.603   0.397   9.346 -0.3281  2.1411  0.8245
  143SAPE  H20S15691   4.457   0.316   9.279 -0.5667  0.1496 -2.7257
  143SAPE  H20T15692   4.447   0.483   9.356 -0.5418  0.2256 -0.3727
  143SAPE   C3315693   3.902   1.639  10.440 -0.0623  0.2099  0.0920
  143SAPE   H3X15694   3.827   1.717  10.415  1.0244  1.6193  1.1022
  143SAPE   H3Y15695   3.839   1.550  10.459 -0.5712  0.6464  0.4575
  143SAPE   C3415696   3.997   1.608  10.320  0.4491 -0.5847 -0.0612
  143SAPE   H4X15697   4.083   1.554  10.366 -1.8146 -1.5193  3.4722
  143SAPE   H4Y15698   4.027   1.700  10.266 -0.7696 -0.1760 -0.0644
  143SAPE   C3515699   3.932   1.521  10.213 -0.4118 -0.1808  0.7134
  143SAPE   H5X15700   3.854   1.579  10.158  0.8347 -0.8809 -1.9551
  143SAPE   H5Y15701   3.871   1.442  10.262 -2.1959 -0.4832 -1.8049
  143SAPE   C3615702   4.027   1.450  10.111 -0.1272  0.0606 -0.1095
  143SAPE   H6X15703   4.102   1.389  10.166 -0.8017 -0.0052  0.7725
  143SAPE   H6Y15704   4.081   1.529  10.056  1.4791 -1.5038 -0.8879
  143SAPE   C3715705   3.953   1.367  10.008 -0.0092  0.0929  0.0072
  143SAPE   H7X15706   3.884   1.291  10.051 -0.9924  0.9678  0.0393
  143SAPE   H7Y15707   4.035   1.340   9.939  1.1794  2.1566  0.5314
  143SAPE   C3815708   3.862   1.453   9.923  0.4009  1.1073 -0.2119
  143SAPE   H8X15709   3.921   1.540   9.887  1.9763 -0.3575 -1.3522
  143SAPE   H8Y15710   3.775   1.488   9.982 -1.7202 -0.7307 -2.0645
  143SAPE   C3915711   3.825   1.370   9.793 -0.3004  0.1401  0.0618
  143SAPE   H9X15712   3.907   1.297   9.775  0.1185  0.4605  0.6165
  143SAPE   H9Y15713   3.820   1.435   9.704  0.5412  0.4137  0.2028
  143SAPE  C31015714   3.693   1.285   9.812  0.0760 -0.0559 -0.7306
  143SAPE  H10X15715   3.618   1.333   9.879 -0.2257 -1.4168 -0.0414
  143SAPE  H10Y15716   3.726   1.201   9.876 -0.1478 -1.8244 -2.8310
  143SAPE  C31115717   3.613   1.246   9.684 -0.1894 -0.0471  0.8719
  143SAPE  H11X15718   3.598   1.339   9.625 -1.0835 -0.0194  1.1284
  143SAPE  H11Y15719   3.512   1.213   9.715 -0.9502  1.0249 -0.3963
  143SAPE  C31215720   3.685   1.127   9.612  0.0439  1.5579 -0.0109
  143SAPE  H12X15721   3.670   1.037   9.676  0.5226  1.9774  0.7015
  143SAPE  H12Y15722   3.792   1.150   9.594  0.3989  2.4267  2.7182
  143SAPE  C31315723   3.607   1.088   9.484  0.5082 -0.1127  0.2138
  143SAPE  H13X15724   3.562   1.174   9.431  1.8896 -1.3783 -3.3115
  143SAPE  H13Y15725   3.514   1.035   9.513 -0.4907  0.3748 -1.9005
  143SAPE  C31415726   3.689   1.020   9.373 -0.5161  0.0493 -0.2169
  143SAPE  H14X15727   3.769   1.092   9.348 -0.1222  1.1706  3.6568
  143SAPE  H14Y15728   3.624   1.005   9.284 -1.5504  2.9108 -0.0564
  143SAPE  C31515729   3.757   0.884   9.408 -0.2181  0.6546 -0.4077
  143SAPE  H15X15730   3.827   0.911   9.490 -0.2321  2.3015 -0.8956
  143SAPE  H15Y15731   3.831   0.849   9.333 -1.5526 -0.7546 -1.1151
  143SAPE  C31615732   3.659   0.767   9.441  0.4404 -0.1397  0.2430
  143SAPE  H16X15733   3.610   0.725   9.351  1.1338 -0.8255  0.1739
  143SAPE  H16Y15734   3.590   0.796   9.524 -0.9822 -1.6084 -0.3772
  143SAPE  C31715735   3.738   0.642   9.499 -0.5570  1.3180 -0.1971
  143SAPE  H17X15736   3.798   0.674   9.587 -0.8576 -0.4592  0.6981
  143SAPE  H17Y15737   3.809   0.612   9.418  1.3582  2.4317  0.9827
  143SAPE  C31815738   3.658   0.515   9.538 -0.3530 -0.1774  0.0419
  143SAPE  H18X15739   3.721   0.424   9.541  0.2074  0.1303 -1.4592
  143SAPE  H18Y15740   3.570   0.502   9.472 -1.0096 -0.7848  1.0145
  143SAPE  H18Z15741   3.624   0.528   9.643 -0.9323  0.1848 -0.1855
  144SAPE     N15742   0.223   0.216  10.661 -0.0487  0.4684  0.8886
  144SAPE   HN115743   0.122   0.198  10.678 -0.2769  2.0938  1.4807
  144SAPE   HN215744   0.260   0.275  10.739 -0.7432  0.7433  1.0217
  144SAPE   HN315745   0.229   0.270  10.573  0.6697  1.1343  1.3263
  144SAPE   C1215746   0.308   0.094  10.667 -0.6558  0.5224 -0.1686
  144SAPE  H12A15747   0.415   0.111  10.641 -0.3149  0.7525  1.2701
  144SAPE  H12B15748   0.281   0.023  10.586  2.0757 -0.8955  0.0209
  144SAPE   C1115749   0.299   0.029  10.808 -0.4179  0.0671  0.2211
  144SAPE  H11A15750   0.351   0.095  10.881  2.4018 -0.6094 -1.0540
  144SAPE  H11B15751   0.361  -0.062  10.825 -0.2593  0.1185 -0.0678
  144SAPE     P15752   0.098  -0.140  10.850  0.0958 -0.2238  0.0967
  144SAPE   O1315753   0.154  -0.220  10.960  0.4377 -0.1605  0.1091
  144SAPE   O1415754  -0.053  -0.125  10.857 -0.0522  0.0158  0.0612
  144SAPE   O1215755   0.167   0.002  10.857 -0.1465  0.1703  0.2728
  144SAPE   O1115756   0.139  -0.196  10.706 -0.1794 -0.3005 -0.2205
  144SAPE    C115757   0.066  -0.149  10.593  0.4595 -0.8658 -0.4625
  144SAPE    HA15758  -0.041  -0.174  10.609 -0.0920  0.8532 -1.2559
  144SAPE    HB15759   0.090  -0.042  10.576  0.6679 -0.8191  0.1111
  144SAPE    C215760   0.107  -0.224  10.463 -0.2995  0.1323 -0.3191
  144SAPE    HS15761   0.071  -0.330  10.462  1.6927 -0.5916 -0.3193
  144SAPE   O2115762   0.255  -0.228  10.464 -0.0886 -0.3228  0.4346
  144SAPE   C2115763   0.314  -0.322  10.398  0.0943  0.6260  0.0233
  144SAPE   O2215764   0.258  -0.419  10.348 -0.1782  0.4769  0.4192
  144SAPE   C2215765   0.462  -0.285  10.386  0.2818 -0.5622  0.6208
  144SAPE   H2R15766   0.465  -0.174  10.380 -2.6400 -0.4533 -0.7181
  144SAPE   H2S15767   0.521  -0.308  10.477  0.3791  0.8527  0.9336
  144SAPE    C315768   0.061  -0.150  10.328 -0.2964 -0.6093 -0.1725
  144SAPE    HX15769   0.122  -0.057  10.328  1.0966 -1.4885  1.0248
  144SAPE    HY15770  -0.043  -0.112  10.342 -0.4519 -1.0216 -0.1741
  144SAPE   O3115771   0.086  -0.221  10.199 -0.5454 -0.7226 -0.7329
  144SAPE   C3115772  -0.023  -0.292  10.162  0.2478 -0.2328  0.0142
  144SAPE   O3215773  -0.122  -0.311  10.230  0.1562 -0.8240 -0.0125
  144SAPE   C3215774  -0.007  -0.341  10.016  0.6072  0.2579  0.1194
  144SAPE   H2X15775   0.098  -0.372  10.000  0.4030  0.3268 -1.4737
  144SAPE   H2Y15776  -0.025  -0.257   9.946 -0.9322  1.1571  1.5203
  144SAPE   C2315777   0.529  -0.352  10.263  0.1152 -0.3449  0.0991
  144SAPE   H3R15778   0.530  -0.462  10.280 -0.1968 -0.5313 -0.9790
  144SAPE   H3S15779   0.626  -0.304  10.241  0.3782  0.6446  3.0884
  144SAPE   C2415780   0.455  -0.338  10.124  0.5215  0.2503 -0.0680
  144SAPE   H4R15781   0.349  -0.369  10.130  0.4296  0.5600 -0.0977
  144SAPE   H4S15782   0.492  -0.401  10.040 -1.7989  0.1760 -1.1041
  144SAPE   C2515783   0.446  -0.195  10.079 -0.4643  0.3649  0.0275
  144SAPE   H5R15784   0.380  -0.128  10.136 -1.5349 -2.4461  2.4005
  144SAPE   C2615785   0.527  -0.140   9.983 -0.8913  0.1236 -0.4650
  144SAPE   H6R15786   0.519  -0.034   9.955  0.9494  0.6659  0.8150
  144SAPE   C2715787   0.639  -0.217   9.914 -0.1418 -0.3151  0.1237
  144SAPE   H7R15788   0.662  -0.312   9.966 -1.5992 -0.8525 -0.1746
  144SAPE   H7S15789   0.730  -0.152   9.909  0.3370 -0.8914  1.0088
  144SAPE   C2815790   0.584  -0.252   9.776 -0.0229  0.2465 -1.1695
  144SAPE   H8R15791   0.488  -0.305   9.781  0.8398 -1.2929  0.7859
  144SAPE   C2915792   0.642  -0.225   9.655 -0.6834 -0.0995 -0.0978
  144SAPE   H9R15793   0.582  -0.250   9.567 -0.5262  0.8282 -0.4777
  144SAPE  C21015794   0.765  -0.154   9.602  0.2203  0.3780 -0.0616
  144SAPE  H10R15795   0.826  -0.114   9.686 -1.7517 -0.5120  1.8870
  144SAPE  H10S15796   0.735  -0.063   9.546 -4.5819  1.8076  4.0823
  144SAPE  C21115797   0.860  -0.235   9.512  0.6460  0.7229 -0.2685
  144SAPE  H11R15798   0.926  -0.303   9.568  0.8689  2.0706  1.1440
  144SAPE  C21215799   0.874  -0.220   9.379 -0.0627 -0.5119  0.4370
  144SAPE  H12R15800   0.941  -0.290   9.327  0.7220  0.7374 -0.2851
  144SAPE  C21315801   0.796  -0.128   9.290  0.2443 -0.5046  0.1586
  144SAPE  H13R15802   0.720  -0.062   9.338  0.8564  3.6590 -3.8299
  144SAPE  H13S15803   0.734  -0.183   9.216  0.1430 -1.5223  0.9779
  144SAPE  C21415804   0.893  -0.034   9.224 -0.2759 -0.5440 -0.1473
  144SAPE  H14R15805   0.972   0.009   9.288  0.4868 -1.6745 -0.3100
  144SAPE  C21515806   0.911  -0.023   9.090  0.1203  0.3874 -0.5977
  144SAPE  H15R15807   0.978   0.056   9.052 -0.8021  0.5251 -2.0260
  144SAPE  C21615808   0.830  -0.092   8.978 -0.0891  0.0630 -0.4118
  144SAPE  H16R15809   0.749  -0.156   9.019 -0.6665  1.6265  0.9830
  144SAPE  H16S15810   0.890  -0.152   8.906 -0.8231 -1.3458  0.1115
  144SAPE  C21715811   0.750   0.008   8.893  0.1970 -0.1684 -0.3068
  144SAPE  H17R15812   0.681   0.067   8.957  2.1100 -0.9526  2.6665
  144SAPE  H17S15813   0.682  -0.055   8.831 -0.1408 -1.4974  1.3503
  144SAPE  C21815814   0.833   0.093   8.794  0.2668  0.4783  0.3315
  144SAPE  H18R15815   0.905   0.143   8.862 -1.1507  0.4478  1.8951
  144SAPE  H18S15816   0.762   0.170   8.757 -0.5987 -0.2502  0.4536
  144SAPE  C21915817   0.893   0.013   8.678 -0.8086 -0.0899 -0.4703
  144SAPE  H19R15818   0.813  -0.006   8.602 -1.0258  0.5049 -0.3957
  144SAPE  H19S15819   0.912  -0.087   8.722 -1.6471  0.9995  2.5984
  144SAPE  C22015820   1.012   0.081   8.623  0.1695  1.3575 -0.1213
  144SAPE  H20R15821   1.092   0.046   8.692 -0.9701 -0.8484  0.1959
  144SAPE  H20S15822   1.009   0.191   8.637 -2.7106  1.5231 -1.4312
  144SAPE  H20T15823   1.035   0.057   8.517 -0.0771  1.3023 -0.1618
  144SAPE   C3315824  -0.094  -0.468   9.986  0.2406 -0.1119 -0.2639
  144SAPE   H3X15825  -0.200  -0.435   9.991  0.6363  1.0798  0.8224
  144SAPE   H3Y15826  -0.077  -0.546  10.064  1.0750 -0.9382 -1.2448
  144SAPE   C3415827  -0.073  -0.538   9.849 -0.4521 -0.5065  0.2545
  144SAPE   H4X15828  -0.106  -0.644   9.853 -0.0951 -0.6126  0.4944
  144SAPE   H4Y15829   0.038  -0.535   9.842 -0.4908  0.6996 -0.0726
  144SAPE   C3515830  -0.131  -0.448   9.739  0.0418  0.1977  0.6996
  144SAPE   H5X15831  -0.080  -0.352   9.762 -1.9371  1.1004  1.5505
  144SAPE   H5Y15832  -0.237  -0.429   9.765  0.8532  1.2541  3.6707
  144SAPE   C3615833  -0.097  -0.493   9.600  0.0288  0.2224  0.2811
  144SAPE   H6X15834  -0.153  -0.587   9.579 -0.0428  0.5361 -1.0741
  144SAPE   H6Y15835   0.013  -0.507   9.596  0.0166  0.3228 -0.7984
  144SAPE   C3715836  -0.141  -0.391   9.500 -0.0669 -0.0032 -0.5028
  144SAPE   H7X15837  -0.078  -0.299   9.501  1.8083 -1.2267 -0.8119
  144SAPE   H7Y15838  -0.245  -0.366   9.531  0.0761  0.1832 -0.1707
  144SAPE   C3815839  -0.157  -0.440   9.353  0.1655  0.7220 -0.2420
  144SAPE   H8X15840  -0.227  -0.523   9.331 -0.0421  1.0444 -0.8062
  144SAPE   H8Y15841  -0.058  -0.473   9.317  0.1848  0.3902  0.1053
  144SAPE   C3915842  -0.195  -0.332   9.259  0.0817  0.1141 -0.2368
  144SAPE   H9X15843  -0.137  -0.240   9.283 -0.5229  0.2876  0.5912
  144SAPE   H9Y15844  -0.301  -0.304   9.276 -0.0250 -0.4939  0.1267
  144SAPE  C31015845  -0.212  -0.372   9.114  0.0278  0.3553  0.1860
  144SAPE  H10X15846  -0.285  -0.455   9.102  0.2647  0.2679 -0.7511
  144SAPE  H10Y15847  -0.112  -0.412   9.088  0.4634  0.7917  1.1377
  144SAPE  C31115848  -0.242  -0.256   9.016  0.4931  0.6411  0.8007
  144SAPE  H11X15849  -0.181  -0.164   9.033  0.2009  1.4139 -1.8903
  144SAPE  H11Y15850  -0.349  -0.232   9.035  0.3713  1.5973 -0.9175
  144SAPE  C31215851  -0.226  -0.319   8.875 -0.6032 -0.2181  0.4461
  144SAPE  H12X15852  -0.293  -0.407   8.861  1.2102 -1.6218  0.2075
  144SAPE  H12Y15853  -0.123  -0.359   8.869 -0.5846  0.0490 -1.3591
  144SAPE  C31315854  -0.239  -0.230   8.756  0.4122 -0.1574 -0.4814
  144SAPE  H13X15855  -0.191  -0.288   8.675  1.9144  0.5312 -0.1246
  144SAPE  H13Y15856  -0.172  -0.144   8.778  0.8321 -0.4832 -0.4712
  144SAPE  C31415857  -0.381  -0.177   8.725 -0.5100 -0.6467 -0.8470
  144SAPE  H14X15858  -0.422  -0.136   8.820  0.3834 -0.9248 -0.3294
  144SAPE  H14Y15859  -0.444  -0.266   8.702 -2.0707 -0.5677  2.5686
  144SAPE  C31515860  -0.374  -0.062   8.621  0.9245  0.2416 -0.9177
  144SAPE  H15X15861  -0.301  -0.089   8.542  1.9936  0.6702 -0.1016
  144SAPE  H15Y15862  -0.325   0.028   8.662 -0.0221  1.2482 -1.9350
  144SAPE  C31615863  -0.513  -0.025   8.564  0.1881  0.8715  0.2489
  144SAPE  H16X15864  -0.579  -0.018   8.654  0.4338 -0.4922  0.5561
  144SAPE  H16Y15865  -0.562  -0.111   8.514  1.4509  0.5556 -0.4888
  144SAPE  C31715866  -0.520   0.094   8.462 -0.1644  0.2761 -0.7244
  144SAPE  H17X15867  -0.482   0.189   8.506  1.2654  0.3774 -2.0745
  144SAPE  H17Y15868  -0.625   0.105   8.427  0.0425 -1.2792 -1.9472
  144SAPE  C31815869  -0.434   0.059   8.332  0.3111 -0.4039 -0.2025
  144SAPE  H18X15870  -0.421   0.152   8.273  1.8343  1.1621  2.3800
  144SAPE  H18Y15871  -0.477  -0.025   8.273  1.5955 -1.6571  0.5791
  144SAPE  H18Z15872  -0.329   0.040   8.364  1.1897  1.7887 -1.5597
  145SAPE     N15873   5.717   1.815  11.058 -0.2984 -0.3249  0.5786
  145SAPE   HN115874   5.792   1.783  11.123 -1.1916 -2.6546  0.5764
  145SAPE   HN215875   5.752   1.807  10.961 -2.1672 -1.9894 -0.0308
  145SAPE   HN315876   5.693   1.913  11.084 -0.9982 -0.7087  1.4587
  145SAPE   C1215877   5.598   1.719  11.073 -0.7215 -0.2305  0.5308
  145SAPE  H12A15878   5.592   1.722  11.184 -0.6049 -1.1795  0.5751
  145SAPE  H12B15879   5.633   1.621  11.032  0.8517  0.1704  0.8593
  145SAPE   C1115880   5.475   1.772  11.000  0.1658 -0.4655 -0.3033
  145SAPE  H11A15881   5.487   1.752  10.891  0.7116 -0.3410 -0.2672
  145SAPE  H11B15882   5.462   1.881  11.018 -2.7881 -1.0033  1.4010
  145SAPE     P15883   5.300   1.572  10.987  0.2215 -0.0439  0.0023
  145SAPE   O1315884   5.381   1.467  11.054 -0.3855  0.3569  0.2830
  145SAPE   O1415885   5.158   1.571  10.997  0.0556  0.2618 -0.1461
  145SAPE   O1215886   5.360   1.710  11.051  0.3444  0.5975  0.2505
  145SAPE   O1115887   5.342   1.579  10.832 -0.0501  0.8984 -0.1882
  145SAPE    C115888   5.325   1.461  10.748 -0.1341 -0.1108 -0.0946
  145SAPE    HA15889   5.260   1.385  10.795  1.1399 -2.3718 -1.7952
  145SAPE    HB15890   5.281   1.483  10.648 -1.2297  0.7883  0.5626
  145SAPE    C215891   5.458   1.385  10.720  0.0319  0.1581 -0.2788
  145SAPE    HS15892   5.504   1.376  10.821  2.2986 -2.3273 -1.4185
  145SAPE   O2115893   5.539   1.461  10.623  0.3135  0.6144 -0.5533
  145SAPE   C2115894   5.626   1.541  10.683 -0.5524 -0.9653  0.9874
  145SAPE   O2215895   5.652   1.541  10.804  0.0001  0.0279  0.1244
  145SAPE   C2215896   5.687   1.649  10.583  0.6433  0.4381  0.0455
  145SAPE   H2R15897   5.648   1.638  10.479  1.1838  0.0391 -0.1162
  145SAPE   H2S15898   5.657   1.751  10.618 -0.5616  0.8750 -2.0514
  145SAPE    C315899   5.438   1.231  10.675  0.6410  0.4958  0.3619
  145SAPE    HX15900   5.386   1.185  10.762 -1.2474 -1.0004 -1.4600
  145SAPE    HY15901   5.539   1.187  10.661  0.1340 -0.2669 -1.1492
  145SAPE   O3115902   5.361   1.227  10.552 -0.1211  0.2088 -0.3569
  145SAPE   C3115903   5.343   1.112  10.506  0.1179 -0.2552 -0.5086
  145SAPE   O3215904   5.387   1.005  10.547 -0.2051 -0.3771  0.4252
  145SAPE   C3215905   5.240   1.119  10.393  0.6969  0.4912  0.5379
  145SAPE   H2X15906   5.251   1.216  10.341  0.8123  1.7261  2.7274
  145SAPE   H2Y15907   5.146   1.129  10.451  0.6709 -0.3223  0.6483
  145SAPE   C2315908   5.844   1.646  10.564 -0.0402 -0.2608 -0.2261
  145SAPE   H3R15909   5.900   1.634  10.659 -0.8271 -0.5083  0.2130
  145SAPE   H3S15910   5.868   1.747  10.525  0.6517 -0.3910 -0.1446
  145SAPE   C2415911   5.898   1.562  10.454  0.6437  0.0614 -0.6059
  145SAPE   H4R15912   6.001   1.601  10.435  0.6349 -0.2098 -1.2677
  145SAPE   H4S15913   5.837   1.584  10.363 -0.9032  0.0536  0.4097
  145SAPE   C2515914   5.889   1.418  10.488  0.3280 -0.0337 -0.1527
  145SAPE   H5R15915   5.948   1.393  10.577 -0.1364  1.1907  0.5139
  145SAPE   C2615916   5.821   1.318  10.424  0.2534 -0.0106 -1.1208
  145SAPE   H6R15917   5.827   1.215  10.463 -1.3320  0.5777  0.9002
  145SAPE   C2715918   5.727   1.338  10.310  0.4216 -0.1246  0.0909
  145SAPE   H7R15919   5.802   1.367  10.234  0.3736  3.4015  1.1860
  145SAPE   H7S15920   5.686   1.440  10.322  1.8416  0.7913 -2.2364
  145SAPE   C2815921   5.629   1.229  10.262  0.0920 -0.0412  0.1181
  145SAPE   H8R15922   5.524   1.227  10.296 -0.2322  1.4895 -0.6753
  145SAPE   C2915923   5.664   1.124  10.179  0.4163 -0.4942 -0.7695
  145SAPE   H9R15924   5.587   1.045  10.172  0.3622 -0.5115 -0.0260
  145SAPE  C21015925   5.792   1.097  10.116 -0.5710  0.4935 -0.2860
  145SAPE  H10R15926   5.855   1.065  10.202 -3.0411 -1.1396  1.0245
  145SAPE  H10S15927   5.845   1.185  10.074  0.8618 -0.0953  0.2421
  145SAPE  C21115928   5.795   0.982  10.022 -0.4139  0.2347  0.5848
  145SAPE  H11R15929   5.811   0.885  10.070 -1.7630 -1.4973 -2.2286
  145SAPE  C21215930   5.800   0.990   9.888 -0.6485  0.5154  0.3143
  145SAPE  H12R15931   5.799   0.892   9.838 -2.4928  0.4065  0.4677
  145SAPE  C21315932   5.785   1.115   9.813 -0.4294 -0.3528 -0.6076
  145SAPE  H13R15933   5.709   1.181   9.862  1.0681  1.3166 -0.4120
  145SAPE  H13S15934   5.739   1.092   9.715 -1.5264  2.8874 -1.0049
  145SAPE  C21415935   5.907   1.204   9.790  0.1017  0.4052  0.1436
  145SAPE  H14R15936   5.984   1.207   9.868  0.4949 -0.5093 -0.1985
  145SAPE  C21515937   5.915   1.293   9.691  0.2447  0.1578  0.4405
  145SAPE  H15R15938   6.006   1.355   9.692  0.4868 -0.1165  3.4062
  145SAPE  C21615939   5.821   1.315   9.577  0.5080 -0.5709 -0.1534
  145SAPE  H16R15940   5.778   1.416   9.593 -0.6758 -0.7913 -1.7461
  145SAPE  H16S15941   5.738   1.241   9.577  0.3114 -0.3782 -1.4367
  145SAPE  C21715942   5.886   1.323   9.437 -0.0041 -0.2679  1.1121
  145SAPE  H17R15943   5.812   1.320   9.354  2.5876 -1.7499 -1.2826
  145SAPE  H17S15944   5.962   1.243   9.426 -0.0603 -0.0655 -1.2239
  145SAPE  C21815945   5.973   1.453   9.410 -0.1828  0.2185  0.1913
  145SAPE  H18R15946   6.047   1.454   9.493 -0.2561 -1.7691  0.3331
  145SAPE  H18S15947   5.901   1.537   9.414 -2.2179 -1.4345  0.3248
  145SAPE  C21915948   6.050   1.457   9.277  0.7641  0.1138 -0.2138
  145SAPE  H19R15949   6.094   1.358   9.251 -0.5529 -0.6101  0.1852
  145SAPE  H19S15950   6.124   1.539   9.287  1.1538 -0.2368 -0.2018
  145SAPE  C22015951   5.965   1.491   9.153 -0.1619 -0.2459  0.8403
  145SAPE  H20R15952   5.888   1.416   9.124  1.5582 -1.1058 -1.8905
  145SAPE  H20S15953   6.025   1.515   9.062  0.5208  1.9179  1.7921
  145SAPE  H20T15954   5.922   1.591   9.175  0.5855  0.5329 -1.0500
  145SAPE   C3315955   5.248   0.998  10.300  0.3092  0.6130  0.3220
  145SAPE   H3X15956   5.219   0.904  10.351  1.6888 -0.2236 -0.3657
  145SAPE   H3Y15957   5.356   0.991  10.273  0.4173 -1.2197  1.0465
  145SAPE   C3415958   5.163   1.010  10.173 -0.1545  0.2022  0.7103
  145SAPE   H4X15959   5.182   1.107  10.123 -0.0933  0.1617  0.6560
  145SAPE   H4Y15960   5.055   1.027  10.192 -0.1851  3.2060 -1.3861
  145SAPE   C3515961   5.193   0.911  10.068  0.2762  0.4457 -0.2183
  145SAPE   H5X15962   5.171   0.809  10.108 -0.4451  0.6450 -0.0981
  145SAPE   H5Y15963   5.300   0.914  10.038 -0.0054 -0.0517 -1.3265
  145SAPE   C3615964   5.113   0.930   9.942 -0.6715  0.0908 -0.4883
  145SAPE   H6X15965   5.140   1.035   9.914 -1.3453 -0.1546 -2.1509
  145SAPE   H6Y15966   5.004   0.920   9.958 -0.5367 -2.2451 -0.7032
  145SAPE   C3715967   5.159   0.831   9.835 -0.0959 -0.1394 -0.5200
  145SAPE   H7X15968   5.152   0.721   9.850 -0.2156 -0.0040  0.4225
  145SAPE   H7Y15969   5.267   0.850   9.817  0.2185 -1.7021 -0.4073
  145SAPE   C3815970   5.097   0.867   9.688 -0.5042  0.4745 -0.7515
  145SAPE   H8X15971   5.114   0.976   9.674  1.5015  0.4103  0.8624
  145SAPE   H8Y15972   4.989   0.841   9.682 -0.4377 -0.2847  0.9096
  145SAPE   C3915973   5.159   0.790   9.571 -0.3485 -0.0860  0.0703
  145SAPE   H9X15974   5.150   0.684   9.601  0.1847  0.0529  0.7567
  145SAPE   H9Y15975   5.270   0.796   9.571 -0.0885 -3.3437 -1.0097
  145SAPE  C31015976   5.088   0.811   9.437 -0.1329  0.3207  0.9133
  145SAPE  H10X15977   5.064   0.919   9.427 -0.5900  0.2076  0.7616
  145SAPE  H10Y15978   4.985   0.770   9.442  0.1660 -0.4456  0.8773
  145SAPE  C31115979   5.160   0.766   9.309  0.0269  0.0190  0.4228
  145SAPE  H11X15980   5.174   0.657   9.320  1.2650  0.1021 -0.2311
  145SAPE  H11Y15981   5.262   0.810   9.302  0.5990 -1.5446 -2.9317
  145SAPE  C31215982   5.088   0.802   9.177 -0.0171  0.6076 -0.7416
  145SAPE  H12X15983   5.050   0.906   9.182  1.8895  1.4829 -2.6392
  145SAPE  H12Y15984   4.998   0.742   9.150 -0.1367  0.6003 -0.3328
  145SAPE  C31315985   5.176   0.808   9.056  0.0618  0.0629  0.5617
  145SAPE  H13X15986   5.224   0.709   9.045  0.2333  0.1603  0.4251
  145SAPE  H13Y15987   5.259   0.880   9.070  0.6800 -0.7411  1.1347
  145SAPE  C31415988   5.104   0.852   8.927  0.2082  0.4776 -0.3130
  145SAPE  H14X15989   5.069   0.957   8.922 -1.6995 -0.1578 -1.7976
  145SAPE  H14Y15990   5.012   0.790   8.920 -1.5844  2.9143  0.1560
  145SAPE  C31515991   5.183   0.813   8.793 -0.5100 -0.5898 -0.4227
  145SAPE  H15X15992   5.095   0.798   8.726 -0.1905  2.1708 -1.5942
  145SAPE  H15Y15993   5.246   0.723   8.808  0.9792  0.1076 -2.1071
  145SAPE  C31615994   5.284   0.918   8.758  0.0234  0.1503 -0.8319
  145SAPE  H16X15995   5.345   0.944   8.848  2.3051 -1.2256 -1.8839
  145SAPE  H16Y15996   5.236   1.015   8.732  1.2595  1.0207 -0.0021
  145SAPE  C31715997   5.371   0.885   8.630  0.4203 -0.7747  0.4578
  145SAPE  H17X15998   5.396   0.778   8.645  0.3917 -0.8077  0.2756
  145SAPE  H17Y15999   5.464   0.946   8.632 -0.1324  0.1118 -0.0836
  145SAPE  C31816000   5.297   0.895   8.494 -0.0802 -0.9138 -0.1805
  145SAPE  H18X16001   5.272   1.000   8.470  1.3214 -0.4604  0.2985
  145SAPE  H18Y16002   5.197   0.846   8.498 -0.4363 -0.3383 -1.4582
  145SAPE  H18Z16003   5.367   0.857   8.417 -0.7635  1.0313 -1.8363
  146SAPE     N16004   3.303   1.296  11.002  0.2422 -0.5559 -0.3695
  146SAPE   HN116005   3.230   1.303  10.928  2.8235  2.6287 -2.8862
  146SAPE   HN216006   3.387   1.355  10.990 -0.5034  1.0222  1.5576
  146SAPE   HN316007   3.316   1.194  11.021 -1.8482 -0.6865  0.7258
  146SAPE   C1216008   3.232   1.366  11.117  0.2231 -0.0163  0.3700
  146SAPE  H12A16009   3.240   1.474  11.095  0.0647  0.1102  0.9115
  146SAPE  H12B16010   3.280   1.345  11.215 -0.8083  0.6675  1.0393
  146SAPE   C1116011   3.081   1.316  11.116 -0.0542  0.1249 -0.2629
  146SAPE  H11A16012   3.033   1.379  11.192  2.0305 -0.2854  1.5040
  146SAPE  H11B16013   3.072   1.208  11.144  2.5942  0.1509  0.9977
  146SAPE     P16014   2.881   1.406  10.981  0.4139  0.3055 -0.0765
  146SAPE   O1316015   2.782   1.316  11.035  0.4540  0.5701  0.1003
  146SAPE   O1416016   2.880   1.543  11.039  0.3004  0.6933 -0.2407
  146SAPE   O1216017   3.024   1.339  10.988  0.1529 -0.1946  0.2729
  146SAPE   O1116018   2.860   1.427  10.824 -0.8721  0.1443 -0.1790
  146SAPE    C116019   2.882   1.305  10.752  0.3729  0.2082  0.4184
  146SAPE    HA16020   2.986   1.292  10.715 -0.2994 -2.8444 -0.6553
  146SAPE    HB16021   2.853   1.217  10.813  3.1737 -0.5854  0.7652
  146SAPE    C216022   2.796   1.302  10.628  1.2386  0.0502 -0.3536
  146SAPE    HS16023   2.691   1.297  10.663  0.8432 -1.8155 -1.6671
  146SAPE   O2116024   2.828   1.183  10.565  0.3059  0.0809  0.4797
  146SAPE   C2116025   2.741   1.137  10.480 -0.4776  0.1098  0.4686
  146SAPE   O2216026   2.638   1.182  10.440  1.2037 -0.0420 -0.4371
  146SAPE   C2216027   2.792   1.002  10.434 -0.1379  0.0546 -0.7455
  146SAPE   H2R16028   2.875   0.976  10.503 -0.7660  0.5869  0.2411
  146SAPE   H2S16029   2.717   0.923  10.456 -0.5185 -0.0441 -2.2748
  146SAPE    C316030   2.826   1.429  10.544 -0.0149  0.8067  0.2443
  146SAPE    HX16031   2.934   1.416  10.525 -0.1866 -1.8107  0.7612
  146SAPE    HY16032   2.818   1.521  10.607  0.3543  3.1358 -2.8610
  146SAPE   O3116033   2.756   1.445  10.419  0.2384 -0.3302 -0.5834
  146SAPE   C3116034   2.670   1.545  10.413 -0.2126 -0.1382  0.6240
  146SAPE   O3216035   2.649   1.634  10.496 -0.2182  0.5065  0.2184
  146SAPE   C3216036   2.593   1.532  10.278  0.4628  0.2783 -0.3188
  146SAPE   H2X16037   2.516   1.452  10.287  0.8627 -0.1879 -0.9373
  146SAPE   H2Y16038   2.666   1.507  10.198  1.4095  0.7715  0.3668
  146SAPE   C2316039   2.848   0.991  10.288 -0.3035 -0.7209 -0.1352
  146SAPE   H3R16040   2.764   1.015  10.220  0.6370  1.6851 -0.5337
  146SAPE   H3S16041   2.882   0.886  10.277  0.5955 -0.5288  0.7104
  146SAPE   C2416042   2.975   1.068  10.275 -0.3021  0.0325 -0.0477
  146SAPE   H4R16043   3.036   1.009  10.204 -1.7375 -2.8139  0.9580
  146SAPE   H4S16044   3.037   1.063  10.368 -1.6707 -1.4818  0.8148
  146SAPE   C2516045   2.965   1.210  10.236  0.3181  0.3181 -0.8119
  146SAPE   H5R16046   2.962   1.274  10.326  0.5135 -2.7207  1.5174
  146SAPE   C2616047   2.947   1.251  10.114  0.1828  0.4709  0.3353
  146SAPE   H6R16048   2.943   1.360  10.101  0.4514  0.4236 -0.1799
  146SAPE   C2716049   2.936   1.161   9.990  0.1416  0.0093 -0.2151
  146SAPE   H7R16050   2.951   1.053  10.014  2.5655 -0.0463 -1.7029
  146SAPE   H7S16051   3.020   1.184   9.921  0.9099 -0.1541  0.6408
  146SAPE   C2816052   2.798   1.181   9.930 -0.2399 -0.3644  0.1871
  146SAPE   H8R16053   2.718   1.129   9.985 -0.2206 -0.5223  0.0679
  146SAPE   C2916054   2.773   1.266   9.832 -0.1368  0.0319  0.0348
  146SAPE   H9R16055   2.668   1.274   9.799 -1.0516  1.5399  3.0087
  146SAPE  C21016056   2.879   1.362   9.766  0.3590  0.4748  0.3022
  146SAPE  H10R16057   2.939   1.295   9.700  0.6297  1.4116 -0.4432
  146SAPE  H10S16058   2.955   1.396   9.839  0.5349  0.5650  0.0790
  146SAPE  C21116059   2.810   1.475   9.691  0.0611 -0.0365  0.4971
  146SAPE  H11R16060   2.797   1.567   9.751 -0.5706  0.0844  0.1862
  146SAPE  C21216061   2.761   1.458   9.571  0.0483  0.2918  0.1934
  146SAPE  H12R16062   2.699   1.541   9.533 -1.9887  0.0940  2.8210
  146SAPE  C21316063   2.756   1.327   9.488  0.3002  0.0584  0.2535
  146SAPE  H13R16064   2.654   1.282   9.489  0.6828 -0.9725 -1.7879
  146SAPE  H13S16065   2.826   1.248   9.522 -2.1092 -2.1214  0.4524
  146SAPE  C21416066   2.787   1.361   9.342  0.3476 -0.4861  0.2674
  146SAPE  H14R16067   2.870   1.433   9.334 -0.4410  0.2565 -1.4817
  146SAPE  C21516068   2.716   1.343   9.233  1.0122  0.4284  0.5719
  146SAPE  H15R16069   2.742   1.393   9.138 -0.1684 -0.6935 -0.4001
  146SAPE  C21616070   2.581   1.274   9.208 -0.7166 -0.2779  0.4187
  146SAPE  H16R16071   2.523   1.258   9.301 -0.8429  0.3548  0.4489
  146SAPE  H16S16072   2.577   1.184   9.143  1.7183 -0.0601 -0.1405
  146SAPE  C21716073   2.501   1.372   9.122 -0.6165  0.5697  0.6644
  146SAPE  H17R16074   2.536   1.378   9.016 -2.1577 -2.8693 -0.1833
  146SAPE  H17S16075   2.501   1.473   9.168  1.1035  0.8900  0.0639
  146SAPE  C21816076   2.363   1.314   9.115 -0.5695 -0.0932  0.6388
  146SAPE  H18R16077   2.316   1.320   9.216 -0.7865 -1.5015  0.6438
  146SAPE  H18S16078   2.358   1.205   9.092  1.1400  0.1492 -1.1231
  146SAPE  C21916079   2.273   1.380   9.011  0.5818  0.0468 -0.5613
  146SAPE  H19R16080   2.275   1.490   9.026  2.1340 -0.1608  0.9423
  146SAPE  H19S16081   2.178   1.331   9.040  1.6269 -0.7277  1.8025
  146SAPE  C22016082   2.298   1.348   8.866  0.1275 -0.6526 -0.5893
  146SAPE  H20R16083   2.290   1.238   8.854  0.3027 -0.7046 -0.2621
  146SAPE  H20S16084   2.398   1.388   8.837 -0.3039  0.2621 -0.8787
  146SAPE  H20T16085   2.209   1.387   8.812  0.2368  0.8384  0.2467
  146SAPE   C3316086   2.523   1.665  10.232 -0.1515 -0.5977 -0.1040
  146SAPE   H3X16087   2.606   1.739  10.234 -0.0950 -0.6546 -0.3340
  146SAPE   H3Y16088   2.435   1.687  10.296 -0.7173 -0.5759 -0.8798
  146SAPE   C3416089   2.472   1.669  10.082  0.4109  0.5230 -0.1372
  146SAPE   H4X16090   2.550   1.630  10.013 -1.2842 -1.1474 -1.2088
  146SAPE   H4Y16091   2.441   1.771  10.052 -0.5622  0.7808  1.5738
  146SAPE   C3516092   2.347   1.581  10.060  0.5097 -0.0876  0.0213
  146SAPE   H5X16093   2.282   1.604  10.148 -1.2289 -1.9612 -0.6766
  146SAPE   H5Y16094   2.369   1.473  10.064 -0.6850 -0.3318  0.6173
  146SAPE   C3616095   2.274   1.609   9.926 -0.2873 -0.1268 -0.6603
  146SAPE   H6X16096   2.283   1.715   9.895 -0.5726 -0.7010 -2.8892
  146SAPE   H6Y16097   2.167   1.586   9.940 -0.8994  1.3183 -2.5243
  146SAPE   C3716098   2.318   1.527   9.799  0.3216 -0.7382  0.2615
  146SAPE   H7X16099   2.331   1.420   9.826 -1.3137 -0.7381  1.1385
  146SAPE   H7Y16100   2.413   1.569   9.759  0.7508 -0.8555  1.1297
  146SAPE   C3816101   2.209   1.552   9.690 -1.2459  0.3582 -0.8215
  146SAPE   H8X16102   2.207   1.663   9.675 -1.9130  0.2957 -1.2643
  146SAPE   H8Y16103   2.110   1.512   9.722 -1.3621 -1.3856 -3.1578
  146SAPE   C3916104   2.248   1.478   9.561 -0.0388  0.3797 -0.4590
  146SAPE   H9X16105   2.297   1.385   9.596 -3.2934 -0.7494  1.5273
  146SAPE   H9Y16106   2.327   1.545   9.520  0.5604  1.3914  2.1474
  146SAPE  C31016107   2.140   1.470   9.449  0.1722  0.7706 -0.3022
  146SAPE  H10X16108   2.061   1.393   9.461 -0.3210  1.0816 -1.4090
  146SAPE  H10Y16109   2.195   1.444   9.356  1.0487 -0.5315  0.5471
  146SAPE  C31116110   2.052   1.595   9.428  0.1592 -0.0244 -0.2246
  146SAPE  H11X16111   2.118   1.681   9.404  0.1273  0.0035 -0.2113
  146SAPE  H11Y16112   1.998   1.613   9.523 -0.7234 -0.1962 -0.6811
  146SAPE  C31216113   1.941   1.579   9.330 -0.0311  0.4122 -0.4074
  146SAPE  H12X16114   1.869   1.661   9.349  0.7166  0.6413  1.7315
  146SAPE  H12Y16115   1.889   1.483   9.349 -0.6689  0.4915 -1.6468
  146SAPE  C31316116   1.984   1.581   9.185  0.2968 -0.4039 -0.8354
  146SAPE  H13X16117   1.988   1.479   9.141 -2.7244  0.0108 -2.3101
  146SAPE  H13Y16118   2.084   1.625   9.163  0.1961  0.0940 -0.3395
  146SAPE  C31416119   1.882   1.650   9.101  0.1450 -0.9074 -0.0253
  146SAPE  H14X16120   1.817   1.715   9.163 -1.9570 -1.0492 -1.9692
  146SAPE  H14Y16121   1.832   1.564   9.054  2.2568 -1.5641 -1.2223
  146SAPE  C31516122   1.945   1.735   8.994  1.0519 -0.4423  0.4855
  146SAPE  H15X16123   2.016   1.669   8.940  0.1409 -1.6922  0.7804
  146SAPE  H15Y16124   2.000   1.814   9.051 -1.2660  1.7611 -0.1730
  146SAPE  C31616125   1.842   1.805   8.910 -0.6599  0.1951  0.1521
  146SAPE  H16X16126   1.775   1.874   8.966 -0.4479 -0.8160  1.7293
  146SAPE  H16Y16127   1.774   1.732   8.861  0.3568 -0.6205 -0.0606
  146SAPE  C31716128   1.913   1.886   8.808  0.4503  0.0923  0.4719
  146SAPE  H17X16129   1.998   1.840   8.753  0.7358  1.4903 -0.3064
  146SAPE  H17Y16130   1.972   1.961   8.865  0.9576 -0.5165  0.7502
  146SAPE  C31816131   1.815   1.969   8.712  0.4057  0.2259  0.1675
  146SAPE  H18X16132   1.726   1.910   8.682  0.0096  1.5568 -1.4177
  146SAPE  H18Y16133   1.868   2.000   8.620 -0.3757 -2.7578 -1.4265
  146SAPE  H18Z16134   1.784   2.059   8.769  0.4346  0.6199 -0.4306
  147SAPE     N16135   0.651   6.309   6.104 -0.2816  0.2852  0.6321
  147SAPE   HN116136   0.745   6.320   6.147  1.4511 -0.5299 -2.6576
  147SAPE   HN216137   0.589   6.256   6.169  1.0494 -0.1579  1.5969
  147SAPE   HN316138   0.665   6.246   6.023 -1.2290  1.0375 -0.1390
  147SAPE   C1216139   0.586   6.438   6.068  0.3730 -0.0190 -0.6236
  147SAPE  H12A16140   0.493   6.406   6.018  0.8660 -3.9534  0.6329
  147SAPE  H12B16141   0.657   6.500   6.008  0.9083  0.6973  0.6934
  147SAPE   C1116142   0.563   6.519   6.199 -0.6827 -0.1265  0.4802
  147SAPE  H11A16143   0.494   6.466   6.269 -1.9157  1.5657  0.6311
  147SAPE  H11B16144   0.513   6.614   6.172  0.2873  0.8636  2.0049
  147SAPE     P16145   0.759   6.677   6.272  0.0633  0.1243 -0.0044
  147SAPE   O1316146   0.861   6.658   6.171 -0.9426  0.1125 -0.1107
  147SAPE   O1416147   0.662   6.783   6.249 -0.2815 -0.3121 -0.1581
  147SAPE   O1216148   0.686   6.536   6.278 -0.1359 -0.1192  0.2675
  147SAPE   O1116149   0.836   6.698   6.408 -0.4028 -0.4041  0.3810
  147SAPE    C116150   0.814   6.637   6.531  0.2515  0.3425 -0.1906
  147SAPE    HA16151   0.751   6.545   6.525 -0.5317  0.7470  1.2992
  147SAPE    HB16152   0.912   6.604   6.571  0.5915  0.5959 -0.8063
  147SAPE    C216153   0.746   6.731   6.630  0.0830 -0.3517  0.2382
  147SAPE    HS16154   0.744   6.670   6.724  1.6495 -1.9489 -0.6906
  147SAPE   O2116155   0.620   6.788   6.577 -0.1395 -0.6850  0.2790
  147SAPE   C2116156   0.513   6.713   6.573 -0.7984  0.1294  0.0340
  147SAPE   O2216157   0.518   6.596   6.605  0.8858 -0.3353 -0.2692
  147SAPE   C2216158   0.391   6.779   6.522 -0.0138 -0.5610  0.1115
  147SAPE   H2R16159   0.420   6.841   6.435 -2.2634  0.6461  0.1407
  147SAPE   H2S16160   0.323   6.702   6.480  0.4354 -0.6238 -0.5102
  147SAPE    C316161   0.835   6.848   6.670 -0.4330  0.2179  0.0521
  147SAPE    HX16162   0.857   6.908   6.579 -0.9164  0.4585  0.0941
  147SAPE    HY16163   0.932   6.813   6.713 -1.0588 -1.2772  0.3182
  147SAPE   O3116164   0.779   6.932   6.784 -0.1791  0.0466  0.1319
  147SAPE   C3116165   0.715   7.040   6.740 -0.0816  0.2341  0.1293
  147SAPE   O3216166   0.707   7.074   6.624 -0.0730 -0.3940 -0.0174
  147SAPE   C3216167   0.662   7.110   6.862 -0.0651 -0.2125  0.2180
  147SAPE   H2X16168   0.723   7.080   6.950 -0.7264 -0.6296  0.5398
  147SAPE   H2Y16169   0.557   7.076   6.872  0.0146 -1.2305 -1.8188
  147SAPE   C2316170   0.312   6.860   6.628  0.1152  0.1808 -0.5976
  147SAPE   H3R16171   0.375   6.941   6.668  1.0451 -0.5563 -0.5402
  147SAPE   H3S16172   0.285   6.807   6.722  0.4042 -0.7802 -1.0330
  147SAPE   C2416173   0.185   6.925   6.577  0.0580  0.3342  0.5851
  147SAPE   H4R16174   0.121   6.943   6.666 -1.0513 -1.0685  0.0949
  147SAPE   H4S16175   0.131   6.849   6.517 -0.4597 -0.5794  2.1365
  147SAPE   C2516176   0.209   7.044   6.487 -0.1215  0.7705 -0.0104
  147SAPE   H5R16177   0.235   7.018   6.383  3.0718 -1.9003  1.2673
  147SAPE   C2616178   0.204   7.172   6.521  0.6105 -0.0929  1.0011
  147SAPE   H6R16179   0.224   7.247   6.444 -0.1964 -1.3089 -0.4383
  147SAPE   C2716180   0.185   7.237   6.658 -0.1109 -0.0288  0.0217
  147SAPE   H7R16181   0.088   7.199   6.697  0.6062 -0.9883  0.9467
  147SAPE   H7S16182   0.169   7.346   6.649  0.2799 -0.0571 -1.2396
  147SAPE   C2816183   0.299   7.217   6.751  0.2999 -0.0727 -0.0668
  147SAPE   H8R16184   0.401   7.226   6.709  0.5567  0.0227  0.5699
  147SAPE   C2916185   0.302   7.178   6.875 -0.3100  0.2476 -0.2504
  147SAPE   H9R16186   0.392   7.167   6.938 -0.4928 -0.4464 -0.1136
  147SAPE  C21016187   0.171   7.151   6.950 -0.3997  0.1453  0.1122
  147SAPE  H10R16188   0.106   7.084   6.889  1.1958  0.7582 -2.4425
  147SAPE  H10S16189   0.118   7.248   6.943  1.0304  0.8427 -2.2949
  147SAPE  C21116190   0.195   7.113   7.097 -0.0638 -0.1620  0.1625
  147SAPE  H11R16191   0.168   7.192   7.169 -0.6564  1.7709 -2.0800
  147SAPE  C21216192   0.270   7.002   7.136 -0.0232  0.4266  0.4187
  147SAPE  H12R16193   0.261   6.969   7.241 -0.9510  1.0929  0.5590
  147SAPE  C21316194   0.329   6.898   7.051 -0.6662  0.2759  0.4382
  147SAPE  H13R16195   0.312   6.916   6.943 -2.2675  0.5249  0.7070
  147SAPE  H13S16196   0.278   6.801   7.069 -1.2820  0.6873  0.9895
  147SAPE  C21416197   0.473   6.889   7.073  0.2916  0.1057 -0.4724
  147SAPE  H14R16198   0.520   6.973   7.128 -1.2211  2.0406 -1.9568
  147SAPE  C21516199   0.543   6.778   7.037 -0.0486  0.0804  0.2003
  147SAPE  H15R16200   0.650   6.769   7.062 -0.1217  0.9654  0.8399
  147SAPE  C21616201   0.487   6.652   6.969 -0.1572 -0.4101  0.7249
  147SAPE  H16R16202   0.536   6.606   6.881 -0.4019 -1.4707  1.1176
  147SAPE  H16S16203   0.381   6.660   6.937  0.3442  0.5365 -0.7902
  147SAPE  C21716204   0.485   6.537   7.068 -0.1722 -0.1181 -0.7925
  147SAPE  H17R16205   0.585   6.488   7.069  1.0576  2.0922  2.2296
  147SAPE  H17S16206   0.418   6.452   7.041  1.2349 -1.3131 -0.6788
  147SAPE  C21816207   0.455   6.566   7.219 -0.1118 -0.4414  0.3457
  147SAPE  H18R16208   0.351   6.600   7.237 -0.8160 -0.1260 -3.5472
  147SAPE  H18S16209   0.522   6.649   7.248 -0.6244 -0.5740  2.0731
  147SAPE  C21916210   0.496   6.448   7.311  0.6214 -0.2473  0.2837
  147SAPE  H19R16211   0.599   6.424   7.279  0.0347 -0.8333 -1.2630
  147SAPE  H19S16212   0.433   6.357   7.298  0.0865 -0.2488  2.4345
  147SAPE  C22016213   0.501   6.483   7.460 -0.1079 -0.2228  0.3448
  147SAPE  H20R16214   0.400   6.519   7.490 -0.3064  0.1059 -0.6545
  147SAPE  H20S16215   0.567   6.572   7.470 -1.9079  1.3376 -0.9182
  147SAPE  H20T16216   0.537   6.398   7.522 -2.0369 -1.4789 -0.1563
  147SAPE   C3316217   0.671   7.265   6.840  0.0444 -0.2874  0.1155
  147SAPE   H3X16218   0.599   7.305   6.764  0.1429 -1.4622 -0.6277
  147SAPE   H3Y16219   0.771   7.289   6.797 -0.0095  0.5738  0.4469
  147SAPE   C3416220   0.658   7.332   6.973  0.3244 -0.8630 -0.4157
  147SAPE   H4X16221   0.741   7.290   7.034 -0.4691 -0.2703  1.1045
  147SAPE   H4Y16222   0.573   7.279   7.019  0.2066 -1.0055 -0.7930
  147SAPE   C3516223   0.636   7.482   6.982 -0.0766 -0.9623 -1.0444
  147SAPE   H5X16224   0.538   7.508   6.936  0.7270  1.3447 -1.6014
  147SAPE   H5Y16225   0.700   7.540   6.913  0.0669  0.0779 -0.0686
  147SAPE   C3616226   0.647   7.534   7.121  0.2425  0.1806 -0.0210
  147SAPE   H6X16227   0.595   7.473   7.198  0.5540 -0.8049 -0.5829
  147SAPE   H6Y16228   0.592   7.631   7.119  1.0657  0.6446 -1.5021
  147SAPE   C3716229   0.783   7.564   7.166 -0.2151  0.0378 -0.1394
  147SAPE   H7X16230   0.819   7.628   7.082  1.1076 -1.8249 -1.0572
  147SAPE   H7Y16231   0.840   7.469   7.170  2.8539  1.5784 -2.7433
  147SAPE   C3816232   0.801   7.638   7.304  0.6809 -0.4746 -0.2274
  147SAPE   H8X16233   0.730   7.724   7.302  0.4575 -0.6536 -0.0321
  147SAPE   H8Y16234   0.909   7.665   7.300  0.8877 -1.3995 -3.8024
  147SAPE   C3916235   0.782   7.545   7.416  0.0334  0.2002  0.2551
  147SAPE   H9X16236   0.866   7.473   7.425  1.3350  1.8300  1.9522
  147SAPE   H9Y16237   0.681   7.500   7.408  0.0886 -0.0922  1.1014
  147SAPE  C31016238   0.787   7.610   7.549 -0.4553 -0.8782 -0.8345
  147SAPE  H10X16239   0.721   7.700   7.550  0.3919 -0.2397 -0.8718
  147SAPE  H10Y16240   0.888   7.650   7.573 -0.4891 -0.2295 -1.6945
  147SAPE  C31116241   0.754   7.505   7.664  0.0624 -0.3004  0.4015
  147SAPE  H11X16242   0.844   7.440   7.668 -1.0879 -1.9594  0.0211
  147SAPE  H11Y16243   0.672   7.435   7.638 -0.8405  0.8519  0.0325
  147SAPE  C31216244   0.715   7.566   7.803  0.3012 -0.8613 -0.1063
  147SAPE  H12X16245   0.616   7.613   7.782 -0.2790 -1.1715  1.7995
  147SAPE  H12Y16246   0.782   7.650   7.831 -2.2962  1.0537  0.8189
  147SAPE  C31316247   0.685   7.477   7.923  0.1350 -0.4960 -0.2684
  147SAPE  H13X16248   0.619   7.392   7.896  0.2895 -0.5211 -0.5688
  147SAPE  H13Y16249   0.644   7.530   8.012  0.6415 -1.1890  0.3829
  147SAPE  C31416250   0.817   7.415   7.983 -1.2224 -0.4344 -0.0556
  147SAPE  H14X16251   0.894   7.492   8.006 -0.4219 -1.3995  0.5955
  147SAPE  H14Y16252   0.859   7.348   7.905 -0.6278 -0.3665  0.2047
  147SAPE  C31516253   0.788   7.336   8.106 -0.3765  0.1520  0.9812
  147SAPE  H15X16254   0.703   7.264   8.107 -1.0848  0.9021 -0.7285
  147SAPE  H15Y16255   0.757   7.413   8.179  1.1852 -0.6650  2.5652
  147SAPE  C31616256   0.914   7.274   8.164 -0.6596 -0.0652 -0.5283
  147SAPE  H16X16257   1.003   7.339   8.152 -1.8010  1.8736  1.0205
  147SAPE  H16Y16258   0.945   7.182   8.109 -2.0870 -0.3560 -0.8798
  147SAPE  C31716259   0.898   7.228   8.311  0.1248  0.4834  0.3475
  147SAPE  H17X16260   0.833   7.137   8.307  1.0437 -0.2144  0.8373
  147SAPE  H17Y16261   0.851   7.299   8.382 -1.8869 -1.6338  1.2614
  147SAPE  C31816262   1.037   7.195   8.369 -0.2163  0.6822  0.0870
  147SAPE  H18X16263   1.100   7.155   8.286 -2.5599 -0.3526 -1.3228
  147SAPE  H18Y16264   1.026   7.112   8.443 -1.7639  2.2619  1.7260
  147SAPE  H18Z16265   1.083   7.285   8.413 -0.2212 -0.2554  2.1132
  148SAPE     N16266   5.470   4.483   6.263 -0.2889  0.7431 -0.1924
  148SAPE   HN116267   5.476   4.382   6.287 -1.3318  1.0151  1.4276
  148SAPE   HN216268   5.372   4.496   6.296 -0.6522 -1.4449 -0.2561
  148SAPE   HN316269   5.472   4.498   6.160 -1.2940 -2.5927 -0.8244
  148SAPE   C1216270   5.564   4.560   6.341 -0.2107 -0.2404  0.1240
  148SAPE  H12A16271   5.597   4.643   6.275  1.1851 -1.9388 -1.4165
  148SAPE  H12B16272   5.656   4.500   6.354  0.3371  0.6045  0.2695
  148SAPE   C1116273   5.502   4.610   6.479  0.2429  0.5722  1.2613
  148SAPE  H11A16274   5.585   4.676   6.512  1.6224 -0.4188 -0.0948
  148SAPE  H11B16275   5.486   4.522   6.544  0.2586 -0.0350  0.4566
  148SAPE     P16276   5.241   4.633   6.466  0.0550  0.0334 -0.0109
  148SAPE   O1316277   5.144   4.733   6.450 -0.0587 -0.3168  0.3237
  148SAPE   O1416278   5.228   4.523   6.374  0.0581 -0.0986 -0.1628
  148SAPE   O1216279   5.390   4.696   6.456 -0.1975 -0.3618  0.6993
  148SAPE   O1116280   5.238   4.572   6.605  0.2509 -0.2460 -0.3298
  148SAPE    C116281   5.229   4.656   6.726  0.1257  0.4156  0.5752
  148SAPE    HA16282   5.298   4.742   6.718 -0.5471  1.0019  1.0519
  148SAPE    HB16283   5.133   4.708   6.745  0.6286  0.6061  2.8332
  148SAPE    C216284   5.278   4.589   6.854  0.4581 -0.1833 -0.3404
  148SAPE    HS16285   5.307   4.670   6.925 -2.1631  1.2937 -0.8535
  148SAPE   O2116286   5.384   4.504   6.818  0.8317 -0.1505  0.6836
  148SAPE   C2116287   5.504   4.550   6.801 -0.0391 -0.3424 -0.4464
  148SAPE   O2216288   5.532   4.669   6.809  0.2512  0.2016  0.6496
  148SAPE   C2216289   5.606   4.433   6.780 -0.3442 -0.8397  0.0804
  148SAPE   H2R16290   5.574   4.388   6.684  0.5409  1.3773 -1.3246
  148SAPE   H2S16291   5.706   4.478   6.764 -0.0040 -1.0354  1.5091
  148SAPE    C316292   5.147   4.514   6.903  0.9764  0.0205  0.4012
  148SAPE    HX16293   5.174   4.450   6.990  0.2868  1.2280  1.5598
  148SAPE    HY16294   5.107   4.457   6.817 -0.5218  1.6434 -0.0492
  148SAPE   O3116295   5.053   4.611   6.952 -0.0827 -0.3490  0.4999
  148SAPE   C3116296   4.924   4.570   6.938 -0.7933  0.4375 -0.3332
  148SAPE   O3216297   4.879   4.471   6.890 -0.1257 -0.1282  0.1343
  148SAPE   C3216298   4.837   4.690   6.968  0.0513 -0.2578 -0.1884
  148SAPE   H2X16299   4.799   4.723   6.869  2.1530  1.1316 -0.6090
  148SAPE   H2Y16300   4.895   4.777   7.007  0.4938 -0.5798 -0.1184
  148SAPE   C2316301   5.618   4.351   6.909  0.1045  0.1256 -0.3841
  148SAPE   H3R16302   5.683   4.268   6.873 -0.4434  0.7051 -2.8340
  148SAPE   H3S16303   5.516   4.320   6.941 -0.2499  0.9525 -0.6884
  148SAPE   C2416304   5.685   4.433   7.024 -0.2811  0.7666  0.2078
  148SAPE   H4R16305   5.629   4.526   7.048  0.0780  1.5415 -1.7060
  148SAPE   H4S16306   5.776   4.471   6.973 -1.4954  0.3331 -2.4854
  148SAPE   C2516307   5.700   4.349   7.151  0.2197  0.4024  0.3059
  148SAPE   H5R16308   5.786   4.280   7.154 -2.4841 -3.2515  0.5072
  148SAPE   C2616309   5.613   4.346   7.256 -0.1964  0.9389 -0.5191
  148SAPE   H6R16310   5.640   4.281   7.340  1.1900  0.9316 -0.9369
  148SAPE   C2716311   5.495   4.425   7.283  0.7174 -0.7976 -0.6519
  148SAPE   H7R16312   5.493   4.523   7.230  2.9053 -0.0907  0.4795
  148SAPE   H7S16313   5.503   4.458   7.388 -2.3381  0.3118 -0.6856
  148SAPE   C2816314   5.365   4.356   7.266  0.7401  0.5366  0.7792
  148SAPE   H8R16315   5.355   4.323   7.162 -0.6012  1.2982  0.6456
  148SAPE   C2916316   5.272   4.328   7.360 -0.1569 -1.3005 -0.5258
  148SAPE   H9R16317   5.191   4.257   7.337  0.8434 -2.2253 -1.3026
  148SAPE  C21016318   5.280   4.357   7.507 -0.3144 -0.6871 -0.3790
  148SAPE  H10R16319   5.354   4.437   7.529 -0.4506 -0.9832  1.2100
  148SAPE  H10S16320   5.320   4.273   7.567 -0.7980  0.2234  1.2772
  148SAPE  C21116321   5.150   4.403   7.567  0.5377  0.5452 -0.3446
  148SAPE  H11R16322   5.080   4.450   7.496 -0.7047 -3.7818 -2.3115
  148SAPE  C21216323   5.107   4.378   7.691  0.8198 -0.4248 -0.6010
  148SAPE  H12R16324   5.003   4.412   7.707  1.6327  2.3947 -0.7197
  148SAPE  C21316325   5.181   4.303   7.802 -0.1338  0.3444 -0.2388
  148SAPE  H13R16326   5.291   4.316   7.792  0.2044  0.5493  2.7471
  148SAPE  H13S16327   5.163   4.195   7.786  0.5795  0.3851 -1.4472
  148SAPE  C21416328   5.131   4.340   7.941  0.1680 -0.5939 -0.0495
  148SAPE  H14R16329   5.023   4.355   7.953  0.4186  0.3906  1.1863
  148SAPE  C21516330   5.217   4.346   8.046  0.5211 -0.0053 -0.3625
  148SAPE  H15R16331   5.182   4.382   8.144 -2.9736  0.0855 -1.4869
  148SAPE  C21616332   5.366   4.320   8.043 -0.0169  0.6748  0.6622
  148SAPE  H16R16333   5.410   4.409   8.092 -0.4133  0.1507  2.0149
  148SAPE  H16S16334   5.406   4.297   7.942 -1.7902 -1.7457  0.4309
  148SAPE  C21716335   5.408   4.206   8.144  0.0097 -0.1378  0.1380
  148SAPE  H17R16336   5.517   4.186   8.135 -0.3242 -1.8586 -0.6211
  148SAPE  H17S16337   5.353   4.114   8.115  0.3704  0.2378 -1.9255
  148SAPE  C21816338   5.379   4.236   8.288 -0.1944  0.6367 -0.1012
  148SAPE  H18R16339   5.269   4.247   8.298 -0.3095  0.4636 -1.1224
  148SAPE  H18S16340   5.438   4.327   8.314  0.5825  0.8559 -2.3751
  148SAPE  C21916341   5.413   4.121   8.383 -0.4595 -0.3780  0.4534
  148SAPE  H19R16342   5.521   4.099   8.367 -0.9116 -2.5212  0.0996
  148SAPE  H19S16343   5.362   4.029   8.349  0.6326 -0.9929  0.4292
  148SAPE  C22016344   5.394   4.150   8.535  0.2801 -0.4899  0.3492
  148SAPE  H20R16345   5.414   4.063   8.600  0.3869 -2.3291 -2.0150
  148SAPE  H20S16346   5.288   4.183   8.535 -0.2081 -1.9242 -1.3949
  148SAPE  H20T16347   5.456   4.236   8.571  0.0625  0.5880 -1.6881
  148SAPE   C3316348   4.716   4.662   7.060 -0.0572  0.1326 -0.1285
  148SAPE   H3X16349   4.655   4.578   7.021 -2.0226 -0.2522  3.3523
  148SAPE   H3Y16350   4.646   4.748   7.065  0.4566  0.5319  0.3110
  148SAPE   C3416351   4.763   4.620   7.196 -0.2421  0.2320 -0.0036
  148SAPE   H4X16352   4.846   4.548   7.179 -0.6892 -0.3602  0.3276
  148SAPE   H4Y16353   4.678   4.573   7.250 -1.7724  1.3182 -1.3848
  148SAPE   C3516354   4.823   4.731   7.279  0.0923  0.3234  0.6154
  148SAPE   H5X16355   4.785   4.832   7.254  4.7048  2.3879  0.8506
  148SAPE   H5Y16356   4.924   4.739   7.233  0.6855 -1.8952  1.4095
  148SAPE   C3616357   4.829   4.714   7.427  0.0282  0.3829  0.3034
  148SAPE   H6X16358   4.859   4.610   7.454 -0.4398  0.0287 -0.5041
  148SAPE   H6Y16359   4.726   4.707   7.468 -1.1332  2.0399 -2.1363
  148SAPE   C3716360   4.919   4.817   7.494  0.7203  0.1352 -0.5450
  148SAPE   H7X16361   4.866   4.914   7.480 -1.1564 -0.8228 -0.3612
  148SAPE   H7Y16362   5.018   4.822   7.443  1.2193  1.7505  0.4629
  148SAPE   C3816363   4.967   4.793   7.639  0.6942  0.3917 -0.4501
  148SAPE   H8X16364   5.052   4.859   7.665  0.0041  1.4680 -0.8415
  148SAPE   H8Y16365   5.012   4.692   7.646 -2.0455 -0.8970  0.1152
  148SAPE   C3916366   4.857   4.798   7.741  1.0219  0.2748 -0.0369
  148SAPE   H9X16367   4.796   4.705   7.743 -1.0913  1.5917  0.8458
  148SAPE   H9Y16368   4.787   4.874   7.701  0.3748 -1.0996 -1.6476
  148SAPE  C31016369   4.897   4.835   7.880 -0.4283 -0.1402  0.2627
  148SAPE  H10X16370   4.804   4.872   7.928 -1.3697 -2.7055  0.5956
  148SAPE  H10Y16371   4.971   4.918   7.868 -0.9588  0.2844 -0.1371
  148SAPE  C31116372   4.969   4.733   7.966 -0.4596  0.4441 -0.4134
  148SAPE  H11X16373   5.052   4.689   7.907 -2.3107 -2.0057 -1.3469
  148SAPE  H11Y16374   4.894   4.651   7.977  0.4581 -0.2890  0.7332
  148SAPE  C31216375   5.020   4.769   8.109  0.1390  0.1495 -0.0936
  148SAPE  H12X16376   4.936   4.799   8.175 -0.8144  0.1855 -1.2763
  148SAPE  H12Y16377   5.088   4.856   8.107 -1.2314  1.2333 -1.6578
  148SAPE  C31316378   5.093   4.646   8.177  0.1900 -0.0878 -0.3196
  148SAPE  H13X16379   5.189   4.628   8.123  0.7776  0.3875  0.5509
  148SAPE  H13Y16380   5.036   4.551   8.162 -0.3670  0.2617 -0.4325
  148SAPE  C31416381   5.127   4.694   8.319 -0.6150  0.4131 -0.0408
  148SAPE  H14X16382   5.037   4.683   8.383  0.4574  0.4728  1.5327
  148SAPE  H14Y16383   5.178   4.793   8.313 -0.1334  0.1137 -0.9766
  148SAPE  C31516384   5.227   4.600   8.397 -0.6568 -0.1781 -0.6735
  148SAPE  H15X16385   5.316   4.594   8.330  0.0052 -3.6176  0.2919
  148SAPE  H15Y16386   5.190   4.495   8.408  0.3482 -0.5891 -1.0753
  148SAPE  C31616387   5.268   4.662   8.532 -0.5209 -0.2498 -0.1104
  148SAPE  H16X16388   5.177   4.662   8.595 -0.5897 -2.3097 -0.1636
  148SAPE  H16Y16389   5.289   4.771   8.520 -0.6427 -0.2697 -0.5438
  148SAPE  C31716390   5.377   4.571   8.604  0.3149  0.1063 -0.2673
  148SAPE  H17X16391   5.399   4.479   8.545 -0.6814  0.0057 -0.4965
  148SAPE  H17Y16392   5.329   4.531   8.695 -1.3389  0.5518 -0.9093
  148SAPE  C31816393   5.499   4.653   8.641 -0.0401  0.0556  0.4135
  148SAPE  H18X16394   5.454   4.730   8.706 -2.9516 -0.0750 -1.2459
  148SAPE  H18Y16395   5.552   4.697   8.553 -0.9382 -0.3119 -0.3338
  148SAPE  H18Z16396   5.566   4.588   8.701 -2.5707 -2.4865  0.7243
  149SAPE     N16397   4.877   6.037   6.499  0.3256 -0.0989  0.1391
  149SAPE   HN116398   4.841   6.134   6.500 -1.3482 -0.6433  2.8950
  149SAPE   HN216399   4.867   5.989   6.407  0.6922  0.6314 -0.2903
  149SAPE   HN316400   4.826   5.993   6.578  0.6318 -0.7509 -0.0215
  149SAPE   C1216401   5.019   6.022   6.543  0.0224  0.3146  0.1633
  149SAPE  H12A16402   5.015   6.077   6.639 -1.1656  0.5389  0.0012
  149SAPE  H12B16403   5.087   6.076   6.474  1.3792 -1.9186 -0.3724
  149SAPE   C1116404   5.069   5.881   6.549  0.0450  0.4500  0.2599
  149SAPE  H11A16405   5.000   5.814   6.605  0.4001 -0.0098  0.1540
  149SAPE  H11B16406   5.168   5.880   6.598  0.4701 -0.2762 -0.5852
  149SAPE     P16407   4.995   5.745   6.336  0.4119  0.3310  0.0668
  149SAPE   O1316408   4.882   5.827   6.288  0.5631  0.5155  0.2318
  149SAPE   O1416409   5.072   5.670   6.233 -0.3948 -0.3991  0.0353
  149SAPE   O1216410   5.090   5.830   6.422 -0.2033  0.6097 -0.1328
  149SAPE   O1116411   4.940   5.640   6.452 -0.0493 -0.2380 -0.3039
  149SAPE    C116412   5.033   5.542   6.499 -1.1204  0.3831  0.8404
  149SAPE    HA16413   5.027   5.452   6.433  2.3667 -1.7464  3.1125
  149SAPE    HB16414   5.138   5.577   6.491 -0.9801 -0.2577 -0.5172
  149SAPE    C216415   4.997   5.493   6.645  0.0679  0.2313 -0.6297
  149SAPE    HS16416   5.026   5.575   6.714  1.0922 -1.5774  1.2153
  149SAPE   O2116417   5.068   5.379   6.676 -0.1895 -0.1960 -0.1339
  149SAPE   C2116418   5.103   5.355   6.802  0.2142  0.2505  0.1275
  149SAPE   O2216419   5.094   5.438   6.889 -0.0274 -0.7856  0.1838
  149SAPE   C2216420   5.150   5.212   6.816 -0.5114  0.7860 -0.5355
  149SAPE   H2R16421   5.072   5.147   6.772 -0.8827 -0.5419  1.9263
  149SAPE   H2S16422   5.240   5.193   6.753 -0.3231 -4.3371  0.8617
  149SAPE    C316423   4.844   5.460   6.658 -0.0776 -0.0226  0.5661
  149SAPE    HX16424   4.820   5.364   6.607 -2.5958 -1.0810  3.3998
  149SAPE    HY16425   4.796   5.538   6.596  2.7636  2.5486  1.3327
  149SAPE   O3116426   4.804   5.445   6.788 -0.2710 -0.6635  0.1222
  149SAPE   C3116427   4.777   5.569   6.848 -0.1123 -0.0135  1.0210
  149SAPE   O3216428   4.800   5.678   6.796  0.0678  0.3215  0.2031
  149SAPE   C3216429   4.694   5.547   6.977 -0.4748 -0.4095  0.0158
  149SAPE   H2X16430   4.750   5.489   7.054  2.0327 -0.3009 -1.5860
  149SAPE   H2Y16431   4.610   5.483   6.944 -0.9565 -2.3499  4.2930
  149SAPE   C2316432   5.160   5.158   6.959 -0.4694 -0.6006 -0.2891
  149SAPE   H3R16433   5.067   5.177   7.017  2.1814  1.2190  3.8319
  149SAPE   H3S16434   5.237   5.220   7.009 -0.4926 -0.2695 -0.6549
  149SAPE   C2416435   5.195   5.013   6.964  0.4349  0.1581 -0.3960
  149SAPE   H4R16436   5.124   4.950   6.907  1.4858  0.0093 -1.5874
  149SAPE   H4S16437   5.175   4.979   7.068 -0.2881  1.4153 -0.1015
  149SAPE   C2516438   5.335   4.978   6.926 -0.7170 -0.4372  0.1789
  149SAPE   H5R16439   5.346   4.965   6.817 -3.0390 -0.3471 -0.1243
  149SAPE   C2616440   5.437   4.943   7.012 -0.1689 -0.1013 -0.5107
  149SAPE   H6R16441   5.539   4.926   6.976 -0.8597 -2.0053 -1.7389
  149SAPE   C2716442   5.434   4.938   7.161  0.4982  0.0848  0.1183
  149SAPE   H7R16443   5.327   4.917   7.183 -0.2471  1.8509 -1.4423
  149SAPE   H7S16444   5.443   5.038   7.209 -1.4176  0.0393  0.6615
  149SAPE   C2816445   5.521   4.836   7.232  1.0688  0.0372  0.0003
  149SAPE   H8R16446   5.570   4.776   7.154  1.2616 -1.2981  1.1114
  149SAPE   C2916447   5.516   4.800   7.360 -0.3146 -0.2907 -0.0527
  149SAPE   H9R16448   5.575   4.710   7.386  1.1089  0.3154 -1.0697
  149SAPE  C21016449   5.424   4.870   7.462  0.3418  0.3747 -0.3235
  149SAPE  H10R16450   5.370   4.960   7.425 -0.3337  0.4629  0.8323
  149SAPE  H10S16451   5.489   4.903   7.546  0.9587 -2.5801  0.4649
  149SAPE  C21116452   5.334   4.763   7.516 -0.0939 -0.5251  0.0019
  149SAPE  H11R16453   5.258   4.735   7.441  2.8727 -1.3365 -2.9654
  149SAPE  C21216454   5.323   4.713   7.646  0.5915  0.0555  0.1272
  149SAPE  H12R16455   5.246   4.638   7.670  0.6543  0.2901  1.1350
  149SAPE  C21316456   5.403   4.765   7.760 -0.0854 -0.0788  0.2432
  149SAPE  H13R16457   5.341   4.774   7.851 -0.8444 -2.6664  0.0676
  149SAPE  H13S16458   5.454   4.861   7.736 -1.0025  0.4769  0.4832
  149SAPE  C21416459   5.523   4.671   7.786  0.4861  0.1530 -0.3133
  149SAPE  H14R16460   5.559   4.610   7.702 -0.1738 -1.5527  0.5917
  149SAPE  C21516461   5.581   4.646   7.910  0.1286  0.0129  0.0937
  149SAPE  H15R16462   5.662   4.571   7.916  0.0684  0.0196  4.4270
  149SAPE  C21616463   5.535   4.708   8.042 -1.0079  0.0288  0.9335
  149SAPE  H16R16464   5.496   4.632   8.113 -1.0829 -4.4316 -3.3344
  149SAPE  H16S16465   5.459   4.788   8.028  0.6410  1.3309 -1.3809
  149SAPE  C21716466   5.662   4.780   8.111 -0.1699 -0.2024  0.2611
  149SAPE  H17R16467   5.716   4.842   8.037  3.1141 -3.9136 -0.8315
  149SAPE  H17S16468   5.735   4.698   8.129  0.7050  0.4696 -0.1639
  149SAPE  C21816469   5.621   4.843   8.244  0.3050 -0.6565 -0.8877
  149SAPE  H18R16470   5.578   4.765   8.310 -0.0207 -1.5858 -2.1769
  149SAPE  H18S16471   5.538   4.916   8.230  2.4160  1.8887 -1.0042
  149SAPE  C21916472   5.743   4.906   8.316  0.2608 -0.8213  0.2641
  149SAPE  H19R16473   5.802   4.963   8.240  0.1023 -2.2985 -1.0128
  149SAPE  H19S16474   5.807   4.818   8.337  1.8483  0.7779  2.6877
  149SAPE  C22016475   5.707   4.984   8.438  0.3256  0.0444 -0.0541
  149SAPE  H20R16476   5.786   5.045   8.486 -0.7550 -0.0114  1.8735
  149SAPE  H20S16477   5.671   4.909   8.511 -1.4557 -0.3529 -1.2604
  149SAPE  H20T16478   5.632   5.062   8.416  0.9582  0.9485  0.9017
  149SAPE   C3316479   4.638   5.683   7.038 -0.7598 -0.6380 -0.1594
  149SAPE   H3X16480   4.577   5.630   7.114 -1.4742 -0.5400 -0.6468
  149SAPE   H3Y16481   4.581   5.739   6.961  2.2973  1.7600 -0.8901
  149SAPE   C3416482   4.729   5.782   7.110 -0.0498  0.6704 -0.0461
  149SAPE   H4X16483   4.666   5.851   7.171  1.5760  0.3783  2.1192
  149SAPE   H4Y16484   4.797   5.839   7.044 -1.6304  1.0622 -1.3941
  149SAPE   C3516485   4.822   5.716   7.210  0.2043  0.3455 -0.0097
  149SAPE   H5X16486   4.878   5.627   7.175 -1.8686 -0.5841 -1.1490
  149SAPE   H5Y16487   4.768   5.665   7.293 -0.1116 -0.4570 -0.7005
  149SAPE   C3616488   4.916   5.813   7.283 -0.0384  0.0669 -0.0042
  149SAPE   H6X16489   4.851   5.898   7.313  0.4713 -0.1752  1.9746
  149SAPE   H6Y16490   4.995   5.852   7.216 -0.3001 -2.1191 -1.6916
  149SAPE   C3716491   4.968   5.757   7.414  0.2142 -0.8500  0.3430
  149SAPE   H7X16492   5.036   5.673   7.391 -2.4351 -3.2999  0.9706
  149SAPE   H7Y16493   4.885   5.716   7.475 -0.3306  1.2616  1.1139
  149SAPE   C3816494   5.038   5.862   7.496 -0.0521 -0.0780 -0.0824
  149SAPE   H8X16495   4.982   5.958   7.504 -2.1142 -1.0291 -1.9222
  149SAPE   H8Y16496   5.131   5.878   7.438  0.5090 -3.0411 -0.1467
  149SAPE   C3916497   5.075   5.809   7.638 -0.0168 -0.9637  0.6403
  149SAPE   H9X16498   5.184   5.827   7.645  0.0426 -1.1644  0.2856
  149SAPE   H9Y16499   5.071   5.699   7.653 -3.4867 -0.9921  0.3183
  149SAPE  C31016500   5.020   5.888   7.764 -0.6286 -0.2836 -0.4722
  149SAPE  H10X16501   4.912   5.874   7.784 -0.9828  1.1770 -1.2168
  149SAPE  H10Y16502   5.027   5.996   7.741 -3.5325  0.4950  1.7696
  149SAPE  C31116503   5.102   5.878   7.891  0.5352 -0.4811 -0.4114
  149SAPE  H11X16504   5.058   5.957   7.956  1.2681 -0.7671  0.4494
  149SAPE  H11Y16505   5.210   5.899   7.877  0.2973  0.1913 -1.4199
  149SAPE  C31216506   5.073   5.749   7.963 -0.5342  0.7982  0.5311
  149SAPE  H12X16507   5.118   5.665   7.906  1.9229  2.5336 -0.2473
  149SAPE  H12Y16508   4.967   5.718   7.952 -0.4041  0.6502 -0.3478
  149SAPE  C31316509   5.108   5.747   8.112 -0.5675 -0.4207  0.0224
  149SAPE  H13X16510   5.086   5.648   8.157 -0.6447 -1.1152 -1.4708
  149SAPE  H13Y16511   5.046   5.818   8.170  1.1754 -0.6259  2.2899
  149SAPE  C31416512   5.254   5.788   8.147  0.7650 -0.3505  0.0484
  149SAPE  H14X16513   5.278   5.865   8.071 -4.5927 -0.5676 -2.3175
  149SAPE  H14Y16514   5.318   5.699   8.125  0.4873 -0.9401  1.4933
  149SAPE  C31516515   5.275   5.838   8.288 -0.4000 -0.7037 -0.1402
  149SAPE  H15X16516   5.196   5.914   8.307 -0.7892 -0.5967 -2.0684
  149SAPE  H15Y16517   5.367   5.900   8.277 -2.0064  1.5973 -1.4808
  149SAPE  C31616518   5.253   5.730   8.392 -0.1163  0.2991 -0.2550
  149SAPE  H16X16519   5.320   5.642   8.384  1.4725  1.5934 -2.0427
  149SAPE  H16Y16520   5.147   5.700   8.375  0.2501 -0.9216 -0.4296
  149SAPE  C31716521   5.265   5.794   8.533 -0.6525  0.2925  0.3932
  149SAPE  H17X16522   5.374   5.812   8.547 -0.5625  0.5791 -0.6396
  149SAPE  H17Y16523   5.225   5.718   8.603 -2.3035 -0.9191 -1.7582
  149SAPE  C31816524   5.201   5.925   8.555  0.1220  0.0382 -0.7972
  149SAPE  H18X16525   5.096   5.923   8.519  0.0809 -3.4415 -0.7955
  149SAPE  H18Y16526   5.247   6.008   8.497  0.2911  2.3918  2.4420
  149SAPE  H18Z16527   5.190   5.963   8.659 -1.9006  0.4024 -1.0917
  150SAPE     N16528   4.462   6.631   5.971 -0.1455 -0.3362 -0.0181
  150SAPE   HN116529   4.389   6.607   5.902  0.1159  0.6785 -0.6789
  150SAPE   HN216530   4.445   6.590   6.065  3.6885  0.4791  1.2279
  150SAPE   HN316531   4.462   6.735   5.964 -2.0703 -0.4147 -2.3425
  150SAPE   C1216532   4.595   6.570   5.940 -0.4337 -0.9026 -0.4750
  150SAPE  H12A16533   4.629   6.606   5.840  0.4529 -0.6462 -0.0859
  150SAPE  H12B16534   4.577   6.462   5.923 -1.8290 -0.5563 -1.4616
  150SAPE   C1116535   4.690   6.585   6.056 -0.9013  0.5578 -0.0899
  150SAPE  H11A16536   4.697   6.686   6.101 -0.9394  0.3421  0.4144
  150SAPE  H11B16537   4.788   6.565   6.007 -1.0216 -0.4820  0.0604
  150SAPE     P16538   4.575   6.497   6.276 -0.1862 -0.4882 -0.0141
  150SAPE   O1316539   4.442   6.525   6.226  0.4879  0.3561 -0.1576
  150SAPE   O1416540   4.588   6.375   6.356 -0.1418  0.0705 -0.0984
  150SAPE   O1216541   4.662   6.480   6.145  0.3170 -0.3019 -0.1455
  150SAPE   O1116542   4.625   6.622   6.364 -0.8896  0.3673 -0.5216
  150SAPE    C116543   4.761   6.637   6.408  0.7208 -0.3878  0.3218
  150SAPE    HA16544   4.816   6.544   6.433  1.0618  0.0608  1.3142
  150SAPE    HB16545   4.813   6.679   6.319 -2.0652  1.4019 -0.5759
  150SAPE    C216546   4.779   6.728   6.530 -0.5639  0.0485  0.2964
  150SAPE    HS16547   4.878   6.705   6.575  0.0419 -0.0644 -1.0382
  150SAPE   O2116548   4.674   6.707   6.622 -0.1699  0.1855  0.4215
  150SAPE   C2116549   4.682   6.599   6.693 -0.2822 -0.1765 -0.0159
  150SAPE   O2216550   4.766   6.511   6.685 -0.2725 -0.8121  0.5867
  150SAPE   C2216551   4.583   6.615   6.807 -0.4718  0.2417  0.3511
  150SAPE   H2R16552   4.488   6.658   6.768 -1.7888 -2.0318  0.8942
  150SAPE   H2S16553   4.564   6.515   6.850  1.1254  0.4094  1.5279
  150SAPE    C316554   4.786   6.876   6.494  0.0225  0.0257  0.4103
  150SAPE    HX16555   4.701   6.892   6.425  1.3823  0.4313 -1.2265
  150SAPE    HY16556   4.881   6.884   6.438  0.4699 -3.2746  0.4558
  150SAPE   O3116557   4.784   6.972   6.596  0.1884 -0.1261  0.1949
  150SAPE   C3116558   4.892   6.988   6.670 -0.9359 -0.5006 -0.5475
  150SAPE   O3216559   5.002   6.929   6.654 -0.0118 -0.2334  0.4650
  150SAPE   C3216560   4.854   7.076   6.783 -0.7667  0.0590  0.1888
  150SAPE   H2X16561   4.808   7.017   6.866 -3.0389 -1.3153 -1.9313
  150SAPE   H2Y16562   4.781   7.152   6.749  0.7713  0.5067 -2.4354
  150SAPE   C2316563   4.644   6.711   6.915 -0.3430  0.4777  0.0170
  150SAPE   H3R16564   4.556   6.762   6.959 -1.1233 -1.4453  0.8045
  150SAPE   H3S16565   4.700   6.790   6.861 -1.0517 -0.0515 -1.5754
  150SAPE   C2416566   4.722   6.637   7.019  0.2137  0.2245 -0.1983
  150SAPE   H4R16567   4.816   6.604   6.969 -0.9134 -0.0789 -2.1952
  150SAPE   H4S16568   4.670   6.552   7.067  1.1398  0.9802  2.3393
  150SAPE   C2516569   4.763   6.733   7.128  0.2755 -0.7044  0.4915
  150SAPE   H5R16570   4.829   6.815   7.094  0.0954 -0.0767  1.6297
  150SAPE   C2616571   4.736   6.725   7.256 -0.7706 -0.1326 -1.0449
  150SAPE   H6R16572   4.770   6.810   7.318  1.8588  0.2141 -2.7834
  150SAPE   C2716573   4.659   6.624   7.337  0.8483 -0.3630  0.5491
  150SAPE   H7R16574   4.725   6.609   7.425  1.2263  1.7897  0.6825
  150SAPE   H7S16575   4.666   6.521   7.295  1.0747  0.4100 -1.3647
  150SAPE   C2816576   4.516   6.677   7.360 -0.5044  0.2311 -0.8182
  150SAPE   H8R16577   4.480   6.745   7.282  0.6088 -0.7684 -2.2611
  150SAPE   C2916578   4.456   6.653   7.477  0.1029 -0.4322 -1.0369
  150SAPE   H9R16579   4.356   6.695   7.492  0.5293  0.4516 -0.5693
  150SAPE  C21016580   4.500   6.560   7.589  0.1234  0.2655  0.5696
  150SAPE  H10R16581   4.548   6.469   7.547 -2.6108 -1.1943  0.3720
  150SAPE  H10S16582   4.420   6.504   7.642 -0.3346  1.1968  0.8752
  150SAPE  C21116583   4.585   6.641   7.688  0.3627 -0.2521 -0.2924
  150SAPE  H11R16584   4.554   6.745   7.706  0.0050 -0.6538  1.6575
  150SAPE  C21216585   4.673   6.582   7.771 -0.8614  0.4357  0.5652
  150SAPE  H12R16586   4.741   6.633   7.841  1.8676  1.4231 -2.5362
  150SAPE  C21316587   4.713   6.435   7.771  0.3738  0.2728  0.2546
  150SAPE  H13R16588   4.702   6.392   7.670  0.8396 -1.4674  0.8975
  150SAPE  H13S16589   4.642   6.391   7.845  3.4514  0.0155  3.3325
  150SAPE  C21416590   4.857   6.408   7.817 -0.6774  0.1655  0.7945
  150SAPE  H14R16591   4.924   6.492   7.793  0.2923 -0.5052  1.1189
  150SAPE  C21516592   4.890   6.310   7.904  0.1930 -0.2123 -0.1748
  150SAPE  H15R16593   4.993   6.291   7.936 -0.4458 -2.1060  0.9608
  150SAPE  C21616594   4.786   6.208   7.962 -0.4843 -0.4115  0.6550
  150SAPE  H16R16595   4.817   6.101   7.956  0.4253 -0.1207 -0.1117
  150SAPE  H16S16596   4.683   6.211   7.920 -0.4144  2.0246  0.5454
  150SAPE  C21716597   4.755   6.239   8.111  0.3396 -0.5857 -0.1461
  150SAPE  H17R16598   4.837   6.215   8.181  0.4329  0.6489  0.2045
  150SAPE  H17S16599   4.673   6.170   8.141 -1.1233  0.7576 -0.8751
  150SAPE  C21816600   4.731   6.390   8.143 -0.3880  0.1389  1.1705
  150SAPE  H18R16601   4.639   6.427   8.093  0.1293  1.8296  1.4079
  150SAPE  H18S16602   4.821   6.449   8.117  0.6113 -1.7458  0.1250
  150SAPE  C21916603   4.707   6.407   8.292 -0.1333  0.0223 -0.3824
  150SAPE  H19R16604   4.795   6.375   8.350  0.0337  1.9899  0.5232
  150SAPE  H19S16605   4.631   6.332   8.323 -1.0132  0.2732 -1.8143
  150SAPE  C22016606   4.657   6.550   8.332  0.7375  0.1007  0.6292
  150SAPE  H20R16607   4.562   6.573   8.280  0.0540 -2.2057  0.7414
  150SAPE  H20S16608   4.723   6.634   8.302  0.5496  0.3199  0.8243
  150SAPE  H20T16609   4.645   6.547   8.442 -0.5515 -0.2448  0.4979
  150SAPE   C3316610   4.982   7.150   6.836  0.7024 -0.0828 -1.0056
  150SAPE   H3X16611   5.020   7.219   6.757 -1.5029  0.8102 -1.3762
  150SAPE   H3Y16612   5.058   7.080   6.876  0.6026  0.8684  0.9145
  150SAPE   C3416613   4.959   7.256   6.942  0.1508  0.1100  0.2980
  150SAPE   H4X16614   4.897   7.335   6.895  0.5857  0.0012 -0.4707
  150SAPE   H4Y16615   5.052   7.309   6.973  0.7313 -0.1840 -0.9016
  150SAPE   C3516616   4.899   7.205   7.081 -0.7631  0.2148  0.7404
  150SAPE   H5X16617   4.793   7.174   7.079 -0.2561 -1.8612  2.4194
  150SAPE   H5Y16618   4.893   7.296   7.144 -0.2591  3.4256 -3.3812
  150SAPE   C3616619   4.981   7.091   7.153  0.2731 -0.5498  0.3712
  150SAPE   H6X16620   5.083   7.135   7.151  0.0165  0.0530  0.2397
  150SAPE   H6Y16621   4.970   7.003   7.087 -0.6069 -0.3883  0.2812
  150SAPE   C3716622   4.925   7.066   7.292 -0.5229  0.1806 -0.2229
  150SAPE   H7X16623   4.822   7.024   7.284 -1.2219  2.0798 -2.3168
  150SAPE   H7Y16624   4.934   7.158   7.354  1.5207 -0.2271  0.1438
  150SAPE   C3816625   5.001   6.957   7.373  0.0241  0.0106 -0.4676
  150SAPE   H8X16626   5.102   7.002   7.387 -1.0195  1.9249  1.4389
  150SAPE   H8Y16627   5.011   6.862   7.316  2.2270  1.3438 -2.5255
  150SAPE   C3916628   4.961   6.927   7.520 -0.1464  0.0031  0.5156
  150SAPE   H9X16629   4.864   6.871   7.520  0.5349 -1.2323 -0.6740
  150SAPE   H9Y16630   4.951   7.024   7.573  0.4964 -0.3646  1.3307
  150SAPE  C31016631   5.049   6.823   7.590 -0.3801 -0.0104  0.5740
  150SAPE  H10X16632   5.140   6.877   7.623 -0.6768 -0.1156  1.5825
  150SAPE  H10Y16633   5.074   6.745   7.515 -2.1058 -0.0803  0.0268
  150SAPE  C31116634   4.979   6.772   7.715  0.6695  0.0584 -0.5043
  150SAPE  H11X16635   4.939   6.671   7.694  0.5853 -0.2949  1.2081
  150SAPE  H11Y16636   4.893   6.836   7.744  0.2409 -1.0921  0.8686
  150SAPE  C31216637   5.076   6.747   7.840 -0.0224 -0.4248 -0.1240
  150SAPE  H12X16638   5.007   6.719   7.922 -1.5308  0.2702 -1.1156
  150SAPE  H12Y16639   5.121   6.844   7.869  0.0299 -0.8751  1.3397
  150SAPE  C31316640   5.183   6.641   7.820  0.5424 -0.0457  0.2208
  150SAPE  H13X16641   5.258   6.682   7.749 -3.4505  3.8840 -2.3221
  150SAPE  H13Y16642   5.152   6.544   7.777 -1.4366 -1.6317  4.6253
  150SAPE  C31416643   5.234   6.608   7.963 -0.0138 -0.3217  0.4382
  150SAPE  H14X16644   5.254   6.698   8.026 -1.6269  1.7259 -1.7876
  150SAPE  H14Y16645   5.332   6.558   7.958  0.5649  0.9160 -1.3715
  150SAPE  C31516646   5.135   6.520   8.037  0.6677  0.5973 -0.2820
  150SAPE  H15X16647   5.125   6.432   7.969 -1.6546 -1.2416  2.1726
  150SAPE  H15Y16648   5.031   6.551   8.060  0.7130 -0.6247  1.8120
  150SAPE  C31616649   5.195   6.480   8.175 -0.2398  0.2702  0.0560
  150SAPE  H16X16650   5.197   6.570   8.239  0.5024  0.0153  0.4028
  150SAPE  H16Y16651   5.301   6.454   8.156  0.2227  1.1840  1.2858
  150SAPE  C31716652   5.124   6.371   8.254  0.2707  0.0982 -1.1018
  150SAPE  H17X16653   5.109   6.288   8.182  0.0435 -0.3042 -0.5909
  150SAPE  H17Y16654   5.024   6.414   8.277 -0.0937 -0.9423 -0.6718
  150SAPE  C31816655   5.189   6.303   8.378 -0.2279 -0.1885 -0.3329
  150SAPE  H18X16656   5.236   6.383   8.439  0.2376 -0.1845 -0.6852
  150SAPE  H18Y16657   5.267   6.233   8.341  2.8637  2.2669  1.0342
  150SAPE  H18Z16658   5.111   6.244   8.430 -1.7471  2.9367  1.1936
  151SAPE     N16659   6.298   4.652   6.281 -0.0806  0.2367 -0.4753
  151SAPE   HN116660   6.229   4.714   6.235 -1.9951 -1.3271  0.1209
  151SAPE   HN216661   6.332   4.691   6.371  1.1467  1.1307 -1.2925
  151SAPE   HN316662   6.381   4.629   6.222 -1.3998 -2.0176 -1.6020
  151SAPE   C1216663   6.225   4.521   6.308  0.0916  0.3216  0.7469
  151SAPE  H12A16664   6.279   4.489   6.400  1.1146  2.7859  1.1031
  151SAPE  H12B16665   6.246   4.457   6.220  0.1421  2.4766 -0.8948
  151SAPE   C1116666   6.079   4.561   6.316 -0.0248 -0.7000  0.6520
  151SAPE  H11A16667   6.061   4.625   6.405 -3.3438 -0.2907 -0.1576
  151SAPE  H11B16668   6.014   4.473   6.332 -0.7939 -0.2362  0.1575
  151SAPE     P16669   5.889   4.683   6.187  0.1434  0.3448  0.3190
  151SAPE   O1316670   5.878   4.804   6.101  0.4701 -0.1401  0.1885
  151SAPE   O1416671   5.818   4.562   6.122  0.3609 -1.3568 -0.3551
  151SAPE   O1216672   6.039   4.638   6.198  0.0942  0.1397 -0.0712
  151SAPE   O1116673   5.848   4.710   6.339  0.6597  0.2027 -0.7895
  151SAPE    C116674   5.817   4.841   6.387  0.0855  0.1398 -0.0035
  151SAPE    HA16675   5.808   4.916   6.305  0.6284  0.9461  0.6545
  151SAPE    HB16676   5.722   4.837   6.444 -0.1087 -2.8712 -0.3918
  151SAPE    C216677   5.919   4.894   6.493  0.2502 -0.3571  0.5203
  151SAPE    HS16678   6.019   4.873   6.449 -0.0379  2.1536 -1.5755
  151SAPE   O2116679   5.894   4.823   6.611  0.0416 -0.7027 -0.6101
  151SAPE   C2116680   5.990   4.778   6.695 -0.2551 -1.1290 -0.1143
  151SAPE   O2216681   6.110   4.791   6.677  0.4978 -0.1173 -0.0108
  151SAPE   C2216682   5.932   4.732   6.826  0.6928 -0.0161  0.3667
  151SAPE   H2R16683   5.853   4.807   6.851  1.0922  1.2206 -1.8685
  151SAPE   H2S16684   5.878   4.636   6.815 -1.7856  0.9203  2.8708
  151SAPE    C316685   5.903   5.048   6.504 -0.4936  0.6162  0.6176
  151SAPE    HX16686   5.798   5.071   6.532 -0.8572  0.5608 -0.6371
  151SAPE    HY16687   5.930   5.101   6.410  0.7822 -0.8260  0.1418
  151SAPE   O3116688   5.987   5.093   6.607  0.3527 -0.6644  0.3905
  151SAPE   C3116689   6.104   5.134   6.567 -1.1200 -0.2890 -0.1811
  151SAPE   O3216690   6.157   5.122   6.462  0.0365 -0.2072  0.2644
  151SAPE   C3216691   6.175   5.197   6.688 -0.3800 -0.3389 -0.0143
  151SAPE   H2X16692   6.106   5.272   6.734  0.2453  1.0098 -1.1793
  151SAPE   H2Y16693   6.262   5.262   6.665 -0.2671 -0.4779  0.0234
  151SAPE   C2316694   6.034   4.726   6.941 -0.5401  0.5223  0.5845
  151SAPE   H3R16695   6.096   4.818   6.945  1.8372 -1.0241  2.6253
  151SAPE   H3S16696   6.099   4.641   6.909 -2.9082 -1.4057  0.6240
  151SAPE   C2416697   5.964   4.718   7.074 -0.2751  0.1897  0.4317
  151SAPE   H4R16698   5.895   4.632   7.080 -0.9050  0.5643 -0.9719
  151SAPE   H4S16699   5.897   4.806   7.087  0.6932  1.3117 -1.5579
  151SAPE   C2516700   6.064   4.699   7.184  0.7505  0.4330 -0.4856
  151SAPE   H5R16701   6.159   4.747   7.160  1.1927  0.2021  0.7664
  151SAPE   C2616702   6.033   4.643   7.308  0.2661 -0.3782 -0.4379
  151SAPE   H6R16703   6.118   4.631   7.377 -1.7290  0.2494  2.2721
  151SAPE   C2716704   5.908   4.584   7.350  1.0346 -0.9423 -1.3841
  151SAPE   H7R16705   5.926   4.474   7.351 -3.2154 -1.8162 -0.8665
  151SAPE   H7S16706   5.819   4.594   7.285  0.5359  2.0053 -0.3857
  151SAPE   C2816707   5.877   4.653   7.486 -0.5116  0.1309 -0.1303
  151SAPE   H8R16708   5.850   4.759   7.482 -0.9919 -0.0210 -1.7389
  151SAPE   C2916709   5.888   4.589   7.604 -0.5443 -0.4394 -0.1247
  151SAPE   H9R16710   5.870   4.645   7.697  1.3624  1.3016 -0.7248
  151SAPE  C21016711   5.937   4.450   7.638  0.4396 -0.2623  0.7259
  151SAPE  H10R16712   6.001   4.454   7.729 -1.3837  1.1930  2.0265
  151SAPE  H10S16713   5.990   4.399   7.554  0.4797 -1.0056  1.1970
  151SAPE  C21116714   5.813   4.372   7.674 -0.1565  0.0559  0.8323
  151SAPE  H11R16715   5.727   4.381   7.606 -0.1364 -0.3283  0.7539
  151SAPE  C21216716   5.814   4.279   7.773  0.1828 -1.0956 -0.0390
  151SAPE  H12R16717   5.723   4.226   7.803 -0.6868  1.6912  2.7921
  151SAPE  C21316718   5.928   4.245   7.868 -0.1471 -0.2162 -0.2385
  151SAPE  H13R16719   5.969   4.326   7.931 -3.2778 -0.1624  2.0039
  151SAPE  H13S16720   6.011   4.228   7.796  0.2552  0.7569 -0.0248
  151SAPE  C21416721   5.904   4.136   7.970 -0.1397 -0.2404  0.4516
  151SAPE  H14R16722   5.851   4.170   8.060 -1.0005 -3.2448  1.1801
  151SAPE  C21516723   5.933   4.002   7.962  0.6650  0.0890  0.0133
  151SAPE  H15R16724   5.893   3.950   8.050 -2.8040  2.3056 -0.0650
  151SAPE  C21616725   6.002   3.929   7.847  0.2233  0.2622 -0.0676
  151SAPE  H16R16726   6.113   3.935   7.839  0.1221  2.0761 -0.6545
  151SAPE  H16S16727   5.964   3.951   7.745  0.9035 -3.3759 -1.2686
  151SAPE  C21716728   5.982   3.775   7.862  0.1387 -0.1738  0.1939
  151SAPE  H17R16729   6.060   3.732   7.796 -1.9840 -1.4240 -1.6464
  151SAPE  H17S16730   5.884   3.741   7.822  0.8762 -1.8111 -0.3043
  151SAPE  C21816731   6.017   3.716   7.997  0.0996  0.0428 -0.0483
  151SAPE  H18R16732   5.944   3.735   8.078  0.5794 -0.7830  0.5840
  151SAPE  H18S16733   6.116   3.755   8.028  0.5812 -2.2027  1.3978
  151SAPE  C21916734   6.025   3.562   7.987  0.5274 -0.5885 -0.2431
  151SAPE  H19R16735   6.084   3.535   7.897  0.3294 -1.2145 -0.1887
  151SAPE  H19S16736   5.929   3.512   7.962  0.4144 -0.2369 -0.5187
  151SAPE  C22016737   6.068   3.502   8.117 -0.2932  0.5204 -0.5595
  151SAPE  H20R16738   6.065   3.394   8.090  1.3605  0.2675  0.1770
  151SAPE  H20S16739   6.168   3.531   8.154 -1.0734  0.3714  1.8299
  151SAPE  H20T16740   5.995   3.532   8.195 -0.8895  0.5539 -1.1216
  151SAPE   C3316741   6.224   5.092   6.791 -0.7880  0.9046  0.3829
  151SAPE   H3X16742   6.297   5.024   6.741 -1.9278 -1.0161  1.2064
  151SAPE   H3Y16743   6.140   5.037   6.839  0.6403 -1.1727  0.6309
  151SAPE   C3416744   6.294   5.164   6.904 -0.6278  0.7563  0.9873
  151SAPE   H4X16745   6.237   5.252   6.941 -0.8205  0.3299  1.7065
  151SAPE   H4Y16746   6.393   5.202   6.871 -0.1715 -0.2845  1.1233
  151SAPE   C3516747   6.324   5.085   7.025 -0.0695  0.5003  0.7985
  151SAPE   H5X16748   6.395   5.005   6.997 -0.4510  0.3162  0.3241
  151SAPE   H5Y16749   6.231   5.031   7.055 -0.5693  1.1036  0.3777
  151SAPE   C3616750   6.381   5.166   7.139 -0.0144 -0.1214  0.3855
  151SAPE   H6X16751   6.302   5.238   7.168 -3.1041 -2.5808 -1.3299
  151SAPE   H6Y16752   6.476   5.214   7.106 -0.6729  0.1431 -1.2015
  151SAPE   C3716753   6.421   5.086   7.264 -0.8218 -0.4425  0.2692
  151SAPE   H7X16754   6.488   5.140   7.334 -0.2457 -0.3152 -0.3593
  151SAPE   H7Y16755   6.491   5.013   7.217 -1.0448 -0.1705 -0.5062
  151SAPE   C3816756   6.309   5.013   7.334 -0.4223 -0.2821 -0.0670
  151SAPE   H8X16757   6.283   4.927   7.268  1.6947  0.8953 -2.5912
  151SAPE   H8Y16758   6.221   5.078   7.348 -0.5441 -0.8404  2.1875
  151SAPE   C3916759   6.352   4.933   7.468 -0.1260 -0.1961 -0.0733
  151SAPE   H9X16760   6.443   4.870   7.454 -1.1781 -1.9087  0.4738
  151SAPE   H9Y16761   6.279   4.859   7.506 -0.1650 -1.1064 -1.8737
  151SAPE  C31016762   6.386   5.024   7.591 -0.2813 -0.5246 -0.2283
  151SAPE  H10X16763   6.288   5.067   7.619  0.0908  0.5856 -0.5819
  151SAPE  H10Y16764   6.445   5.106   7.547 -0.2039 -0.5795 -0.2275
  151SAPE  C31116765   6.457   4.951   7.703 -0.4859  0.4559  0.0065
  151SAPE  H11X16766   6.548   4.907   7.658 -1.0229  0.7696 -1.4720
  151SAPE  H11Y16767   6.397   4.867   7.744  1.7577 -0.9120  0.6525
  151SAPE  C31216768   6.482   5.040   7.823  0.6078 -0.3550 -0.3891
  151SAPE  H12X16769   6.394   5.105   7.845  2.1359  1.2036  1.4213
  151SAPE  H12Y16770   6.562   5.108   7.787  0.4637 -0.3313 -0.6724
  151SAPE  C31316771   6.529   4.967   7.948  0.1075 -1.0436 -0.6153
  151SAPE  H13X16772   6.636   4.941   7.931  1.8082  3.9662  0.6655
  151SAPE  H13Y16773   6.466   4.876   7.955 -1.9624 -0.0433 -4.0259
  151SAPE  C31416774   6.530   5.058   8.070 -0.1204 -0.5091 -0.5731
  151SAPE  H14X16775   6.433   5.100   8.103  0.7505  1.0537  0.1327
  151SAPE  H14Y16776   6.589   5.150   8.050 -2.2149  1.8901  3.1224
  151SAPE  C31516777   6.605   5.000   8.186 -0.0219 -0.3969 -0.3653
  151SAPE  H15X16778   6.603   5.078   8.265 -1.0623 -0.2121 -0.5580
  151SAPE  H15Y16779   6.704   4.958   8.158 -0.2719 -1.3890  0.1891
  151SAPE  C31616780   6.527   4.879   8.228 -0.2753  0.2561 -0.0425
  151SAPE  H16X16781   6.526   4.798   8.152  0.8705 -1.1411  1.3697
  151SAPE  H16Y16782   6.421   4.901   8.251 -0.0917  1.5820 -0.3407
  151SAPE  C31716783   6.593   4.806   8.349 -0.8343  0.4722 -0.6158
  151SAPE  H17X16784   6.701   4.785   8.339  0.1043  3.3630  1.8361
  151SAPE  H17Y16785   6.539   4.710   8.365  2.1809 -1.4545 -1.2249
  151SAPE  C31816786   6.583   4.887   8.483  0.0178  0.4954  1.0242
  151SAPE  H18X16787   6.612   4.994   8.471 -0.5229  0.7335  1.7920
  151SAPE  H18Y16788   6.646   4.846   8.565  0.9018  1.6762  0.9672
  151SAPE  H18Z16789   6.474   4.888   8.502 -0.4600 -0.4011 -1.2806
  152SAPE     N16790   4.175   6.517   6.267 -0.9297 -0.5638 -0.6230
  152SAPE   HN116791   4.171   6.530   6.370  0.8829  2.2128 -0.7754
  152SAPE   HN216792   4.145   6.421   6.241 -1.5005 -0.3725 -0.6845
  152SAPE   HN316793   4.275   6.534   6.243 -0.7546 -2.0695 -1.0299
  152SAPE   C1216794   4.070   6.614   6.211 -0.0742 -0.0078  0.0582
  152SAPE  H12A16795   3.974   6.579   6.254  0.0417 -0.1951  0.1688
  152SAPE  H12B16796   4.063   6.599   6.102 -2.2274 -0.3801  0.2064
  152SAPE   C1116797   4.115   6.758   6.239  0.5505  1.2363  0.0462
  152SAPE  H11A16798   4.133   6.777   6.347 -1.1220  0.4020  0.4989
  152SAPE  H11B16799   4.030   6.827   6.219  0.3993  0.9734 -0.2216
  152SAPE     P16800   4.281   6.932   6.142  0.0983  0.2171  0.0190
  152SAPE   O1316801   4.420   6.932   6.090 -0.0200 -0.5726  0.7819
  152SAPE   O1416802   4.178   7.005   6.064 -0.5033  0.1949 -0.6068
  152SAPE   O1216803   4.232   6.783   6.160  0.3846 -0.3947 -0.2904
  152SAPE   O1116804   4.282   6.995   6.283 -0.7538  0.7921 -0.0362
  152SAPE    C116805   4.353   6.919   6.387  0.4036  0.1617  0.2358
  152SAPE    HA16806   4.360   6.810   6.372  0.8327  0.1248  0.6499
  152SAPE    HB16807   4.461   6.948   6.391  0.7844 -0.3451 -3.1617
  152SAPE    C216808   4.290   6.941   6.528 -0.9403  0.1299 -0.1267
  152SAPE    HS16809   4.186   6.904   6.528 -0.2688 -2.3226  3.3033
  152SAPE   O2116810   4.288   7.084   6.553 -0.9518  0.1077  0.5058
  152SAPE   C2116811   4.204   7.142   6.644 -0.2602  1.5153 -0.4455
  152SAPE   O2216812   4.122   7.079   6.708 -0.0475 -0.2044 -0.3279
  152SAPE   C2216813   4.241   7.287   6.675  0.5651  0.2952  0.5993
  152SAPE   H2R16814   4.319   7.316   6.601  0.1277 -1.5421 -0.6474
  152SAPE   H2S16815   4.147   7.346   6.672 -0.6251 -1.3389  2.7429
  152SAPE    C316816   4.377   6.863   6.637 -0.5930 -0.4869 -0.2628
  152SAPE    HX16817   4.481   6.901   6.633 -0.7958 -0.0157 -1.2890
  152SAPE    HY16818   4.382   6.757   6.605 -0.0283 -0.5984  0.1738
  152SAPE   O3116819   4.329   6.873   6.771  0.0353 -0.2932  0.3736
  152SAPE   C3116820   4.235   6.789   6.805 -0.1362  0.3436 -0.5990
  152SAPE   O3216821   4.185   6.699   6.741  0.3395 -0.2480 -0.5958
  152SAPE   C3216822   4.201   6.814   6.953  0.2329 -0.3726 -0.6465
  152SAPE   H2X16823   4.162   6.918   6.960  3.2307  0.9894 -2.4543
  152SAPE   H2Y16824   4.292   6.803   7.015 -1.2440 -0.3634  1.6381
  152SAPE   C2316825   4.277   7.310   6.825 -0.0642 -0.0644  0.3498
  152SAPE   H3R16826   4.222   7.240   6.891 -2.0243 -1.4575 -2.5155
  152SAPE   H3S16827   4.248   7.415   6.846  0.8985 -0.2290  2.7481
  152SAPE   C2416828   4.427   7.333   6.865  0.4344  0.6548 -0.4057
  152SAPE   H4R16829   4.429   7.387   6.962  0.3056  0.6667 -0.4099
  152SAPE   H4S16830   4.477   7.405   6.796 -0.0338  2.1949  0.8180
  152SAPE   C2516831   4.494   7.198   6.856 -0.3375  0.2478 -0.3120
  152SAPE   H5R16832   4.542   7.187   6.757  1.7631  0.9307  0.5653
  152SAPE   C2616833   4.480   7.108   6.951  0.1662 -0.0863 -0.0711
  152SAPE   H6R16834   4.547   7.021   6.953 -0.5770 -0.6923 -0.7845
  152SAPE   C2716835   4.400   7.127   7.080  0.0203  0.3318  0.9591
  152SAPE   H7R16836   4.294   7.105   7.055 -0.0653  0.0691  1.5246
  152SAPE   H7S16837   4.401   7.228   7.126  2.4265  1.3577 -1.1269
  152SAPE   C2816838   4.449   7.032   7.193 -0.2092 -1.2713  0.0028
  152SAPE   H8R16839   4.520   6.956   7.157 -1.2945 -0.4262 -4.6655
  152SAPE   C2916840   4.403   7.024   7.318  0.2162 -0.0908 -0.9665
  152SAPE   H9R16841   4.469   6.966   7.384 -0.9163  0.2618  0.5276
  152SAPE  C21016842   4.299   7.109   7.386 -0.2577  0.0359  0.4911
  152SAPE  H10R16843   4.212   7.125   7.319 -0.0560 -2.5103 -0.4752
  152SAPE  H10S16844   4.346   7.208   7.403  0.3866  0.4101 -2.8171
  152SAPE  C21116845   4.239   7.051   7.516  0.7797 -0.1037 -0.2818
  152SAPE  H11R16846   4.130   7.042   7.507  0.9176 -1.6389 -0.6566
  152SAPE  C21216847   4.287   7.031   7.640  0.2747  0.4189  0.8683
  152SAPE  H12R16848   4.213   7.002   7.716 -2.0238  3.1301 -0.1433
  152SAPE  C21316849   4.428   7.040   7.685 -0.1658 -0.2915 -0.2819
  152SAPE  H13R16850   4.490   7.104   7.618  1.0850 -1.4027 -0.2157
  152SAPE  H13S16851   4.460   6.934   7.682 -0.2330 -0.3025 -0.6299
  152SAPE  C21416852   4.442   7.098   7.820 -0.4368  0.0859 -0.2277
  152SAPE  H14R16853   4.415   7.205   7.823 -0.5124  0.0930 -1.1621
  152SAPE  C21516854   4.500   7.045   7.926  0.9796  0.4485 -0.2012
  152SAPE  H15R16855   4.515   7.106   8.016 -0.1057  1.0102 -0.3941
  152SAPE  C21616856   4.554   6.907   7.929 -0.7395  0.2413 -0.1108
  152SAPE  H16R16857   4.646   6.893   7.868 -1.0842 -2.7336 -0.0893
  152SAPE  H16S16858   4.476   6.849   7.876 -1.7448  1.0820  0.4242
  152SAPE  C21716859   4.573   6.842   8.068  0.3527 -0.5231 -0.7045
  152SAPE  H17R16860   4.576   6.731   8.061 -0.7320 -0.6074 -0.1905
  152SAPE  H17S16861   4.484   6.866   8.130 -0.3498 -1.7368 -1.2031
  152SAPE  C21816862   4.694   6.891   8.160  0.4465  0.3851  0.4793
  152SAPE  H18R16863   4.682   6.850   8.262 -0.0880  0.1512  0.3291
  152SAPE  H18S16864   4.684   7.001   8.167 -2.1311  0.1681  1.4489
  152SAPE  C21916865   4.815   6.838   8.096  0.1887  0.1961  0.8574
  152SAPE  H19R16866   4.847   6.896   8.006 -0.9780 -0.9384 -0.3272
  152SAPE  H19S16867   4.800   6.731   8.073 -0.6226  0.3276  0.7630
  152SAPE  C22016868   4.941   6.842   8.185 -0.3004  0.0099  0.2836
  152SAPE  H20R16869   5.024   6.781   8.143 -0.5384 -0.6020  0.7000
  152SAPE  H20S16870   4.915   6.796   8.282  0.3018  1.9971  1.4454
  152SAPE  H20T16871   4.986   6.942   8.204 -2.5686  1.2313 -0.4466
  152SAPE   C3316872   4.090   6.718   7.006  0.5774 -0.2493 -0.4039
  152SAPE   H3X16873   4.113   6.613   6.978  1.4045  0.1833 -1.4211
  152SAPE   H3Y16874   3.989   6.749   6.973 -0.3612 -1.4091  1.2309
  152SAPE   C3416875   4.105   6.726   7.156 -0.0601 -0.1414  0.1162
  152SAPE   H4X16876   4.089   6.827   7.200 -1.7829 -0.4759  0.2974
  152SAPE   H4Y16877   4.204   6.686   7.185  0.2253 -0.4232 -1.1901
  152SAPE   C3516878   3.994   6.642   7.223  0.7890 -0.6118 -0.9416
  152SAPE   H5X16879   4.001   6.534   7.197  3.0349 -0.4855 -1.1005
  152SAPE   H5Y16880   3.894   6.677   7.190 -0.8615 -4.1601 -0.1563
  152SAPE   C3616881   4.013   6.650   7.377 -0.3744  0.2881 -1.0436
  152SAPE   H6X16882   4.123   6.661   7.392 -0.6320  0.5238  0.8483
  152SAPE   H6Y16883   3.984   6.553   7.423  1.0100 -0.0703 -0.8757
  152SAPE   C3716884   3.930   6.762   7.431 -0.5641 -0.1889  0.3155
  152SAPE   H7X16885   3.823   6.733   7.438 -0.6816  0.1903  0.1170
  152SAPE   H7Y16886   3.939   6.853   7.367  0.8955  0.2197  1.0557
  152SAPE   C3816887   3.993   6.799   7.568  0.8964  0.3482  0.3092
  152SAPE   H8X16888   3.970   6.906   7.584  0.9362  0.3331  0.4684
  152SAPE   H8Y16889   4.103   6.784   7.571  0.6035 -1.9232  2.1002
  152SAPE   C3916890   3.951   6.699   7.682 -0.4257  0.5686  0.6683
  152SAPE   H9X16891   3.981   6.597   7.647  3.9240  2.0860 -0.6789
  152SAPE   H9Y16892   3.842   6.709   7.696 -0.5168 -1.4807  1.8378
  152SAPE  C31016893   4.023   6.734   7.805  0.8420  0.1163 -0.2320
  152SAPE  H10X16894   3.952   6.719   7.890 -0.1697  0.0617 -1.0658
  152SAPE  H10Y16895   4.043   6.843   7.806 -1.0607  0.5048 -1.1135
  152SAPE  C31116896   4.155   6.666   7.848  0.7807 -0.2410 -0.6452
  152SAPE  H11X16897   4.197   6.729   7.929  0.4531 -1.3572  0.4264
  152SAPE  H11Y16898   4.232   6.669   7.768 -0.3948  1.1709 -1.7955
  152SAPE  C31216899   4.133   6.524   7.890 -1.1060 -0.2194  0.0979
  152SAPE  H12X16900   4.094   6.468   7.802 -2.4137 -1.4727  1.4032
  152SAPE  H12Y16901   4.062   6.502   7.973 -0.5765 -2.2193  0.0796
  152SAPE  C31316902   4.260   6.442   7.933 -0.1835 -0.3052  0.3148
  152SAPE  H13X16903   4.329   6.476   8.013  0.7459 -1.1409 -0.1090
  152SAPE  H13Y16904   4.318   6.441   7.838  1.2750  1.6879  1.1233
  152SAPE  C31416905   4.228   6.300   7.971 -0.3079 -0.4830 -0.6495
  152SAPE  H14X16906   4.144   6.263   7.908 -0.5586 -2.7344  0.8548
  152SAPE  H14Y16907   4.177   6.296   8.070  2.6603 -1.9738  0.9685
  152SAPE  C31516908   4.350   6.207   7.984  0.1688  0.0304  0.4008
  152SAPE  H15X16909   4.413   6.238   8.071  1.0659  0.5956 -0.4243
  152SAPE  H15Y16910   4.411   6.223   7.893 -1.1829  0.2535 -0.4929
  152SAPE  C31616911   4.324   6.053   7.994  0.3891 -0.2764  0.4480
  152SAPE  H16X16912   4.268   6.036   7.900 -1.4790  0.6882  1.3199
  152SAPE  H16Y16913   4.276   6.020   8.089 -1.3653 -0.6697 -0.5238
  152SAPE  C31716914   4.454   5.973   8.003 -0.4636 -0.1272  0.2653
  152SAPE  H17X16915   4.504   6.006   8.097  0.0283  0.0915 -0.0715
  152SAPE  H17Y16916   4.520   5.997   7.917  0.8507  0.0888  1.2975
  152SAPE  C31816917   4.452   5.820   7.997 -0.0297 -0.9732 -0.3110
  152SAPE  H18X16918   4.551   5.771   7.989 -0.2525 -1.6879  1.0702
  152SAPE  H18Y16919   4.384   5.800   7.911  0.7591  2.8263 -2.0258
  152SAPE  H18Z16920   4.393   5.783   8.084 -1.8445 -0.1826 -1.1339
  153SAPE     N16921   2.590   6.245   6.098 -0.6539 -0.1269  0.0885
  153SAPE   HN116922   2.556   6.241   6.000 -1.1512 -1.9375  0.2943
  153SAPE   HN216923   2.655   6.325   6.100 -2.4556  1.5265 -2.1135
  153SAPE   HN316924   2.638   6.154   6.113  0.5403  0.3963 -0.4504
  153SAPE   C1216925   2.478   6.255   6.198  0.4552  0.1365 -0.0255
  153SAPE  H12A16926   2.492   6.193   6.290 -0.5449 -0.1958 -0.0883
  153SAPE  H12B16927   2.390   6.212   6.146 -0.3157  0.0873  1.2726
  153SAPE   C1116928   2.455   6.390   6.258 -0.5813  0.1031  0.5617
  153SAPE  H11A16929   2.548   6.421   6.310 -1.7578 -0.5358  3.2102
  153SAPE  H11B16930   2.383   6.383   6.343  1.2386 -0.2568  2.1596
  153SAPE     P16931   2.358   6.624   6.219  0.4670  0.1452  0.2191
  153SAPE   O1316932   2.472   6.712   6.251  0.1668  0.5221  0.5049
  153SAPE   O1416933   2.270   6.682   6.116 -0.6386  0.2815  0.0478
  153SAPE   O1216934   2.412   6.483   6.157 -0.2570 -0.2769 -0.7847
  153SAPE   O1116935   2.285   6.591   6.352  0.2817 -0.2152 -0.0350
  153SAPE    C116936   2.142   6.555   6.338  0.1121 -0.6270  0.3142
  153SAPE    HA16937   2.094   6.654   6.329  1.7736  0.1696 -0.1885
  153SAPE    HB16938   2.122   6.483   6.256  2.4752 -2.4124  1.1872
  153SAPE    C216939   2.095   6.483   6.462 -0.4202 -1.4578  0.2999
  153SAPE    HS16940   2.145   6.384   6.470  1.5615 -0.6448 -1.0477
  153SAPE   O2116941   1.947   6.480   6.460 -0.4860  0.6143 -0.6577
  153SAPE   C2116942   1.897   6.385   6.392 -0.4542 -0.1399  1.2049
  153SAPE   O2216943   1.961   6.304   6.324 -0.1887  0.2255  0.2737
  153SAPE   C2216944   1.745   6.379   6.401  0.0383 -0.2698  0.1952
  153SAPE   H2R16945   1.698   6.461   6.343 -1.4907  0.3570  2.2228
  153SAPE   H2S16946   1.710   6.279   6.369  0.8835 -0.3653 -0.4663
  153SAPE    C316947   2.144   6.556   6.593  1.2215  0.3569  0.2382
  153SAPE    HX16948   2.134   6.666   6.607  0.1423 -0.0114  3.0813
  153SAPE    HY16949   2.252   6.533   6.603  0.7695 -1.7133  0.7962
  153SAPE   O3116950   2.085   6.493   6.705 -0.5201 -0.4365  0.1400
  153SAPE   C3116951   1.980   6.557   6.756  0.7055 -0.9048 -0.6695
  153SAPE   O3216952   1.920   6.642   6.698  0.4768  0.6266  0.1171
  153SAPE   C3216953   1.951   6.521   6.899 -0.4135  0.5161  0.4302
  153SAPE   H2X16954   2.021   6.437   6.922  1.0433  1.5689  0.0102
  153SAPE   H2Y16955   1.848   6.479   6.903 -1.0098  1.9344  0.4997
  153SAPE   C2316956   1.692   6.398   6.547 -0.6047  0.2170  0.6727
  153SAPE   H3R16957   1.732   6.491   6.594 -0.6673  0.2531  0.6553
  153SAPE   H3S16958   1.733   6.308   6.598  0.7218 -0.1847 -1.0136
  153SAPE   C2416959   1.539   6.391   6.545  0.4954 -0.2915 -0.0300
  153SAPE   H4R16960   1.518   6.329   6.456  3.0028  0.6817 -1.3823
  153SAPE   H4S16961   1.503   6.496   6.534  1.1351  0.2799  2.6148
  153SAPE   C2516962   1.488   6.329   6.678 -0.0104  0.0952 -0.5087
  153SAPE   H5R16963   1.494   6.219   6.688  4.1718  0.0473 -1.5359
  153SAPE   C2616964   1.453   6.405   6.786 -0.0422  0.0918  0.4876
  153SAPE   H6R16965   1.408   6.348   6.869  0.8456 -0.4892  0.5791
  153SAPE   C2716966   1.456   6.551   6.796 -0.4047 -0.0466 -0.0008
  153SAPE   H7R16967   1.553   6.567   6.745 -1.7080  0.7198 -2.3584
  153SAPE   H7S16968   1.465   6.571   6.905 -1.7174  0.2935  0.0622
  153SAPE   C2816969   1.334   6.621   6.731 -0.9201 -0.8110  0.0080
  153SAPE   H8R16970   1.334   6.613   6.621  0.9464 -0.4516 -0.0450
  153SAPE   C2916971   1.232   6.692   6.791 -0.8034 -0.5774  0.3876
  153SAPE   H9R16972   1.153   6.739   6.729 -0.2978  2.3809  1.8096
  153SAPE  C21016973   1.200   6.710   6.938  0.3494  0.6515 -0.0148
  153SAPE  H10R16974   1.107   6.769   6.954  1.1139  1.4826  1.6358
  153SAPE  H10S16975   1.272   6.771   6.996  0.8926  0.6707 -0.6965
  153SAPE  C21116976   1.186   6.589   7.024  0.2971 -0.1379 -0.3578
  153SAPE  H11R16977   1.238   6.591   7.121  0.6426 -0.9837 -0.5128
  153SAPE  C21216978   1.100   6.487   7.007  0.4873 -0.3430 -0.0651
  153SAPE  H12R16979   1.095   6.413   7.088  0.1052 -0.4065 -0.1449
  153SAPE  C21316980   1.007   6.462   6.892 -0.2436  0.7669 -0.4436
  153SAPE  H13R16981   1.047   6.524   6.809 -0.0205  0.2796 -0.7042
  153SAPE  H13S16982   0.907   6.502   6.918 -0.2328 -1.0520  3.0118
  153SAPE  C21416983   1.008   6.311   6.857  0.0359  0.0753 -0.6889
  153SAPE  H14R16984   1.100   6.251   6.852  0.1925  0.3517 -1.2032
  153SAPE  C21516985   0.894   6.248   6.819 -0.1470 -0.4491 -0.9138
  153SAPE  H15R16986   0.900   6.143   6.788 -0.4229 -0.7059 -0.1178
  153SAPE  C21616987   0.754   6.298   6.798  0.3105 -0.3401  0.1714
  153SAPE  H16R16988   0.716   6.255   6.702  0.0535 -0.9245  0.5282
  153SAPE  H16S16989   0.760   6.407   6.783 -1.8117 -0.2811 -0.5307
  153SAPE  C21716990   0.666   6.279   6.915  0.1177  0.0299  0.3572
  153SAPE  H17R16991   0.581   6.349   6.902  0.2076  0.4168  1.6808
  153SAPE  H17S16992   0.717   6.319   7.006 -1.5261  0.8277  0.9717
  153SAPE  C21816993   0.605   6.138   6.948 -0.0827  0.0629  0.4744
  153SAPE  H18R16994   0.569   6.093   6.853 -1.2282 -0.9106  1.3378
  153SAPE  H18S16995   0.517   6.173   7.006 -0.0914  0.4640  0.2247
  153SAPE  C21916996   0.686   6.039   7.027  0.3989  0.4972  0.1927
  153SAPE  H19R16997   0.781   6.024   6.971  0.2814  0.8431 -0.1027
  153SAPE  H19S16998   0.642   5.937   7.030  0.1137  0.6356  0.7018
  153SAPE  C22016999   0.709   6.077   7.167 -0.5096  0.6785 -0.3700
  153SAPE  H20R17000   0.782   6.160   7.180  0.6791 -0.3967  0.1546
  153SAPE  H20S17001   0.749   5.995   7.231  0.2778 -0.0729 -1.7792
  153SAPE  H20T17002   0.614   6.120   7.205 -0.5960 -1.7319  2.6186
  153SAPE   C3317003   1.981   6.637   6.991 -0.0264 -0.4838 -0.9525
  153SAPE   H3X17004   1.881   6.681   7.010  0.4234  0.6671 -1.1510
  153SAPE   H3Y17005   2.048   6.714   6.947  0.0723 -0.2348 -0.3740
  153SAPE   C3417006   2.053   6.606   7.126  0.6232  1.0389  0.1116
  153SAPE   H4X17007   2.156   6.579   7.095  0.0884 -0.3153 -0.5665
  153SAPE   H4Y17008   2.002   6.523   7.178  1.7030 -0.4583 -1.1108
  153SAPE   C3517009   2.050   6.723   7.228  0.1877 -0.0012  0.1086
  153SAPE   H5X17010   2.106   6.810   7.186 -0.0988  0.5071  0.7552
  153SAPE   H5Y17011   2.112   6.675   7.306  0.9063 -1.7236 -1.4476
  153SAPE   C3617012   1.912   6.762   7.281  0.1438  0.0741 -0.0449
  153SAPE   H6X17013   1.857   6.670   7.308  2.1732 -1.2653 -0.2265
  153SAPE   H6Y17014   1.849   6.823   7.212  0.9028  0.3301 -0.5254
  153SAPE   C3717015   1.954   6.843   7.401 -0.9849 -0.1120  0.0290
  153SAPE   H7X17016   1.998   6.941   7.370  0.4327 -0.3675  1.1202
  153SAPE   H7Y17017   2.035   6.789   7.455 -0.5171 -0.3260 -0.8595
  153SAPE   C3817018   1.836   6.862   7.503 -0.5029 -0.5001 -0.7260
  153SAPE   H8X17019   1.792   6.762   7.523 -4.1197  1.0178 -0.1719
  153SAPE   H8Y17020   1.754   6.917   7.453  0.4793 -1.1860 -3.2162
  153SAPE   C3917021   1.873   6.938   7.634  0.4551 -0.0925  0.1342
  153SAPE   H9X17022   1.854   7.045   7.611  0.3040 -0.0786  0.3206
  153SAPE   H9Y17023   1.979   6.920   7.661 -0.0302 -1.0017  1.5374
  153SAPE  C31017024   1.805   6.885   7.760  0.5529  0.8155  0.1202
  153SAPE  H10X17025   1.869   6.894   7.851 -0.1527  2.7757  0.4833
  153SAPE  H10Y17026   1.786   6.777   7.744 -0.0763  1.2446 -2.4440
  153SAPE  C31117027   1.667   6.952   7.783 -0.3416  0.4048  0.0685
  153SAPE  H11X17028   1.590   6.926   7.707 -1.0873 -0.5556  1.1321
  153SAPE  H11Y17029   1.680   7.062   7.774  1.2560  0.1491 -1.2404
  153SAPE  C31217030   1.595   6.926   7.911 -0.0426 -0.3115  0.0258
  153SAPE  H12X17031   1.495   6.975   7.916 -0.6326 -1.2908 -1.4567
  153SAPE  H12Y17032   1.658   6.972   7.990  0.9178 -0.4331 -0.6566
  153SAPE  C31317033   1.585   6.775   7.949 -0.2666  0.3632  0.1200
  153SAPE  H13X17034   1.676   6.719   7.918 -0.9990 -1.0144  0.3726
  153SAPE  H13Y17035   1.496   6.742   7.891  1.2279 -1.1648 -1.3941
  153SAPE  C31417036   1.564   6.737   8.100 -0.6483  0.3400  0.0139
  153SAPE  H14X17037   1.636   6.802   8.155  0.4967  1.1053 -2.2875
  153SAPE  H14Y17038   1.584   6.628   8.100  0.5188  0.5377 -1.3048
  153SAPE  C31517039   1.418   6.765   8.138  0.1719  1.0071  0.1986
  153SAPE  H15X17040   1.364   6.695   8.070  0.7311 -0.1314  0.8901
  153SAPE  H15Y17041   1.393   6.868   8.106 -1.7691  0.9810  1.5127
  153SAPE  C31617042   1.394   6.739   8.288  0.1611 -0.0208  0.4057
  153SAPE  H16X17043   1.445   6.823   8.339  1.1435 -0.4599  0.1624
  153SAPE  H16Y17044   1.449   6.648   8.322  2.1221  0.9307 -0.1199
  153SAPE  C31717045   1.246   6.725   8.320 -0.0942 -0.0035  0.5337
  153SAPE  H17X17046   1.232   6.731   8.430 -1.1844  3.4091  0.3173
  153SAPE  H17Y17047   1.214   6.631   8.269 -0.6151  0.8050 -0.6738
  153SAPE  C31817048   1.155   6.832   8.257  0.3487  0.0215 -0.0049
  153SAPE  H18X17049   1.153   6.823   8.147  0.7735 -1.4840  0.0872
  153SAPE  H18Y17050   1.181   6.935   8.290  0.7745  0.4377 -1.5434
  153SAPE  H18Z17051   1.054   6.821   8.301  0.8660 -0.2347  1.1773
  154SAPE     N17052   6.256   6.335   6.325 -0.3813  0.2877 -0.6907
  154SAPE   HN117053   6.283   6.410   6.392 -0.1715 -0.2531 -0.1535
  154SAPE   HN217054   6.157   6.350   6.297 -1.0576  0.3292  1.5272
  154SAPE   HN317055   6.263   6.247   6.380  2.1384  0.4693 -0.5949
  154SAPE   C1217056   6.351   6.327   6.216  0.0208 -0.5590  0.1303
  154SAPE  H12A17057   6.345   6.228   6.167 -2.5118 -0.2124 -0.3950
  154SAPE  H12B17058   6.455   6.337   6.252  0.8983 -1.5918 -1.9766
  154SAPE   C1117059   6.331   6.436   6.105 -0.3482  0.6050 -0.2074
  154SAPE  H11A17060   6.237   6.409   6.052 -0.3452 -0.0737  0.1267
  154SAPE  H11B17061   6.424   6.432   6.045  1.2477 -1.9618  2.1880
  154SAPE     P17062   6.197   6.653   6.189 -0.0853  0.2316 -0.1197
  154SAPE   O1317063   6.188   6.766   6.093 -0.5375 -0.2956 -0.4647
  154SAPE   O1417064   6.076   6.570   6.197 -0.3021  0.2174  0.0501
  154SAPE   O1217065   6.329   6.566   6.167 -0.5378 -0.1839 -0.2726
  154SAPE   O1117066   6.230   6.719   6.332  0.2521  1.1228 -0.0135
  154SAPE    C117067   6.129   6.716   6.433 -0.0408 -0.1522  0.2104
  154SAPE    HA17068   6.088   6.614   6.451  1.8314 -0.5049  3.0977
  154SAPE    HB17069   6.191   6.732   6.524 -0.8308  1.8983  0.4475
  154SAPE    C217070   6.010   6.815   6.423  0.0516 -0.0123 -0.6786
  154SAPE    HS17071   5.957   6.805   6.325 -1.4731 -0.2074  0.1296
  154SAPE   O2117072   6.058   6.951   6.437 -0.3326  0.1453  0.1263
  154SAPE   C2117073   5.978   7.053   6.400  0.4112  0.3402 -0.5900
  154SAPE   O2217074   5.865   7.030   6.362 -0.2785  0.1541  0.2926
  154SAPE   C2217075   6.045   7.181   6.425 -0.3900  0.2847  0.0268
  154SAPE   H2R17076   6.136   7.194   6.362  0.1184  0.6617  0.8361
  154SAPE   H2S17077   5.970   7.263   6.417 -0.4256  0.4642  1.8680
  154SAPE    C317078   5.891   6.771   6.517 -0.9423  0.4431 -0.1244
  154SAPE    HX17079   5.870   6.661   6.515 -0.6967  0.4024 -0.4910
  154SAPE    HY17080   5.795   6.824   6.500 -1.4535 -0.8462 -1.5133
  154SAPE   O3117081   5.934   6.787   6.656 -0.1997 -0.0806  0.4709
  154SAPE   C3117082   5.897   6.907   6.711  0.7706 -0.0537 -0.2521
  154SAPE   O3217083   5.831   6.995   6.661  0.6428 -0.1759 -0.0656
  154SAPE   C3217084   5.943   6.924   6.853 -0.4463 -0.4568 -0.6898
  154SAPE   H2X17085   6.004   6.840   6.892 -1.3871 -0.8263  0.0455
  154SAPE   H2Y17086   5.860   6.916   6.927  0.2304 -0.4392  0.0889
  154SAPE   C2317087   6.095   7.185   6.575  0.9078 -0.5830 -0.2102
  154SAPE   H3R17088   6.114   7.080   6.608 -0.9208 -1.0248 -0.4565
  154SAPE   H3S17089   6.011   7.223   6.637  0.8376 -0.2407 -0.5107
  154SAPE   C2417090   6.210   7.274   6.599 -0.5115 -0.2129 -0.7382
  154SAPE   H4R17091   6.298   7.246   6.538 -1.3279 -1.8080 -1.2260
  154SAPE   H4S17092   6.242   7.244   6.701 -0.2199  1.1846 -0.3968
  154SAPE   C2517093   6.174   7.422   6.573  0.4837 -0.1449  0.1562
  154SAPE   H5R17094   6.168   7.458   6.469  0.6551  1.3229  0.6352
  154SAPE   C2617095   6.157   7.512   6.673 -0.6855 -0.2426  0.2552
  154SAPE   H6R17096   6.129   7.614   6.643 -0.7579 -0.0662  0.8910
  154SAPE   C2717097   6.172   7.485   6.820 -0.3614 -0.8933 -0.2806
  154SAPE   H7R17098   6.108   7.403   6.861 -0.0395 -1.0739 -0.1389
  154SAPE   H7S17099   6.129   7.580   6.859  1.5701  1.6443 -3.8119
  154SAPE   C2817100   6.316   7.463   6.860  0.3754 -0.4405  0.6109
  154SAPE   H8R17101   6.381   7.482   6.773 -1.9824  0.0347 -1.1654
  154SAPE   C2917102   6.364   7.434   6.980  0.2061  0.7339 -0.1462
  154SAPE   H9R17103   6.472   7.425   6.997  0.0901 -0.8556 -0.1765
  154SAPE  C21017104   6.281   7.403   7.103  0.8036 -0.0661 -0.2838
  154SAPE  H10R17105   6.338   7.330   7.164 -2.1623 -2.5835 -0.2944
  154SAPE  H10S17106   6.185   7.358   7.070 -0.1384  2.7698 -1.7784
  154SAPE  C21117107   6.239   7.525   7.177 -1.0754 -0.2634 -0.1300
  154SAPE  H11R17108   6.155   7.572   7.125 -1.1409  0.9338  1.0001
  154SAPE  C21217109   6.286   7.599   7.280 -0.6905  0.0495  0.5906
  154SAPE  H12R17110   6.253   7.704   7.290 -1.3678 -0.0173 -0.7454
  154SAPE  C21317111   6.409   7.568   7.363  0.1337  0.3667 -0.8263
  154SAPE  H13R17112   6.438   7.660   7.416 -0.6251 -0.5881  1.3745
  154SAPE  H13S17113   6.489   7.545   7.290 -1.1487 -1.8305 -1.6552
  154SAPE  C21417114   6.387   7.450   7.455 -0.3514 -0.0523 -0.0574
  154SAPE  H14R17115   6.348   7.361   7.404 -1.7604 -0.3950  1.4909
  154SAPE  C21517116   6.395   7.441   7.591  0.9206 -0.0842 -0.0428
  154SAPE  H15R17117   6.379   7.356   7.659  0.6016  1.2952  1.6724
  154SAPE  C21617118   6.440   7.550   7.686  0.2430 -0.7139 -0.4446
  154SAPE  H16R17119   6.355   7.600   7.737 -1.1788 -1.3006 -2.1424
  154SAPE  H16S17120   6.473   7.637   7.625 -0.1882 -0.6631 -0.6092
  154SAPE  C21717121   6.544   7.501   7.788  0.6506 -0.0152 -0.2926
  154SAPE  H17R17122   6.624   7.449   7.731  0.1645 -2.6594  1.2281
  154SAPE  H17S17123   6.502   7.421   7.853 -2.8291  1.7187 -0.1612
  154SAPE  C21817124   6.600   7.616   7.865 -0.0496 -0.1642 -0.0706
  154SAPE  H18R17125   6.516   7.671   7.914  0.8817  0.1736  1.1971
  154SAPE  H18S17126   6.644   7.692   7.797 -0.0734 -1.6466 -1.8240
  154SAPE  C21917127   6.688   7.572   7.983  0.5129  0.0756  1.0673
  154SAPE  H19R17128   6.779   7.526   7.937  0.2204  0.3418  0.2089
  154SAPE  H19S17129   6.639   7.493   8.044 -1.7333 -0.3861 -1.1894
  154SAPE  C22017130   6.727   7.696   8.068  0.4213  0.8619 -1.1727
  154SAPE  H20R17131   6.644   7.723   8.135 -0.8412 -2.4103 -1.2511
  154SAPE  H20S17132   6.752   7.778   7.997  2.1556  1.1024 -0.3386
  154SAPE  H20T17133   6.809   7.672   8.140 -1.6098 -2.1297  0.3594
  154SAPE   C3317134   5.997   7.069   6.870  0.2197 -0.6332  0.3301
  154SAPE   H3X17135   5.943   7.140   6.804  0.0008 -0.5518  0.5945
  154SAPE   H3Y17136   6.104   7.079   6.840  0.6582  2.7404  2.5264
  154SAPE   C3417137   6.007   7.115   7.016  0.3915 -0.4437  0.8437
  154SAPE   H4X17138   5.905   7.126   7.060  0.6705 -0.0820  1.4150
  154SAPE   H4Y17139   6.048   7.218   7.019  0.4256 -0.4276 -0.0325
  154SAPE   C3517140   6.092   7.030   7.105  0.2510 -0.5547 -0.9714
  154SAPE   H5X17141   6.193   7.003   7.066  1.4427 -0.6643  1.9246
  154SAPE   H5Y17142   6.042   6.931   7.113  0.4851 -0.5937  0.2264
  154SAPE   C3617143   6.122   7.104   7.231 -0.0409  0.2821 -0.8601
  154SAPE   H6X17144   6.036   7.170   7.256 -0.5574 -0.5955 -0.2898
  154SAPE   H6Y17145   6.213   7.162   7.205 -0.5369  0.7461 -1.6062
  154SAPE   C3717146   6.144   7.009   7.350  0.0711  0.6855 -0.1384
  154SAPE   H7X17147   6.246   6.977   7.379 -0.4343  1.1805  2.3525
  154SAPE   H7Y17148   6.079   6.919   7.344  1.1324 -0.2392  1.4497
  154SAPE   C3817149   6.109   7.081   7.488  0.3235 -0.0483  0.4826
  154SAPE   H8X17150   6.007   7.119   7.468 -0.9623 -3.1544  0.6531
  154SAPE   H8Y17151   6.172   7.172   7.493 -1.0867  0.9039  1.4844
  154SAPE   C3917152   6.104   6.995   7.612 -0.8500 -0.0372  0.6018
  154SAPE   H9X17153   6.107   6.890   7.576 -0.3298 -0.3351  1.4936
  154SAPE   H9Y17154   6.007   7.003   7.665 -2.6016 -0.9655 -2.2320
  154SAPE  C31017155   6.225   7.023   7.698  0.3438 -0.0844  0.5738
  154SAPE  H10X17156   6.317   7.000   7.640 -1.5569 -1.5224 -2.0971
  154SAPE  H10Y17157   6.229   6.941   7.773  0.4188 -0.6841 -0.0720
  154SAPE  C31117158   6.212   7.148   7.789  0.0662  0.2654  0.2900
  154SAPE  H11X17159   6.131   7.139   7.865 -0.6822  2.1577 -0.2303
  154SAPE  H11Y17160   6.189   7.243   7.736  0.7469  0.7831  0.9061
  154SAPE  C31217161   6.333   7.164   7.874 -0.0640 -0.3142 -0.3003
  154SAPE  H12X17162   6.410   7.232   7.831 -1.3045  0.7123 -0.9542
  154SAPE  H12Y17163   6.370   7.063   7.903 -3.1409 -0.5286  3.7235
  154SAPE  C31317164   6.314   7.221   8.017  0.4399  0.3565 -0.2917
  154SAPE  H13X17165   6.263   7.149   8.085  2.1184  0.4653  1.1613
  154SAPE  H13Y17166   6.249   7.311   8.012 -3.6603 -2.1962  1.4336
  154SAPE  C31417167   6.453   7.244   8.082 -0.0348  0.5192  0.5867
  154SAPE  H14X17168   6.518   7.313   8.024  0.0404  0.0042  0.0530
  154SAPE  H14Y17169   6.514   7.151   8.084 -3.1093 -1.7344 -0.8616
  154SAPE  C31517170   6.454   7.322   8.217 -0.5059 -0.2669 -0.0287
  154SAPE  H15X17171   6.371   7.279   8.278 -1.4056  1.6123  0.1706
  154SAPE  H15Y17172   6.422   7.426   8.193 -1.3647 -0.9152 -1.9343
  154SAPE  C31617173   6.586   7.311   8.291 -0.1836  0.6208 -0.4466
  154SAPE  H16X17174   6.667   7.331   8.218  2.6356  1.4170  2.6753
  154SAPE  H16Y17175   6.602   7.211   8.336 -0.1359  1.3382  1.2118
  154SAPE  C31717176   6.618   7.420   8.402 -0.5635 -0.0058  0.8633
  154SAPE  H17X17177   6.606   7.516   8.348 -5.5587 -1.7000 -1.6431
  154SAPE  H17Y17178   6.723   7.411   8.439 -1.0296  1.2916  2.6017
  154SAPE  C31817179   6.533   7.393   8.525 -0.2835  0.5621  0.0676
  154SAPE  H18X17180   6.429   7.431   8.520 -0.6319 -0.2159  1.0541
  154SAPE  H18Y17181   6.570   7.428   8.624 -2.2837  1.1655  0.6480
  154SAPE  H18Z17182   6.527   7.283   8.539 -1.7211  0.4601 -1.1867
  155SAPE     N17183   6.016   1.011   6.177 -0.2288 -0.0848 -0.3082
  155SAPE   HN117184   6.058   1.098   6.138 -0.8678  1.4527  2.1997
  155SAPE   HN217185   6.057   0.998   6.271 -4.7628 -0.2311  1.9319
  155SAPE   HN317186   6.051   0.936   6.114  1.6644  0.8725 -0.4686
  155SAPE   C1217187   5.871   1.023   6.194  0.1974 -0.2947  1.1469
  155SAPE  H12A17188   5.830   0.937   6.253  2.3393 -1.0947  1.5753
  155SAPE  H12B17189   5.832   1.016   6.091 -1.0791  1.1911  1.4871
  155SAPE   C1117190   5.815   1.159   6.247 -0.2479  0.6542 -0.0049
  155SAPE  H11A17191   5.800   1.143   6.356 -1.6287 -2.5887 -0.5454
  155SAPE  H11B17192   5.719   1.175   6.194  0.6139  1.2739 -1.4162
  155SAPE     P17193   5.879   1.421   6.253  0.5237  0.3160  0.2059
  155SAPE   O1317194   5.908   1.490   6.126  0.7300  0.2463  0.3440
  155SAPE   O1417195   5.743   1.443   6.311 -0.5133  0.6296 -0.4100
  155SAPE   O1217196   5.905   1.266   6.214  0.1232 -0.3751  0.3723
  155SAPE   O1117197   5.981   1.469   6.364  0.1111  0.2512  0.3100
  155SAPE    C117198   6.026   1.368   6.462 -0.2838 -0.2724  0.4021
  155SAPE    HA17199   6.031   1.267   6.417  2.6408  0.4142 -1.0740
  155SAPE    HB17200   6.133   1.388   6.484 -0.0799  0.0297 -0.7533
  155SAPE    C217201   5.954   1.368   6.602 -0.2877  0.7501 -0.1712
  155SAPE    HS17202   5.844   1.353   6.592 -0.2831  1.2851 -1.0711
  155SAPE   O2117203   5.982   1.491   6.674 -0.2632 -0.4644 -0.0152
  155SAPE   C2117204   5.901   1.595   6.661  0.6697 -0.2085  0.4299
  155SAPE   O2217205   5.788   1.582   6.609 -0.1294 -0.0381 -0.2110
  155SAPE   C2217206   5.964   1.727   6.706 -0.1651 -0.1724  0.3027
  155SAPE   H2R17207   6.067   1.704   6.740  1.4025  4.1383 -0.8810
  155SAPE   H2S17208   5.976   1.790   6.615 -1.4130  1.2959  1.0941
  155SAPE    C317209   5.999   1.243   6.689 -0.3365  0.3250 -0.1337
  155SAPE    HX17210   5.948   1.154   6.646 -0.6348  1.3935 -2.1308
  155SAPE    HY17211   5.960   1.262   6.791 -2.4585  1.8984 -1.1561
  155SAPE   O3117212   6.145   1.232   6.701 -0.0004  0.5733  0.1841
  155SAPE   C3117213   6.176   1.126   6.774 -0.8086  1.0369  0.5328
  155SAPE   O3217214   6.097   1.041   6.820  0.4716  0.1994 -0.0549
  155SAPE   C3217215   6.333   1.132   6.805 -0.3229  0.3871 -0.4010
  155SAPE   H2X17216   6.370   1.188   6.716 -0.3068 -1.3033 -1.5062
  155SAPE   H2Y17217   6.376   1.030   6.806  1.5637  1.1057  2.2226
  155SAPE   C2317218   5.888   1.813   6.811  0.5897  0.2800  0.6639
  155SAPE   H3R17219   5.785   1.832   6.773  0.3733 -0.4802  0.8707
  155SAPE   H3S17220   5.921   1.919   6.813 -1.2794  0.9100  0.5695
  155SAPE   C2417221   5.878   1.758   6.957 -0.6209 -0.1606 -0.1269
  155SAPE   H4R17222   5.817   1.834   7.010  2.5249  1.5733  1.2634
  155SAPE   H4S17223   5.981   1.772   6.996  0.2864  2.8770 -3.0947
  155SAPE   C2517224   5.809   1.626   6.959  0.4590  0.1149  0.0282
  155SAPE   H5R17225   5.702   1.639   6.938  0.6213  1.9205  0.1598
  155SAPE   C2617226   5.862   1.504   6.988  0.6855 -0.2765 -0.0318
  155SAPE   H6R17227   5.795   1.421   6.962  0.2167 -0.1037  0.6099
  155SAPE   C2717228   6.002   1.465   7.016 -0.1019 -0.1120 -0.2253
  155SAPE   H7R17229   6.067   1.552   7.036 -1.1039  0.5048  0.4092
  155SAPE   H7S17230   6.036   1.418   6.921  0.4521 -3.2811  1.4118
  155SAPE   C2817231   6.010   1.355   7.123 -0.3999  0.7348  0.0078
  155SAPE   H8R17232   6.053   1.259   7.092 -0.8472  0.8920 -1.1561
  155SAPE   C2917233   5.973   1.354   7.253  0.1105 -0.5609  0.2733
  155SAPE   H9R17234   5.996   1.269   7.318  0.0871 -2.0988 -1.6471
  155SAPE  C21017235   5.923   1.470   7.328  0.2777 -0.4527  0.4649
  155SAPE  H10R17236   5.874   1.422   7.415  0.0234  0.6731  0.9596
  155SAPE  H10S17237   5.839   1.529   7.287  0.1717  0.2948  1.7053
  155SAPE  C21117238   6.039   1.559   7.369 -0.4590 -0.1272 -0.0650
  155SAPE  H11R17239   6.056   1.644   7.300 -1.1463 -0.2472 -0.3903
  155SAPE  C21217240   6.119   1.562   7.476 -0.1384  0.3077 -0.3832
  155SAPE  H12R17241   6.174   1.653   7.503 -0.3591 -0.4988  3.2161
  155SAPE  C21317242   6.104   1.463   7.586 -0.1222 -0.1099 -0.8540
  155SAPE  H13R17243   6.203   1.445   7.633 -0.1546  3.6142  0.9737
  155SAPE  H13S17244   6.060   1.367   7.553 -0.9042 -0.3351  0.7929
  155SAPE  C21417245   6.006   1.538   7.676 -0.1207 -0.2951  0.7068
  155SAPE  H14R17246   5.905   1.547   7.632  0.4743  1.6582 -0.4146
  155SAPE  C21517247   6.017   1.573   7.805  0.1359  1.0489  0.7843
  155SAPE  H15R17248   5.935   1.635   7.844 -0.9207  0.3929 -0.3370
  155SAPE  C21617249   6.138   1.550   7.887 -0.5067 -0.3047  0.0764
  155SAPE  H16R17250   6.170   1.640   7.943  1.2291 -0.8582  0.0154
  155SAPE  H16S17251   6.222   1.516   7.823 -0.4773 -2.8434  1.3435
  155SAPE  C21717252   6.148   1.430   7.988 -0.2785 -1.6286 -0.3106
  155SAPE  H17R17253   6.251   1.392   8.005  0.5962  0.4289 -0.6428
  155SAPE  H17S17254   6.085   1.352   7.940  0.1282 -2.2113  0.0891
  155SAPE  C21817255   6.071   1.457   8.119  0.3324 -0.0973  0.2082
  155SAPE  H18R17256   5.982   1.521   8.100  1.0106  0.2496 -2.2434
  155SAPE  H18S17257   6.127   1.534   8.176 -0.3664  0.4185  0.1991
  155SAPE  C21917258   6.027   1.333   8.203  0.0531 -0.7730 -0.6184
  155SAPE  H19R17259   6.114   1.270   8.234 -0.1995 -0.7974  0.0473
  155SAPE  H19S17260   5.964   1.264   8.143 -1.3672  1.0577 -1.3247
  155SAPE  C22017261   5.958   1.364   8.334  0.5204 -0.0538  0.4653
  155SAPE  H20R17262   6.008   1.448   8.387  2.9779 -2.7870  2.8378
  155SAPE  H20S17263   5.962   1.281   8.407 -0.6657  0.5475  1.2525
  155SAPE  H20T17264   5.848   1.370   8.318  0.5487 -2.2020 -0.9233
  155SAPE   C3317265   6.359   1.211   6.932  0.0255 -0.1756  0.5848
  155SAPE   H3X17266   6.304   1.307   6.919 -0.0744 -0.1781  0.9918
  155SAPE   H3Y17267   6.465   1.245   6.928  0.8622 -2.6416 -1.4505
  155SAPE   C3417268   6.334   1.141   7.059  0.5621  0.2721  0.0691
  155SAPE   H4X17269   6.400   1.053   7.078 -0.0806 -0.1749  0.2434
  155SAPE   H4Y17270   6.231   1.102   7.067  0.7183  0.2544  4.0959
  155SAPE   C3517271   6.339   1.236   7.185 -0.2543  0.5681  0.1034
  155SAPE   H5X17272   6.269   1.320   7.164 -1.2536 -0.3336 -0.2936
  155SAPE   H5Y17273   6.441   1.278   7.185 -0.3446  0.8075 -0.6462
  155SAPE   C3617274   6.304   1.165   7.320 -0.1487  0.9242  0.7155
  155SAPE   H6X17275   6.358   1.069   7.334 -1.6418 -0.4801 -2.1690
  155SAPE   H6Y17276   6.197   1.134   7.317 -0.2719  1.3163 -2.3684
  155SAPE   C3717277   6.374   1.236   7.440 -0.4472 -0.2176 -0.5547
  155SAPE   H7X17278   6.327   1.335   7.427  0.3280  0.0675 -1.2300
  155SAPE   H7Y17279   6.483   1.240   7.422 -0.6379  0.1600 -1.6726
  155SAPE   C3817280   6.348   1.182   7.577  0.3986 -0.2068 -0.4036
  155SAPE   H8X17281   6.355   1.072   7.571  3.1147 -0.0165 -2.6482
  155SAPE   H8Y17282   6.243   1.205   7.605  0.1050  0.3839 -1.8869
  155SAPE   C3917283   6.449   1.236   7.687  0.1102 -0.1433 -0.1930
  155SAPE   H9X17284   6.431   1.343   7.707 -1.6924 -0.3432 -0.6160
  155SAPE   H9Y17285   6.551   1.209   7.650  0.4490  0.6394  0.1491
  155SAPE  C31017286   6.435   1.153   7.819 -0.5619 -0.3149 -0.5129
  155SAPE  H10X17287   6.440   1.044   7.799 -1.0758 -0.7681  1.5476
  155SAPE  H10Y17288   6.339   1.165   7.874  0.5271 -0.3560  1.4982
  155SAPE  C31117289   6.555   1.175   7.918 -0.5859 -0.2013  0.2611
  155SAPE  H11X17290   6.575   1.283   7.905 -1.5150 -0.1753 -1.2210
  155SAPE  H11Y17291   6.639   1.108   7.889 -1.8257 -1.7151  0.0071
  155SAPE  C31217292   6.518   1.135   8.065 -0.3574 -0.4575 -0.3370
  155SAPE  H12X17293   6.503   1.025   8.078  0.3928 -0.7887 -2.0824
  155SAPE  H12Y17294   6.424   1.192   8.082  1.1573  2.1323 -0.0886
  155SAPE  C31317295   6.615   1.183   8.170 -0.7813  0.5761 -0.6832
  155SAPE  H13X17296   6.611   1.293   8.163  0.2798  0.5658 -1.8299
  155SAPE  H13Y17297   6.720   1.152   8.148 -0.1720  0.0859  2.4212
  155SAPE  C31417298   6.584   1.131   8.314  0.2846  0.8376  0.6559
  155SAPE  H14X17299   6.545   1.028   8.324  2.2761  0.0610  0.8281
  155SAPE  H14Y17300   6.509   1.204   8.350  0.3199  1.0452  0.3198
  155SAPE  C31517301   6.710   1.148   8.403 -0.2789 -0.8615 -0.0082
  155SAPE  H15X17302   6.765   1.238   8.368 -0.5539 -0.6263  0.1615
  155SAPE  H15Y17303   6.787   1.070   8.385  3.2409  1.4938  2.9905
  155SAPE  C31617304   6.671   1.147   8.550 -0.2079 -1.0310  0.1468
  155SAPE  H16X17305   6.664   1.039   8.576 -1.2598 -0.5594  1.9402
  155SAPE  H16Y17306   6.574   1.197   8.569 -0.6584 -1.9018  0.1815
  155SAPE  C31717307   6.765   1.212   8.649  0.1652  0.0398 -0.4649
  155SAPE  H17X17308   6.782   1.319   8.620 -0.5154 -0.2598 -2.0906
  155SAPE  H17Y17309   6.866   1.169   8.634  1.0007  1.5324  0.5423
  155SAPE  C31817310   6.724   1.187   8.786 -0.7927  0.1240 -0.1734
  155SAPE  H18X17311   6.787   1.250   8.853  0.0782 -0.3314 -0.5406
  155SAPE  H18Y17312   6.734   1.080   8.815 -3.0402  0.2574  1.3952
  155SAPE  H18Z17313   6.620   1.226   8.794 -0.9903  0.0062 -1.8559
  156SAPE     N17314   3.759   0.429   5.809 -0.5237  0.7539 -0.3740
  156SAPE   HN117315   3.740   0.531   5.814  0.8612  0.9876  1.1947
  156SAPE   HN217316   3.801   0.395   5.720  0.4438 -1.0607  0.6899
  156SAPE   HN317317   3.668   0.381   5.822 -0.6687  1.0757 -0.2132
  156SAPE   C1217318   3.844   0.390   5.932 -0.3827 -0.0676  0.6518
  156SAPE  H12A17319   3.936   0.452   5.933  0.0765 -0.7421  0.7181
  156SAPE  H12B17320   3.869   0.282   5.926 -0.8523 -0.4015  3.4206
  156SAPE   C1117321   3.768   0.407   6.067  0.6540 -0.2564  0.9385
  156SAPE  H11A17322   3.846   0.389   6.144  0.8307  1.7050  1.2554
  156SAPE  H11B17323   3.686   0.331   6.071  1.0555 -0.7684 -0.2001
  156SAPE     P17324   3.797   0.657   6.150  0.1636  0.0507 -0.2235
  156SAPE   O1317325   3.928   0.668   6.089 -0.0603 -0.4504  0.8848
  156SAPE   O1417326   3.716   0.782   6.146 -0.0340  0.3948  0.4753
  156SAPE   O1217327   3.712   0.538   6.081 -0.1880  0.4631  0.7258
  156SAPE   O1117328   3.811   0.602   6.302 -0.4573 -0.2070  0.4525
  156SAPE    C117329   3.692   0.593   6.380  1.6492 -1.3300  0.6864
  156SAPE    HA17330   3.660   0.691   6.421  1.3220 -0.5242 -1.3481
  156SAPE    HB17331   3.604   0.559   6.321  0.7930  2.2127 -0.3106
  156SAPE    C217332   3.701   0.502   6.502  0.3651 -0.0610 -0.2539
  156SAPE    HS17333   3.603   0.496   6.554  1.0788  0.7595  1.2465
  156SAPE   O2117334   3.798   0.539   6.603 -0.0834  0.4115  0.1609
  156SAPE   C2117335   3.754   0.615   6.700 -0.6044 -0.1047 -0.0199
  156SAPE   O2217336   3.644   0.667   6.710 -0.1699  0.6797 -0.6354
  156SAPE   C2217337   3.863   0.638   6.809 -0.1243  0.5010  0.4779
  156SAPE   H2R17338   3.955   0.590   6.768 -0.9534 -0.1616 -0.6547
  156SAPE   H2S17339   3.885   0.746   6.824 -1.8041  0.6365  2.3455
  156SAPE    C317340   3.743   0.368   6.450 -0.0767  0.0174  0.0167
  156SAPE    HX17341   3.835   0.398   6.396 -0.4364 -0.4506 -0.8741
  156SAPE    HY17342   3.664   0.332   6.380 -0.0767  0.2645 -0.1104
  156SAPE   O3117343   3.774   0.268   6.557 -0.4851  0.0822  0.1387
  156SAPE   C3117344   3.862   0.175   6.513 -0.5691 -0.4680  0.1839
  156SAPE   O3217345   3.931   0.181   6.413 -0.2204  0.0419  0.1541
  156SAPE   C3217346   3.863   0.067   6.620 -0.4592 -0.2063  0.3968
  156SAPE   H2X17347   3.951   0.081   6.685  0.7851  0.1198 -1.2851
  156SAPE   H2Y17348   3.885  -0.031   6.572 -0.4328 -1.3006  2.5501
  156SAPE   C2317349   3.811   0.598   6.941  0.1957  0.1210 -0.1877
  156SAPE   H3R17350   3.715   0.652   6.960 -1.2559 -1.4968 -2.3886
  156SAPE   H3S17351   3.876   0.642   7.020 -0.4268  1.7656 -0.5361
  156SAPE   C2417352   3.806   0.443   6.963  0.5465 -0.0612  0.3712
  156SAPE   H4R17353   3.729   0.396   6.899  2.2350 -2.6440  0.0875
  156SAPE   H4S17354   3.759   0.435   7.064  0.8075  0.3378  0.5281
  156SAPE   C2517355   3.922   0.357   6.956 -0.3938 -0.1201  0.0937
  156SAPE   H5R17356   3.963   0.343   6.855  0.4451 -2.6361  0.6959
  156SAPE   C2617357   3.985   0.296   7.058  0.4823 -0.5128  0.3269
  156SAPE   H6R17358   4.078   0.242   7.038  0.9823  0.4499  0.0189
  156SAPE   C2717359   3.941   0.299   7.211  0.6417 -0.0543  0.1021
  156SAPE   H7R17360   3.950   0.404   7.246 -0.3174 -0.1373  0.6140
  156SAPE   H7S17361   4.013   0.239   7.271 -0.8854 -0.8240  1.2207
  156SAPE   C2817362   3.809   0.238   7.241  0.3961 -0.8330 -0.3041
  156SAPE   H8R17363   3.766   0.163   7.173 -0.8200 -2.0605  1.7092
  156SAPE   C2917364   3.749   0.252   7.358  0.1889  0.1900  0.0073
  156SAPE   H9R17365   3.646   0.213   7.367  0.9088 -1.7193  0.5073
  156SAPE  C21017366   3.798   0.334   7.473  0.4914 -0.4569  0.6005
  156SAPE  H10R17367   3.874   0.410   7.445  1.4482 -1.4085  0.5515
  156SAPE  H10S17368   3.844   0.263   7.544  1.6132  1.5590  1.9867
  156SAPE  C21117369   3.689   0.416   7.540 -0.1228 -0.3025  0.2918
  156SAPE  H11R17370   3.673   0.507   7.480  1.4083 -0.8504 -1.0056
  156SAPE  C21217371   3.636   0.397   7.661  0.3711 -0.5747  0.3649
  156SAPE  H12R17372   3.547   0.455   7.691 -1.2316 -2.0796 -1.2543
  156SAPE  C21317373   3.657   0.281   7.744 -0.3760  0.2660 -0.0184
  156SAPE  H13R17374   3.762   0.245   7.739 -0.7958 -0.9694 -0.4366
  156SAPE  H13S17375   3.605   0.193   7.699  0.0252  0.4178 -0.7880
  156SAPE  C21417376   3.603   0.295   7.885 -0.2730 -0.7464 -0.0461
  156SAPE  H14R17377   3.512   0.354   7.905  1.3641  0.9744  3.2041
  156SAPE  C21517378   3.651   0.243   7.998  1.1354 -0.3971  0.3810
  156SAPE  H15R17379   3.599   0.288   8.084 -0.8128 -1.4892 -0.1794
  156SAPE  C21617380   3.776   0.153   8.028  0.1928 -0.5759 -0.1900
  156SAPE  H16R17381   3.848   0.200   8.100  1.4782 -0.3590 -1.5658
  156SAPE  H16S17382   3.829   0.134   7.932  0.2457  1.3509 -0.5882
  156SAPE  C21717383   3.734   0.024   8.100  0.1675 -0.4807  0.2692
  156SAPE  H17R17384   3.674  -0.029   8.023 -0.5441  0.1776  0.3557
  156SAPE  H17S17385   3.656   0.040   8.178 -0.6672 -2.5068 -0.0995
  156SAPE  C21817386   3.848  -0.062   8.165 -0.0921  1.2034  0.2092
  156SAPE  H18R17387   3.891  -0.031   8.263 -2.4075 -1.3059  2.1475
  156SAPE  H18S17388   3.936  -0.061   8.097 -0.8459 -2.9946 -1.1004
  156SAPE  C21917389   3.820  -0.212   8.160 -0.3577 -0.7377 -0.1816
  156SAPE  H19R17390   3.914  -0.259   8.198 -0.5750  0.6074  2.2642
  156SAPE  H19S17391   3.808  -0.239   8.053 -0.9452 -2.0717  0.2080
  156SAPE  C22017392   3.704  -0.258   8.244 -0.0038  0.8982  0.2232
  156SAPE  H20R17393   3.684  -0.366   8.229  1.4585  0.4196  1.4484
  156SAPE  H20S17394   3.619  -0.203   8.199 -2.5886 -3.1422 -0.4089
  156SAPE  H20T17395   3.710  -0.231   8.352  1.5447  1.6200 -0.0098
  156SAPE   C3317396   3.733   0.058   6.700  0.5439 -0.0877  0.4056
  156SAPE   H3X17397   3.661   0.009   6.631 -0.5915  0.0295  1.4789
  156SAPE   H3Y17398   3.691   0.154   6.735 -0.5477 -0.5969  0.5280
  156SAPE   C3417399   3.744  -0.035   6.820  0.6128 -0.4996 -0.2530
  156SAPE   H4X17400   3.848  -0.013   6.854 -0.0694  0.3894  1.3969
  156SAPE   H4Y17401   3.741  -0.140   6.784 -4.5856 -0.7743  0.3301
  156SAPE   C3517402   3.631  -0.010   6.923 -0.0857  0.7812 -0.5103
  156SAPE   H5X17403   3.531  -0.016   6.877  0.9776  1.8365 -3.1790
  156SAPE   H5Y17404   3.637   0.096   6.954  0.5172  1.0681 -1.5761
  156SAPE   C3617405   3.639  -0.103   7.042 -0.2240  0.1122 -0.4269
  156SAPE   H6X17406   3.724  -0.078   7.108  0.6481  3.6685 -2.6204
  156SAPE   H6Y17407   3.652  -0.208   7.006  1.1799 -0.3972  1.4208
  156SAPE   C3717408   3.506  -0.097   7.129 -0.2768  0.7721 -0.5300
  156SAPE   H7X17409   3.432  -0.166   7.082 -0.0917  1.0411 -1.2263
  156SAPE   H7Y17410   3.472   0.009   7.133  0.8531  1.1480 -0.4537
  156SAPE   C3817411   3.543  -0.145   7.267 -0.8576 -0.1843 -0.1252
  156SAPE   H8X17412   3.637  -0.093   7.298 -0.0580 -0.5822 -1.7313
  156SAPE   H8Y17413   3.574  -0.252   7.265 -4.2719 -1.4077  2.3616
  156SAPE   C3917414   3.438  -0.130   7.372  0.2478 -0.7195 -0.7060
  156SAPE   H9X17415   3.345  -0.190   7.364  0.2189 -0.8528  0.4447
  156SAPE   H9Y17416   3.412  -0.022   7.378  4.4274  0.4663 -0.9246
  156SAPE  C31017417   3.493  -0.177   7.509 -0.5849 -0.3131 -0.5896
  156SAPE  H10X17418   3.579  -0.108   7.519 -0.2766 -0.9620  1.8264
  156SAPE  H10Y17419   3.527  -0.282   7.492 -0.7281 -0.2604 -1.2213
  156SAPE  C31117420   3.395  -0.156   7.621 -0.5788 -0.4401  0.4276
  156SAPE  H11X17421   3.296  -0.204   7.607  0.2741 -1.7143 -1.7524
  156SAPE  H11Y17422   3.366  -0.049   7.624  1.3610  0.1104  1.8626
  156SAPE  C31217423   3.453  -0.178   7.759 -0.6092 -0.3114 -0.0259
  156SAPE  H12X17424   3.528  -0.098   7.776  0.6572 -1.8575  2.2335
  156SAPE  H12Y17425   3.503  -0.277   7.768 -1.8409 -0.8000  1.8393
  156SAPE  C31317426   3.339  -0.181   7.864  0.7591  0.1156 -0.3082
  156SAPE  H13X17427   3.294  -0.280   7.843 -1.0044  1.1503 -1.7885
  156SAPE  H13Y17428   3.260  -0.106   7.840 -1.1069 -1.3845  0.8805
  156SAPE  C31417429   3.368  -0.187   8.016 -0.6951 -0.0440  0.6269
  156SAPE  H14X17430   3.405  -0.086   8.045 -0.6554  0.3444 -0.7081
  156SAPE  H14Y17431   3.443  -0.268   8.023 -2.4236 -1.5646  2.4080
  156SAPE  C31517432   3.240  -0.224   8.091  0.0343  0.4282 -0.0098
  156SAPE  H15X17433   3.196  -0.315   8.045 -2.2997  0.5802  1.7192
  156SAPE  H15Y17434   3.168  -0.140   8.083 -0.8316 -0.2783  0.1565
  156SAPE  C31617435   3.262  -0.255   8.241 -0.3125  0.2695  0.6566
  156SAPE  H16X17436   3.308  -0.170   8.296  1.5190 -0.1061 -0.2434
  156SAPE  H16Y17437   3.316  -0.351   8.248 -1.7828 -0.7886 -1.5545
  156SAPE  C31717438   3.135  -0.287   8.322 -0.9617 -0.0060  0.5933
  156SAPE  H17X17439   3.075  -0.369   8.276 -0.5282  0.7467 -1.4459
  156SAPE  H17Y17440   3.063  -0.202   8.317 -2.3088 -1.1460  0.0195
  156SAPE  C31817441   3.169  -0.313   8.469 -0.1828 -0.2663  1.0287
  156SAPE  H18X17442   3.236  -0.233   8.507 -1.3570  0.9086  0.7272
  156SAPE  H18Y17443   3.219  -0.412   8.472  2.4016  0.9456  0.3815
  156SAPE  H18Z17444   3.082  -0.316   8.539  1.0944  2.1823  2.8732
  157SAPE     N17445   6.383   2.081   5.805 -0.4876  0.2239 -0.5141
  157SAPE   HN117446   6.362   2.031   5.716  0.7786 -1.2090 -0.0422
  157SAPE   HN217447   6.485   2.093   5.814 -0.4496  0.3169 -1.0332
  157SAPE   HN317448   6.366   2.023   5.889  0.0747  1.7881  0.7285
  157SAPE   C1217449   6.315   2.215   5.820  0.6738  0.2380  0.2541
  157SAPE  H12A17450   6.206   2.207   5.799  0.4276  1.1943  1.0296
  157SAPE  H12B17451   6.360   2.280   5.742 -2.2080  0.6536 -1.2177
  157SAPE   C1117452   6.335   2.277   5.961  0.2204  0.9566 -0.3036
  157SAPE  H11A17453   6.272   2.368   5.956 -0.0396  0.8016  0.2092
  157SAPE  H11B17454   6.438   2.313   5.982  0.2024  0.1535  1.2673
  157SAPE     P17455   6.254   2.272   6.209 -0.1413 -0.0759  0.1138
  157SAPE   O1317456   6.175   2.398   6.188 -0.2573  0.0542  0.4824
  157SAPE   O1417457   6.204   2.183   6.320 -0.5857 -0.2680  0.8273
  157SAPE   O1217458   6.277   2.193   6.064  1.0691 -0.0520 -0.7474
  157SAPE   O1117459   6.395   2.328   6.252  0.2334  0.1773  0.2826
  157SAPE    C117460   6.515   2.247   6.274  0.0004 -0.0480  0.3487
  157SAPE    HA17461   6.508   2.145   6.230 -0.3610 -0.8132  2.1281
  157SAPE    HB17462   6.599   2.302   6.227  0.9171 -1.7776 -0.1187
  157SAPE    C217463   6.554   2.236   6.418  0.8180  0.2621 -0.3243
  157SAPE    HS17464   6.630   2.156   6.428  0.7978  0.2151 -0.5402
  157SAPE   O2117465   6.432   2.215   6.499 -0.1603 -0.1548 -0.3213
  157SAPE   C2117466   6.446   2.137   6.604  0.2500 -0.1910 -0.5288
  157SAPE   O2217467   6.546   2.068   6.635  0.0004  0.0012  0.1650
  157SAPE   C2217468   6.326   2.158   6.699 -0.4771  0.5821  0.6324
  157SAPE   H2R17469   6.344   2.262   6.733 -1.1808  1.6556 -2.0500
  157SAPE   H2S17470   6.228   2.156   6.646  0.2320 -0.3627 -0.6843
  157SAPE    C317471   6.631   2.364   6.473 -0.1358  0.1879  0.1233
  157SAPE    HX17472   6.591   2.454   6.421  3.2617  1.4732 -0.5281
  157SAPE    HY17473   6.733   2.351   6.430 -0.8401  0.2158 -1.6356
  157SAPE   O3117474   6.645   2.368   6.616 -0.5084 -0.1283 -0.3217
  157SAPE   C3117475   6.575   2.452   6.683  0.5674 -0.7073 -0.8940
  157SAPE   O3217476   6.485   2.522   6.638  0.0068  0.7141  0.4285
  157SAPE   C3217477   6.588   2.430   6.838 -0.5602 -0.6682  0.2142
  157SAPE   H2X17478   6.697   2.438   6.857 -0.3400  0.3344 -1.3099
  157SAPE   H2Y17479   6.564   2.326   6.870 -1.5864 -0.1456  1.2459
  157SAPE   C2317480   6.303   2.063   6.816  0.1946  0.0669  0.4305
  157SAPE   H3R17481   6.392   2.063   6.883  0.1073 -0.1874  0.5504
  157SAPE   H3S17482   6.289   1.960   6.777 -1.5190 -0.8288  3.1626
  157SAPE   C2417483   6.180   2.093   6.908 -0.4681 -0.1872 -0.4377
  157SAPE   H4R17484   6.205   2.024   6.992  4.2973  0.2109 -1.2319
  157SAPE   H4S17485   6.080   2.064   6.871 -1.3066  2.3817 -0.3632
  157SAPE   C2517486   6.182   2.234   6.960 -0.2345 -0.4475  0.0293
  157SAPE   H5R17487   6.162   2.312   6.885 -0.6068 -0.8640 -0.3157
  157SAPE   C2617488   6.182   2.282   7.087 -0.1444  0.2967 -0.3168
  157SAPE   H6R17489   6.194   2.390   7.099  1.6245 -0.0562  1.9735
  157SAPE   C2717490   6.198   2.196   7.213 -0.0314 -0.1406  0.3369
  157SAPE   H7R17491   6.128   2.109   7.206 -1.7823  1.3394 -2.5845
  157SAPE   H7S17492   6.164   2.259   7.297  2.3005 -0.0027  1.2564
  157SAPE   C2817493   6.340   2.152   7.250  0.1145  0.2559 -0.5871
  157SAPE   H8R17494   6.412   2.137   7.168 -1.7956  0.6226 -2.4479
  157SAPE   C2917495   6.383   2.147   7.380 -0.1622  1.0776  0.8926
  157SAPE   H9R17496   6.487   2.120   7.402 -0.7686 -2.4270  0.0373
  157SAPE  C21017497   6.301   2.162   7.503 -0.3073 -0.6683 -0.0864
  157SAPE  H10R17498   6.227   2.243   7.490 -1.0967 -1.5887 -1.6568
  157SAPE  H10S17499   6.370   2.210   7.575 -1.5269 -0.0680  0.7147
  157SAPE  C21117500   6.257   2.032   7.563  0.1494  0.1943  0.0800
  157SAPE  H11R17501   6.186   1.981   7.496  2.9007 -0.1894 -2.7977
  157SAPE  C21217502   6.292   1.969   7.681  0.4234 -0.4303  0.5007
  157SAPE  H12R17503   6.228   1.886   7.715 -1.8685  0.9042 -0.2985
  157SAPE  C21317504   6.390   2.008   7.789  1.1799  0.8377  0.7348
  157SAPE  H13R17505   6.464   2.072   7.737  0.5181 -0.3441 -1.7855
  157SAPE  H13S17506   6.443   1.925   7.841  0.0344  0.0637  0.6876
  157SAPE  C21417507   6.327   2.094   7.895  0.3465  0.1139  0.5061
  157SAPE  H14R17508   6.239   2.150   7.859  1.0205  0.5870 -0.4346
  157SAPE  C21517509   6.383   2.135   8.016 -0.5755 -0.1237  0.5030
  157SAPE  H15R17510   6.331   2.210   8.078 -1.2378  0.5544 -0.7979
  157SAPE  C21617511   6.524   2.104   8.058 -0.4725 -0.1635  0.3777
  157SAPE  H16R17512   6.573   2.200   8.085 -1.8327  1.3463 -2.1213
  157SAPE  H16S17513   6.578   2.061   7.971 -0.0479  0.3771  0.3679
  157SAPE  C21717514   6.529   2.006   8.179  0.4072  0.0706  1.0841
  157SAPE  H17R17515   6.506   1.903   8.143 -1.0857 -0.0529  2.3109
  157SAPE  H17S17516   6.455   2.018   8.261  0.7743  0.7973  1.3216
  157SAPE  C21817517   6.668   1.996   8.239  0.3755  0.2368 -0.4419
  157SAPE  H18R17518   6.677   2.097   8.285 -0.3769  0.7878 -1.4493
  157SAPE  H18S17519   6.756   1.980   8.173  1.3907 -2.1270  1.3608
  157SAPE  C21917520   6.658   1.881   8.338 -0.0007 -0.1705 -0.4979
  157SAPE  H19R17521   6.614   1.791   8.290 -3.0194  0.6284  0.5247
  157SAPE  H19S17522   6.585   1.915   8.415 -2.9728 -0.5682 -2.9532
  157SAPE  C22017523   6.791   1.840   8.389 -0.3168 -0.0565 -0.5466
  157SAPE  H20R17524   6.861   1.808   8.309 -0.6754 -1.6572 -0.2518
  157SAPE  H20S17525   6.792   1.766   8.472  0.0746  1.2437  0.6499
  157SAPE  H20T17526   6.835   1.927   8.442 -0.4618  0.7758 -1.7531
  157SAPE   C3317527   6.526   2.538   6.929 -0.4418  0.0393  0.1549
  157SAPE   H3X17528   6.420   2.557   6.904  0.2482  2.3388 -1.3532
  157SAPE   H3Y17529   6.579   2.636   6.921 -0.0368 -0.2763 -1.2725
  157SAPE   C3417530   6.543   2.491   7.075  0.1187 -0.9282 -0.1636
  157SAPE   H4X17531   6.650   2.463   7.070  0.4117 -0.2412  1.5832
  157SAPE   H4Y17532   6.476   2.403   7.084  0.3537 -0.9659  1.4103
  157SAPE   C3517533   6.522   2.601   7.187 -0.5890 -0.1483  0.1317
  157SAPE   H5X17534   6.417   2.639   7.183 -0.0597  1.3413 -0.5342
  157SAPE   H5Y17535   6.592   2.685   7.169  0.2287 -0.7313  0.5663
  157SAPE   C3617536   6.558   2.542   7.325 -0.2876 -0.6634 -0.3527
  157SAPE   H6X17537   6.657   2.493   7.327 -0.2127 -0.5394 -1.0146
  157SAPE   H6Y17538   6.480   2.465   7.343 -1.0771  0.1497 -0.2118
  157SAPE   C3717539   6.532   2.643   7.441  0.4136 -0.1536  0.2259
  157SAPE   H7X17540   6.422   2.644   7.458  0.0543  0.6887 -1.8328
  157SAPE   H7Y17541   6.560   2.749   7.423 -0.6330  0.2215  0.7444
  157SAPE   C3817542   6.611   2.605   7.568  0.2145  1.0370  0.0133
  157SAPE   H8X17543   6.720   2.598   7.547 -0.1865  0.8339 -2.2196
  157SAPE   H8Y17544   6.563   2.507   7.585 -0.7358  1.2839 -1.0829
  157SAPE   C3917545   6.573   2.696   7.677  0.2149 -0.1684  0.2396
  157SAPE   H9X17546   6.463   2.713   7.686 -0.2046 -2.1103 -0.5582
  157SAPE   H9Y17547   6.614   2.793   7.642  1.4199 -0.9664 -0.6279
  157SAPE  C31017548   6.620   2.651   7.819 -0.2417 -0.3835 -0.5417
  157SAPE  H10X17549   6.730   2.644   7.828 -0.3791 -0.8059  1.1133
  157SAPE  H10Y17550   6.591   2.547   7.846 -0.3928 -0.3183 -0.4537
  157SAPE  C31117551   6.569   2.746   7.926  0.5571  0.3067 -1.4502
  157SAPE  H11X17552   6.465   2.780   7.907 -0.6193 -3.3887 -2.3569
  157SAPE  H11Y17553   6.624   2.842   7.917  0.2981  0.3436 -2.9283
  157SAPE  C31217554   6.570   2.676   8.067  0.6190 -0.4428 -0.1861
  157SAPE  H12X17555   6.668   2.628   8.091  1.1210  0.4622 -0.3771
  157SAPE  H12Y17556   6.491   2.598   8.064 -0.2748  0.2587  2.3269
  157SAPE  C31317557   6.528   2.769   8.179  1.0094  0.4020 -0.2595
  157SAPE  H13X17558   6.429   2.816   8.159  0.7579  1.3810  2.8467
  157SAPE  H13Y17559   6.606   2.847   8.167  2.6526 -1.2497 -0.7796
  157SAPE  C31417560   6.536   2.695   8.315 -0.1142 -1.0786  0.3060
  157SAPE  H14X17561   6.531   2.774   8.393  0.8214 -0.0363 -0.6556
  157SAPE  H14Y17562   6.633   2.643   8.329  1.5548  0.9773 -2.5992
  157SAPE  C31517563   6.424   2.601   8.340  0.3588  1.1969  0.0662
  157SAPE  H15X17564   6.401   2.546   8.246  1.0547  1.8274 -0.4880
  157SAPE  H15Y17565   6.335   2.664   8.361  1.3174  1.8617  2.5826
  157SAPE  C31617566   6.452   2.503   8.461  1.3741  0.2331  0.3155
  157SAPE  H16X17567   6.452   2.570   8.549 -0.4733 -1.7209  1.9118
  157SAPE  H16Y17568   6.556   2.465   8.451  0.9802 -0.5748 -1.0151
  157SAPE  C31717569   6.346   2.389   8.482  0.3517 -0.6438  0.0995
  157SAPE  H17X17570   6.248   2.433   8.453 -0.0983  0.0372  2.4639
  157SAPE  H17Y17571   6.341   2.377   8.592  1.9144  2.3930  0.6109
  157SAPE  C31817572   6.378   2.254   8.423  0.0421  0.2499 -0.0741
  157SAPE  H18X17573   6.368   2.253   8.312  0.5172 -1.1097 -0.1157
  157SAPE  H18Y17574   6.316   2.170   8.460  1.0368 -0.0211  1.0663
  157SAPE  H18Z17575   6.487   2.241   8.438  0.3700  2.7700  0.2772
  158SAPE     N17576   2.499   5.825   6.003 -0.5253 -0.0591 -0.4781
  158SAPE   HN117577   2.532   5.912   6.051  1.9179 -2.1623  1.9834
  158SAPE   HN217578   2.520   5.829   5.901  0.3868  0.1444 -0.2924
  158SAPE   HN317579   2.395   5.828   6.007 -0.4682  0.4994  2.1340
  158SAPE   C1217580   2.547   5.698   6.072 -0.2281  0.1496 -0.2409
  158SAPE  H12A17581   2.515   5.613   6.008 -0.9342 -0.0683  0.3916
  158SAPE  H12B17582   2.498   5.691   6.171  0.5659  2.3170  0.3687
  158SAPE   C1117583   2.700   5.678   6.090 -0.5290 -0.1431  0.1848
  158SAPE  H11A17584   2.740   5.646   5.991  0.0660 -0.4560  0.5289
  158SAPE  H11B17585   2.729   5.604   6.167 -0.3142  0.1292  0.3701
  158SAPE     P17586   2.743   5.898   6.224  0.2511 -0.0665  0.0098
  158SAPE   O1317587   2.868   5.948   6.288  0.0412  0.3220  0.6479
  158SAPE   O1417588   2.639   5.995   6.175 -0.1351 -0.6254 -0.4621
  158SAPE   O1217589   2.776   5.793   6.112  0.4902 -0.5963  0.1118
  158SAPE   O1117590   2.665   5.814   6.335 -0.4939  0.0726 -0.2680
  158SAPE    C117591   2.730   5.743   6.442  0.1786 -0.4624  0.2193
  158SAPE    HA17592   2.840   5.734   6.426  0.2744 -1.6626  1.3675
  158SAPE    HB17593   2.731   5.801   6.537  1.2148 -2.1591  1.3036
  158SAPE    C217594   2.682   5.602   6.480 -0.6039  0.4097 -0.3563
  158SAPE    HS17595   2.683   5.531   6.394 -0.3229  0.4715 -0.4026
  158SAPE   O2117596   2.552   5.615   6.542 -0.0143  0.4231 -0.3487
  158SAPE   C2117597   2.442   5.576   6.479 -0.2335 -0.6011  0.1599
  158SAPE   O2217598   2.435   5.537   6.363 -0.9101 -0.0436  0.3914
  158SAPE   C2217599   2.334   5.590   6.574  0.2136 -1.0855  0.0711
  158SAPE   H2R17600   2.365   5.535   6.665  1.1972  0.0200  0.4382
  158SAPE   H2S17601   2.319   5.696   6.604  0.8700 -1.3108  1.2316
  158SAPE    C317602   2.785   5.533   6.581  0.4945 -0.0740  0.0785
  158SAPE    HX17603   2.877   5.531   6.517 -0.5003 -3.6636 -1.4999
  158SAPE    HY17604   2.745   5.430   6.594 -1.5259  0.3700 -1.9885
  158SAPE   O3117605   2.795   5.604   6.706  0.3345 -0.6157 -0.4630
  158SAPE   C3117606   2.701   5.572   6.802 -0.6230  0.0470  0.7797
  158SAPE   O3217607   2.624   5.483   6.797  0.3993  1.0453  0.3908
  158SAPE   C3217608   2.727   5.668   6.917  1.7528 -0.3821  0.0845
  158SAPE   H2X17609   2.773   5.760   6.876  0.4818 -0.1875 -0.9919
  158SAPE   H2Y17610   2.792   5.616   6.991 -1.8539 -2.3242  2.2424
  158SAPE   C2317611   2.193   5.526   6.536 -0.7684  0.5075 -0.4628
  158SAPE   H3R17612   2.217   5.419   6.522 -0.1260  0.5455  0.2749
  158SAPE   H3S17613   2.162   5.565   6.437  2.9299  2.8942 -0.8763
  158SAPE   C2417614   2.086   5.544   6.639 -0.5866 -0.3008  0.1430
  158SAPE   H4R17615   2.129   5.509   6.736  0.0881  0.3954  0.1033
  158SAPE   H4S17616   1.993   5.487   6.619 -1.6833  1.0788  1.1098
  158SAPE   C2517617   2.050   5.690   6.647 -0.4606 -0.4359 -0.7795
  158SAPE   H5R17618   2.042   5.735   6.547 -0.5260 -0.4434 -0.7773
  158SAPE   C2617619   2.032   5.758   6.763  0.0428 -0.4165  0.5572
  158SAPE   H6R17620   2.010   5.865   6.756 -2.8264 -0.8588  1.4168
  158SAPE   C2717621   2.040   5.716   6.906 -0.3452  0.1158 -0.5945
  158SAPE   H7R17622   2.051   5.606   6.922  1.1347  0.4815  1.2782
  158SAPE   H7S17623   1.944   5.747   6.953  0.5898  2.2552  0.0263
  158SAPE   C2817624   2.151   5.783   6.988 -0.2436 -0.3660  0.0506
  158SAPE   H8R17625   2.242   5.812   6.933 -0.1718 -1.5566 -0.4821
  158SAPE   C2917626   2.146   5.814   7.119 -0.2236 -0.3866  0.8458
  158SAPE   H9R17627   2.237   5.863   7.157  0.5857  0.7068 -2.1350
  158SAPE  C21017628   2.031   5.782   7.207  0.0292  0.5598  0.2637
  158SAPE  H10R17629   1.970   5.700   7.165 -1.0954  0.4674  1.9736
  158SAPE  H10S17630   1.971   5.875   7.209 -0.3379  0.5058 -3.0821
  158SAPE  C21117631   2.091   5.734   7.342  0.5800 -0.0599  0.0816
  158SAPE  H11R17632   2.173   5.662   7.335  0.9997  0.4464 -0.3638
  158SAPE  C21217633   2.062   5.781   7.464  0.4136  0.0152 -1.1025
  158SAPE  H12R17634   2.107   5.736   7.554  1.5985  2.4396 -0.3849
  158SAPE  C21317635   1.964   5.893   7.488 -0.0203  0.1474 -0.0640
  158SAPE  H13R17636   1.863   5.848   7.480 -0.9692  1.7435  2.0181
  158SAPE  H13S17637   1.961   5.969   7.406 -1.9159 -1.3147 -1.4557
  158SAPE  C21417638   1.989   5.963   7.618  0.2599  0.7645  0.0911
  158SAPE  H14R17639   2.092   5.984   7.653 -0.3610  2.1788  1.1974
  158SAPE  C21517640   1.884   5.998   7.695  0.2839  0.7140  0.5389
  158SAPE  H15R17641   1.912   6.049   7.788  1.7307  0.6477  0.1747
  158SAPE  C21617642   1.735   5.975   7.674 -0.5040  0.1476  0.0377
  158SAPE  H16R17643   1.704   5.887   7.734 -0.0755 -0.9773 -1.3321
  158SAPE  H16S17644   1.713   5.942   7.570  0.8848  0.8589 -0.5092
  158SAPE  C21717645   1.650   6.095   7.699 -0.4469  0.0239  0.0905
  158SAPE  H17R17646   1.653   6.109   7.809 -0.7999 -0.8920  0.2270
  158SAPE  H17S17647   1.542   6.085   7.677  0.0062  0.0620 -2.5224
  158SAPE  C21817648   1.699   6.228   7.629  0.5978  0.3516 -0.5368
  158SAPE  H18R17649   1.674   6.205   7.523  0.8663  1.3133 -0.8144
  158SAPE  H18S17650   1.808   6.244   7.638  0.3270  3.4531 -1.7141
  158SAPE  C21917651   1.632   6.354   7.678  0.6776 -0.3953  0.1808
  158SAPE  H19R17652   1.645   6.354   7.788  0.1253  0.4497  0.2560
  158SAPE  H19S17653   1.525   6.342   7.649  0.7307 -1.1399  0.2623
  158SAPE  C22017654   1.693   6.482   7.616  0.7953 -1.0041 -0.0217
  158SAPE  H20R17655   1.681   6.477   7.506  1.4300 -1.5795 -0.0707
  158SAPE  H20S17656   1.800   6.491   7.646  0.3031  0.7042  1.3532
  158SAPE  H20T17657   1.637   6.572   7.647  0.3841 -1.3025  0.1214
  158SAPE   C3317658   2.605   5.708   6.997  0.0652  0.2937  0.1096
  158SAPE   H3X17659   2.556   5.615   7.031 -0.8250 -0.3099 -2.5879
  158SAPE   H3Y17660   2.522   5.759   6.944 -0.7070  0.3610  1.3491
  158SAPE   C3417661   2.655   5.789   7.119 -0.3243 -0.3481  0.5600
  158SAPE   H4X17662   2.693   5.891   7.093 -1.0912 -0.4193 -0.9920
  158SAPE   H4Y17663   2.743   5.752   7.176 -0.3716  0.1504  0.9623
  158SAPE   C3517664   2.537   5.813   7.217  0.1228 -0.5576 -0.4466
  158SAPE   H5X17665   2.507   5.709   7.241  0.9942 -0.1608  2.9999
  158SAPE   H5Y17666   2.464   5.860   7.149  0.5064  1.8978  0.7247
  158SAPE   C3617667   2.551   5.900   7.347  0.3019  0.3326  0.0408
  158SAPE   H6X17668   2.591   5.999   7.316  0.3717  0.0202 -0.8830
  158SAPE   H6Y17669   2.629   5.855   7.413 -1.0189 -2.2071 -0.0139
  158SAPE   C3717670   2.427   5.902   7.439 -0.4652 -0.3766  0.7192
  158SAPE   H7X17671   2.356   5.969   7.386  1.4491  1.1628  0.0152
  158SAPE   H7Y17672   2.391   5.797   7.442  0.9621 -0.9515 -0.8688
  158SAPE   C3817673   2.462   5.964   7.570  0.1681 -0.0340  0.2883
  158SAPE   H8X17674   2.521   6.058   7.563 -0.4778  0.3207 -0.5271
  158SAPE   H8Y17675   2.528   5.891   7.621 -1.5132 -2.6388 -1.0280
  158SAPE   C3917676   2.341   5.981   7.658  0.6683 -0.1452  0.0578
  158SAPE   H9X17677   2.274   5.901   7.619  0.9007 -0.5766  0.5283
  158SAPE   H9Y17678   2.296   6.081   7.647 -0.2132 -0.5854 -0.4416
  158SAPE  C31017679   2.385   5.973   7.807  0.1149  0.0412 -0.1293
  158SAPE  H10X17680   2.440   6.062   7.844 -0.8167 -0.4951  2.8347
  158SAPE  H10Y17681   2.456   5.889   7.819 -0.8413 -0.6640  0.8060
  158SAPE  C31117682   2.264   5.956   7.892 -0.3562 -0.9048  0.5235
  158SAPE  H11X17683   2.190   5.887   7.844 -0.0750 -1.2957  0.6462
  158SAPE  H11Y17684   2.220   6.056   7.913  0.6910 -0.5354  1.0007
  158SAPE  C31217685   2.288   5.895   8.034 -0.0167  0.1653 -0.7707
  158SAPE  H12X17686   2.353   5.969   8.085  1.0825 -2.0759  1.3395
  158SAPE  H12Y17687   2.335   5.795   8.022  1.1821  0.6757 -0.4772
  158SAPE  C31317688   2.161   5.881   8.117  0.0640 -0.3261 -0.0953
  158SAPE  H13X17689   2.087   5.829   8.052  2.2311  1.8626 -4.8147
  158SAPE  H13Y17690   2.132   5.985   8.140  2.2910  0.0557  1.2702
  158SAPE  C31417691   2.182   5.812   8.253 -0.1515 -0.6823  0.5334
  158SAPE  H14X17692   2.274   5.841   8.309  0.5011 -2.2024  0.3040
  158SAPE  H14Y17693   2.180   5.703   8.236 -1.9594 -0.4134 -1.3649
  158SAPE  C31517694   2.063   5.831   8.347  0.2082 -0.6674  0.5350
  158SAPE  H15X17695   2.061   5.941   8.360  0.9826 -0.5222 -0.5027
  158SAPE  H15Y17696   2.082   5.788   8.448  0.9580  0.0005  0.6819
  158SAPE  C31617697   1.926   5.777   8.290 -0.4066 -0.0361  0.8074
  158SAPE  H16X17698   1.949   5.668   8.290 -2.0529 -0.4117  1.0104
  158SAPE  H16Y17699   1.900   5.804   8.186  1.1454  1.4852  0.7696
  158SAPE  C31717700   1.805   5.805   8.378 -1.0092  0.4613 -0.3640
  158SAPE  H17X17701   1.805   5.905   8.427 -2.0017  0.0518  0.5179
  158SAPE  H17Y17702   1.809   5.734   8.464  2.2469  0.3049 -0.5078
  158SAPE  C31817703   1.671   5.788   8.313 -0.3637 -0.0546 -0.1565
  158SAPE  H18X17704   1.661   5.687   8.266 -2.9426  0.1653 -0.2537
  158SAPE  H18Y17705   1.664   5.864   8.233  1.6152  1.2541  0.8252
  158SAPE  H18Z17706   1.587   5.787   8.387 -0.8070 -5.1863 -0.3688
  159SAPE     N17707   6.755   3.765   6.203  0.1006 -0.0261 -0.3232
  159SAPE   HN117708   6.807   3.839   6.254 -2.2189  0.3066  1.7516
  159SAPE   HN217709   6.751   3.802   6.106 -0.0223  1.5157  0.2526
  159SAPE   HN317710   6.659   3.756   6.243 -1.0883  0.6509 -2.8247
  159SAPE   C1217711   6.827   3.635   6.230 -0.3604 -0.8478  0.7749
  159SAPE  H12A17712   6.902   3.626   6.148 -1.8456 -0.0723 -0.7365
  159SAPE  H12B17713   6.748   3.557   6.229  0.3497 -1.6171  2.4778
  159SAPE   C1117714   6.888   3.637   6.371  0.4017 -0.2448  0.0353
  159SAPE  H11A17715   6.933   3.539   6.398  2.0539  0.6327  0.6764
  159SAPE  H11B17716   6.804   3.650   6.442  0.3635 -1.2493  0.1941
  159SAPE     P17717   7.119   3.728   6.456 -0.0488 -0.2504 -0.1129
  159SAPE   O1317718   7.135   3.605   6.536 -0.4685  0.3985 -0.2089
  159SAPE   O1417719   7.218   3.755   6.350  0.0287 -0.2349 -0.4076
  159SAPE   O1217720   6.977   3.739   6.391 -0.3533  0.4165  0.3274
  159SAPE   O1117721   7.110   3.859   6.550 -0.1980  0.5803  0.4478
  159SAPE    C117722   7.212   3.879   6.643 -0.6132 -0.0977 -0.7532
  159SAPE    HA17723   7.309   3.837   6.609  1.7145  3.0704  1.4202
  159SAPE    HB17724   7.226   3.989   6.644 -1.7408  0.0603  0.3916
  159SAPE    C217725   7.178   3.830   6.790 -0.0004  0.1269 -0.1980
  159SAPE    HS17726   7.141   3.726   6.790  1.5904 -0.5153  2.3943
  159SAPE   O2117727   7.077   3.921   6.849 -0.2259  0.0996  0.0016
  159SAPE   C2117728   6.958   3.869   6.880 -0.4667 -0.6453 -0.5843
  159SAPE   O2217729   6.920   3.758   6.848 -0.1296  0.4767 -0.6420
  159SAPE   C2217730   6.872   3.967   6.958 -0.3528 -0.4409  0.6343
  159SAPE   H2R17731   6.934   4.023   7.030  1.8428 -0.8208 -0.8695
  159SAPE   H2S17732   6.841   4.048   6.889 -2.5607 -1.9232 -0.2497
  159SAPE    C317733   7.311   3.829   6.879  0.3206 -0.2330 -0.0967
  159SAPE    HX17734   7.339   3.935   6.897 -1.0674 -0.1856  2.1702
  159SAPE    HY17735   7.395   3.780   6.825  2.5447  1.5486  1.5738
  159SAPE   O3117736   7.298   3.765   7.014 -0.4574 -0.4312 -0.1184
  159SAPE   C3117737   7.313   3.629   7.017  0.1059  0.1570  0.0999
  159SAPE   O3217738   7.315   3.555   6.922  0.7874 -0.6080 -0.1553
  159SAPE   C3217739   7.325   3.574   7.154  0.5114  0.3548 -0.2908
  159SAPE   H2X17740   7.355   3.468   7.153 -1.7840 -0.3572 -1.2843
  159SAPE   H2Y17741   7.223   3.566   7.197 -0.9293 -1.2231 -3.6264
  159SAPE   C2317742   6.750   3.902   7.033  0.0968 -0.0846  0.4232
  159SAPE   H3R17743   6.698   3.824   6.973 -0.1525 -0.9373  1.6833
  159SAPE   H3S17744   6.678   3.985   7.053  1.0518  0.5070  1.5350
  159SAPE   C2417745   6.795   3.862   7.179 -1.0083  0.0461  0.1838
  159SAPE   H4R17746   6.701   3.859   7.238 -1.7236  0.8422 -0.8662
  159SAPE   H4S17747   6.845   3.954   7.215  1.6544 -0.9807 -0.5948
  159SAPE   C2517748   6.873   3.740   7.190 -0.2183  0.0148 -0.9969
  159SAPE   H5R17749   6.850   3.666   7.113 -1.0977 -1.1246  0.3124
  159SAPE   C2617750   6.970   3.719   7.277  0.6519 -0.2828 -0.2817
  159SAPE   H6R17751   7.023   3.623   7.266 -0.8435 -0.9847 -1.6572
  159SAPE   C2717752   7.013   3.816   7.386 -0.2446  0.6550  0.5068
  159SAPE   H7R17753   7.019   3.756   7.479  1.5070 -1.3979 -0.8328
  159SAPE   H7S17754   6.946   3.903   7.403 -0.0566  0.7735  0.6425
  159SAPE   C2817755   7.155   3.862   7.369  0.5516  0.0211 -0.7652
  159SAPE   H8R17756   7.164   3.897   7.265 -2.4564  2.7586 -0.2474
  159SAPE   C2917757   7.248   3.907   7.460  0.0341 -0.4006  0.5413
  159SAPE   H9R17758   7.351   3.918   7.424  0.2957  1.8155  1.8027
  159SAPE  C21017759   7.219   3.909   7.606  0.5529 -0.1594 -0.5594
  159SAPE  H10R17760   7.118   3.949   7.626  0.8856  0.2767  0.2787
  159SAPE  H10S17761   7.292   3.978   7.653 -2.9225  0.0071  5.5493
  159SAPE  C21117762   7.220   3.777   7.677  0.9067 -0.0769  0.1968
  159SAPE  H11R17763   7.182   3.690   7.622  1.2679  0.3533 -0.7632
  159SAPE  C21217764   7.248   3.768   7.811 -0.1071  0.2250 -0.1584
  159SAPE  H12R17765   7.257   3.670   7.861  0.9531 -0.4045 -1.4978
  159SAPE  C21317766   7.279   3.871   7.914 -0.0047  0.0228 -0.1508
  159SAPE  H13R17767   7.335   3.954   7.866 -1.8078  0.8497 -0.9048
  159SAPE  H13S17768   7.349   3.824   7.986 -0.0727 -0.9249 -0.6847
  159SAPE  C21417769   7.153   3.923   7.979 -0.2137  0.4581  0.2189
  159SAPE  H14R17770   7.059   3.872   7.954 -0.2179  1.2520 -1.5397
  159SAPE  C21517771   7.142   4.025   8.067 -0.6440  0.0129  0.3235
  159SAPE  H15R17772   7.041   4.021   8.110  0.3380 -0.6636  2.7596
  159SAPE  C21617773   7.246   4.113   8.134 -0.2814 -0.5141 -0.2581
  159SAPE  H16R17774   7.236   4.221   8.111 -1.6462 -0.7099 -0.6473
  159SAPE  H16S17775   7.342   4.079   8.088  0.5295  0.8577  0.3582
  159SAPE  C21717776   7.250   4.104   8.283  0.0288  0.2972  0.4000
  159SAPE  H17R17777   7.301   4.013   8.321  1.3096 -0.7104 -3.3641
  159SAPE  H17S17778   7.145   4.102   8.319 -0.4074 -2.0319 -0.8403
  159SAPE  C21817779   7.325   4.229   8.344  0.4290 -0.0566 -0.3515
  159SAPE  H18R17780   7.291   4.329   8.313  0.4429  0.0801  0.0693
  159SAPE  H18S17781   7.427   4.213   8.304  0.0771 -2.0437 -0.5999
  159SAPE  C21917782   7.329   4.225   8.500 -0.0605 -0.2557 -0.2610
  159SAPE  H19R17783   7.394   4.305   8.540 -0.7359 -0.1059  0.5534
  159SAPE  H19S17784   7.369   4.125   8.527 -0.0639  0.1502  1.3040
  159SAPE  C22017785   7.191   4.255   8.560  0.3726 -0.3365 -0.4208
  159SAPE  H20R17786   7.116   4.172   8.566 -0.7984  0.7473  0.5297
  159SAPE  H20S17787   7.149   4.340   8.503 -0.5079 -1.0667 -0.8991
  159SAPE  H20T17788   7.213   4.278   8.666  2.0894  0.8958 -1.0089
  159SAPE   C3317789   7.416   3.668   7.242  1.2931 -0.2009 -0.3179
  159SAPE   H3X17790   7.354   3.760   7.252  0.1136 -0.8772 -1.0859
  159SAPE   H3Y17791   7.512   3.684   7.190  0.1168  0.6789 -2.3241
  159SAPE   C3417792   7.440   3.610   7.381 -1.1807  0.0914 -0.6021
  159SAPE   H4X17793   7.461   3.502   7.369  0.6430  0.3689 -0.1238
  159SAPE   H4Y17794   7.344   3.626   7.436  0.2467  1.5972  1.6165
  159SAPE   C3517795   7.552   3.688   7.454  0.1096  0.2773  0.8137
  159SAPE   H5X17796   7.516   3.791   7.436  0.2235  0.1692 -0.0934
  159SAPE   H5Y17797   7.641   3.683   7.388 -0.9554  1.0800 -0.7396
  159SAPE   C3617798   7.579   3.645   7.600 -0.0644  0.1874 -0.2696
  159SAPE   H6X17799   7.485   3.596   7.634 -0.9445  0.3454 -2.2996
  159SAPE   H6Y17800   7.586   3.735   7.665  2.6891  0.5592 -0.9706
  159SAPE   C3717801   7.690   3.548   7.619 -0.5804  0.0265  0.6176
  159SAPE   H7X17802   7.779   3.597   7.574 -0.4141 -0.9922 -0.1949
  159SAPE   H7Y17803   7.660   3.465   7.553 -0.9103  0.4423  0.2405
  159SAPE   C3817804   7.718   3.506   7.765 -0.1005  0.6905  0.3906
  159SAPE   H8X17805   7.799   3.430   7.765 -0.6985 -0.0161 -1.3255
  159SAPE   H8Y17806   7.633   3.450   7.810  0.0672 -0.4812 -0.6873
  159SAPE   C3917807   7.745   3.624   7.867  0.8604 -0.5223 -0.2881
  159SAPE   H9X17808   7.688   3.712   7.829  0.3035 -1.3863 -1.5149
  159SAPE   H9Y17809   7.850   3.659   7.855  0.3696  1.0786 -0.2298
  159SAPE  C31017810   7.701   3.586   8.006 -0.9108 -1.1425 -0.4648
  159SAPE  H10X17811   7.750   3.651   8.083 -0.6144 -1.3778 -0.4545
  159SAPE  H10Y17812   7.738   3.485   8.034  0.1672 -0.9543 -1.1506
  159SAPE  C31117813   7.549   3.585   8.025 -0.1447 -0.2479  0.1149
  159SAPE  H11X17814   7.502   3.501   7.970 -0.2563 -0.4330  0.4862
  159SAPE  H11Y17815   7.509   3.681   7.986 -0.1496  0.2856  1.3848
  159SAPE  C31217816   7.502   3.582   8.173 -0.2871 -0.0586  0.2883
  159SAPE  H12X17817   7.549   3.496   8.226 -1.0404  0.1905  1.3675
  159SAPE  H12Y17818   7.394   3.558   8.169  0.2801 -2.9547 -0.0463
  159SAPE  C31317819   7.528   3.713   8.251  0.1204 -0.2726  1.3233
  159SAPE  H13X17820   7.496   3.798   8.187 -0.9817 -2.6437 -1.5089
  159SAPE  H13Y17821   7.637   3.720   8.275  0.6236 -2.2891 -0.1066
  159SAPE  C31417822   7.450   3.721   8.378  0.1664  0.6528  0.0769
  159SAPE  H14X17823   7.341   3.703   8.368  0.7621 -3.3229 -0.7256
  159SAPE  H14Y17824   7.473   3.823   8.416 -1.1192  0.5874  1.0866
  159SAPE  C31517825   7.508   3.630   8.491  0.0445  0.7726 -1.1200
  159SAPE  H15X17826   7.617   3.610   8.489  0.2028  1.2553  0.6387
  159SAPE  H15Y17827   7.468   3.529   8.471  0.4339  0.4294 -0.1970
  159SAPE  C31617828   7.457   3.665   8.632  0.2006 -0.1377 -0.1154
  159SAPE  H16X17829   7.418   3.567   8.666  1.1481 -0.4126  0.1992
  159SAPE  H16Y17830   7.367   3.731   8.626  0.1360 -0.0450  1.4278
  159SAPE  C31717831   7.566   3.717   8.723  0.8164 -0.6223  0.4438
  159SAPE  H17X17832   7.545   3.823   8.750 -1.3028 -1.0305  0.5564
  159SAPE  H17Y17833   7.660   3.715   8.663  0.2025 -2.8190 -0.5476
  159SAPE  C31817834   7.567   3.631   8.845  0.0155  0.5739 -0.0164
  159SAPE  H18X17835   7.470   3.649   8.898 -0.6120 -0.6357 -0.7065
  159SAPE  H18Y17836   7.656   3.650   8.908  0.9826 -0.4626 -1.0225
  159SAPE  H18Z17837   7.566   3.524   8.815 -0.0929  0.2865  0.9745
  160SAPE     N17838   1.452   1.730   6.234  0.1227 -0.5987 -0.1619
  160SAPE   HN117839   1.505   1.656   6.284  0.5638 -0.7355 -0.8170
  160SAPE   HN217840   1.358   1.740   6.278  0.5277  0.3315  0.5238
  160SAPE   HN317841   1.440   1.697   6.136  0.4242  0.3075 -0.5115
  160SAPE   C1217842   1.511   1.864   6.238 -0.7926 -0.4764 -0.7946
  160SAPE  H12A17843   1.441   1.923   6.175 -3.9916 -2.6036  0.5050
  160SAPE  H12B17844   1.617   1.856   6.206 -0.8618  0.3448 -1.2440
  160SAPE   C1117845   1.505   1.923   6.382  0.5897 -0.2687 -0.5648
  160SAPE  H11A17846   1.546   2.026   6.383 -2.6331  1.1830 -2.1100
  160SAPE  H11B17847   1.573   1.850   6.432 -0.4192 -1.0884 -0.3282
  160SAPE     P17848   1.274   2.036   6.428  0.3171  0.0255 -0.2605
  160SAPE   O1317849   1.318   2.118   6.308  0.4424  0.3292  0.0772
  160SAPE   O1417850   1.146   1.964   6.417 -0.1325  0.5142  0.5997
  160SAPE   O1217851   1.375   1.916   6.447  0.1862 -0.1813  1.2984
  160SAPE   O1117852   1.272   2.119   6.562 -0.0369 -0.0868 -0.1705
  160SAPE    C117853   1.395   2.176   6.620  0.5602  0.7794  0.7256
  160SAPE    HA17854   1.485   2.159   6.558 -1.2855 -0.3751 -1.8221
  160SAPE    HB17855   1.377   2.281   6.650 -2.8785  0.1754  1.2432
  160SAPE    C217856   1.434   2.118   6.753 -0.3597 -0.4821 -0.2660
  160SAPE    HS17857   1.505   2.179   6.814 -1.1574 -0.8173  1.0364
  160SAPE   O2117858   1.462   1.973   6.744 -0.6184 -0.2883 -0.0439
  160SAPE   C2117859   1.588   1.943   6.721  0.1960 -0.0207  0.4986
  160SAPE   O2217860   1.680   2.024   6.699  0.5738 -0.6658  0.6285
  160SAPE   C2217861   1.618   1.793   6.726  1.0175 -0.1078  0.5222
  160SAPE   H2R17862   1.585   1.751   6.823 -2.5500 -1.2462 -1.0158
  160SAPE   H2S17863   1.567   1.742   6.642  0.0011  0.7809  0.5735
  160SAPE    C317864   1.324   2.133   6.860  0.8508 -0.9485  0.2344
  160SAPE    HX17865   1.239   2.062   6.853 -0.6772  0.7508  0.6769
  160SAPE    HY17866   1.276   2.232   6.842 -0.7873 -1.8212 -0.3233
  160SAPE   O3117867   1.382   2.115   6.988 -0.2711 -0.5138  0.3101
  160SAPE   C3117868   1.318   2.180   7.090  0.0228 -0.3607 -0.1126
  160SAPE   O3217869   1.215   2.242   7.075 -0.3533 -0.1215 -0.2896
  160SAPE   C3217870   1.409   2.178   7.212  0.7881  0.0506 -0.5089
  160SAPE   H2X17871   1.507   2.226   7.188  2.1157 -0.8930  2.4938
  160SAPE   H2Y17872   1.438   2.072   7.227  2.0975  0.4390 -0.1580
  160SAPE   C2317873   1.766   1.764   6.694 -0.2560  0.7186  0.0372
  160SAPE   H3R17874   1.837   1.838   6.739  2.2232 -1.1127 -0.6467
  160SAPE   H3S17875   1.790   1.760   6.586 -1.3115 -2.5881 -0.1785
  160SAPE   C2417876   1.801   1.634   6.757 -0.5862 -0.0035 -0.4130
  160SAPE   H4R17877   1.766   1.548   6.696  1.7017 -1.0739 -0.3157
  160SAPE   H4S17878   1.752   1.640   6.856  0.0202  1.5792 -0.1930
  160SAPE   C2517879   1.954   1.620   6.776 -0.1861 -0.2440  0.2803
  160SAPE   H5R17880   1.998   1.543   6.711 -0.0494  0.6722 -0.7331
  160SAPE   C2617881   2.028   1.686   6.867 -0.1399  0.0633  0.1362
  160SAPE   H6R17882   2.135   1.659   6.870 -0.5892 -1.7274  0.8958
  160SAPE   C2717883   1.981   1.792   6.964 -0.7903  0.1616  0.6124
  160SAPE   H7R17884   1.995   1.746   7.064 -1.3406 -1.6448 -0.1231
  160SAPE   H7S17885   1.872   1.804   6.951 -0.6251  1.6150  0.3885
  160SAPE   C2817886   2.055   1.921   6.951 -0.0219  0.0231  0.1587
  160SAPE   H8R17887   2.052   1.960   6.848  1.3786  0.0249  0.0997
  160SAPE   C2917888   2.131   1.990   7.049 -0.5968  0.3594  0.2036
  160SAPE   H9R17889   2.179   2.083   7.016  0.1482 -0.2040 -0.3264
  160SAPE  C21017890   2.160   1.955   7.195  0.4195  0.9871  0.2752
  160SAPE  H10R17891   2.125   1.858   7.235 -1.4589  2.3708  2.1994
  160SAPE  H10S17892   2.106   2.028   7.259  1.1884 -0.4425  2.6493
  160SAPE  C21117893   2.304   1.969   7.233 -0.4779  1.5088  0.2249
  160SAPE  H11R17894   2.374   1.999   7.154 -1.4559  0.0099 -1.2780
  160SAPE  C21217895   2.359   1.943   7.351  0.0180 -0.4758 -0.0822
  160SAPE  H12R17896   2.468   1.932   7.355  0.1407 -0.1583 -1.8305
  160SAPE  C21317897   2.300   1.892   7.479  0.4706  0.4844 -0.0401
  160SAPE  H13R17898   2.191   1.902   7.462  0.4212 -0.1161 -0.0826
  160SAPE  H13S17899   2.331   1.967   7.555 -3.0047  1.5802  0.4729
  160SAPE  C21417900   2.326   1.752   7.525 -0.5610 -0.0977 -0.0861
  160SAPE  H14R17901   2.296   1.680   7.447 -0.0716 -2.3748  1.7127
  160SAPE  C21517902   2.362   1.704   7.643 -0.3655 -0.6167  0.8215
  160SAPE  H15R17903   2.367   1.595   7.659  0.5164 -0.7217 -0.0376
  160SAPE  C21617904   2.388   1.782   7.771 -0.0993 -0.0512 -0.1966
  160SAPE  H16R17905   2.387   1.889   7.741 -1.0241 -0.9286 -3.6748
  160SAPE  H16S17906   2.493   1.751   7.793 -0.3262 -2.1015 -1.7121
  160SAPE  C21717907   2.313   1.748   7.900 -0.0578  0.0948  0.1769
  160SAPE  H17R17908   2.293   1.639   7.908  1.1881 -0.2811 -1.3359
  160SAPE  H17S17909   2.222   1.808   7.919  0.0096 -0.9666  5.2960
  160SAPE  C21817910   2.393   1.793   8.023 -0.2500  0.6061 -0.3112
  160SAPE  H18R17911   2.402   1.904   8.028  0.1652  0.5949 -0.7649
  160SAPE  H18S17912   2.493   1.744   8.025 -0.3616  0.2007 -2.4178
  160SAPE  C21917913   2.323   1.737   8.150  0.2823 -0.3813  0.0053
  160SAPE  H19R17914   2.331   1.627   8.146 -1.3812 -0.4672 -1.7555
  160SAPE  H19S17915   2.217   1.768   8.157  0.4659 -0.0250  2.2535
  160SAPE  C22017916   2.398   1.785   8.268 -0.0448 -0.9074  0.2319
  160SAPE  H20R17917   2.399   1.896   8.282  0.1134 -1.1804  2.8906
  160SAPE  H20S17918   2.506   1.760   8.262  0.1284 -0.4897  1.3166
  160SAPE  H20T17919   2.363   1.750   8.368  2.4373 -0.0507  1.5031
  160SAPE   C3317920   1.343   2.234   7.334 -0.1468  0.5837  0.7295
  160SAPE   H3X17921   1.235   2.215   7.347 -0.0249 -0.9166 -0.1741
  160SAPE   H3Y17922   1.352   2.345   7.322 -0.9978  0.7759  1.7429
  160SAPE   C3417923   1.426   2.209   7.466  0.0548 -0.4056 -0.3762
  160SAPE   H4X17924   1.522   2.259   7.439  0.3594 -1.0008 -0.4051
  160SAPE   H4Y17925   1.441   2.101   7.482 -0.0842 -0.2975  0.5075
  160SAPE   C3517926   1.377   2.275   7.596 -1.0004  0.8812 -0.4340
  160SAPE   H5X17927   1.274   2.239   7.613 -0.4436  0.5161  2.7429
  160SAPE   H5Y17928   1.387   2.385   7.583 -1.2767  0.9513 -0.0484
  160SAPE   C3617929   1.468   2.243   7.714  0.7972 -0.3669  0.8422
  160SAPE   H6X17930   1.572   2.279   7.699  0.2784  1.2279  0.8838
  160SAPE   H6Y17931   1.483   2.133   7.718 -0.1515 -0.8478 -3.6385
  160SAPE   C3717932   1.427   2.294   7.854  0.6936  0.4254 -0.4515
  160SAPE   H7X17933   1.323   2.262   7.880  1.1515 -1.0517 -0.3355
  160SAPE   H7Y17934   1.430   2.405   7.854 -0.0464  0.4554  0.5958
  160SAPE   C3817935   1.510   2.228   7.963  0.3651  0.0645 -0.1466
  160SAPE   H8X17936   1.611   2.273   7.954  0.0182  0.4891 -2.6488
  160SAPE   H8Y17937   1.518   2.120   7.937  0.3722  0.3868 -1.5755
  160SAPE   C3917938   1.453   2.249   8.104  0.3208 -0.7230 -1.1965
  160SAPE   H9X17939   1.345   2.223   8.095  0.1354 -0.3523 -0.1433
  160SAPE   H9Y17940   1.463   2.356   8.131  0.9522 -0.2065 -3.3294
  160SAPE  C31017941   1.523   2.160   8.215  0.5380  0.4849  0.6234
  160SAPE  H10X17942   1.494   2.191   8.318 -1.7662 -1.1561  0.5499
  160SAPE  H10Y17943   1.633   2.170   8.206  0.8875 -3.1884 -0.6247
  160SAPE  C31117944   1.472   2.011   8.205 -0.4476  0.1103 -0.1234
  160SAPE  H11X17945   1.464   1.961   8.106  0.2244 -1.4805  0.5892
  160SAPE  H11Y17946   1.375   2.015   8.258  0.3679 -2.0703  1.6999
  160SAPE  C31217947   1.571   1.922   8.304  0.6813  0.4327 -0.0748
  160SAPE  H12X17948   1.568   1.979   8.399 -1.0278  0.4709 -0.1088
  160SAPE  H12Y17949   1.671   1.926   8.257  0.2190 -0.5130 -1.2080
  160SAPE  C31317950   1.538   1.777   8.317 -0.1715  0.6154  0.0510
  160SAPE  H13X17951   1.535   1.729   8.216  0.4121 -0.0646  0.3531
  160SAPE  H13Y17952   1.430   1.768   8.339  0.0405  1.2319  1.4105
  160SAPE  C31417953   1.618   1.701   8.412 -0.6844 -0.0045 -0.9981
  160SAPE  H14X17954   1.576   1.599   8.427 -0.9464  0.4017  1.3963
  160SAPE  H14Y17955   1.604   1.747   8.512  0.1495 -2.3632  0.2863
  160SAPE  C31517956   1.767   1.705   8.384 -0.3287 -0.1798 -0.2128
  160SAPE  H15X17957   1.802   1.809   8.396  2.2460 -0.7324 -2.1455
  160SAPE  H15Y17958   1.779   1.674   8.278  1.2419 -0.4108  0.0123
  160SAPE  C31617959   1.862   1.615   8.475  0.1936 -0.4691 -0.0624
  160SAPE  H16X17960   1.830   1.508   8.475 -1.3139 -0.1197  2.8532
  160SAPE  H16Y17961   1.837   1.652   8.576  0.5560 -0.0424 -0.1276
  160SAPE  C31717962   2.008   1.644   8.445  0.2048 -0.2011 -0.3761
  160SAPE  H17X17963   2.012   1.751   8.474 -0.4311 -0.9118  2.7083
  160SAPE  H17Y17964   2.025   1.633   8.336 -2.0437 -1.6281 -0.6455
  160SAPE  C31817965   2.101   1.571   8.528  0.0238 -0.1966  0.0954
  160SAPE  H18X17966   2.154   1.484   8.483 -1.6638 -2.9208  2.9869
  160SAPE  H18Y17967   2.044   1.544   8.620 -0.2975  0.4001  0.0715
  160SAPE  H18Z17968   2.180   1.638   8.568  0.2508 -1.2363  1.4816
  161SOPE     N17969   1.984   3.842  10.634  0.1593 -0.3033  0.1128
  161SOPE   HN117970   1.966   3.889  10.725 -0.2672 -0.2003 -0.0218
  161SOPE   HN217971   2.086   3.824  10.636  0.9227  3.0128 -1.0985
  161SOPE   HN317972   1.961   3.925  10.574 -3.7511  0.3283  2.1662
  161SOPE   C1217973   1.892   3.716  10.624 -0.3600  0.1455  0.3787
  161SOPE  H12A17974   1.791   3.760  10.628 -1.0532 -1.4147  0.7011
  161SOPE  H12B17975   1.900   3.670  10.725 -0.1006 -0.1856  0.2111
  161SOPE   C1117976   1.904   3.618  10.504 -0.2927  0.4613 -0.5005
  161SOPE  H11A17977   1.850   3.678  10.428 -0.8650  0.4812 -0.0916
  161SOPE  H11B17978   1.843   3.528  10.528  0.7872  0.4256  2.6039
  161SOPE     P17979   2.123   3.468  10.539  0.0667  0.1212 -0.3212
  161SOPE   O1317980   2.042   3.383  10.627 -0.5722 -0.6032  0.3563
  161SOPE   O1417981   2.231   3.541  10.608  0.1779 -0.6902  0.0564
  161SOPE   O1217982   2.039   3.583  10.465  0.1308  0.0902  0.2187
  161SOPE   O1117983   2.181   3.391  10.414  0.0379  0.1310 -0.0232
  161SOPE    C117984   2.222   3.458  10.299 -0.2966 -0.0486  0.0499
  161SOPE    HA17985   2.155   3.534  10.252  0.7404  0.7329 -0.1976
  161SOPE    HB17986   2.209   3.385  10.216 -0.3366  2.6321 -2.4574
  161SOPE    C217987   2.366   3.517  10.294 -0.3352  0.1972  0.2445
  161SOPE    HS17988   2.372   3.617  10.342 -0.8779 -0.4674  1.7736
  161SOPE   O2117989   2.419   3.535  10.161 -0.7080  0.1910  0.3961
  161SOPE   C2117990   2.363   3.638  10.090  0.4455 -0.2074 -0.5169
  161SOPE   O2217991   2.280   3.713  10.134  0.2053  0.5646 -0.7525
  161SOPE   C2217992   2.435   3.652   9.952 -0.4260  0.6697 -0.0819
  161SOPE   H2R17993   2.441   3.549   9.910  1.5883  0.1754  1.2430
  161SOPE   H2S17994   2.534   3.690   9.986 -0.7141  0.2328  1.3195
  161SOPE    C317995   2.460   3.423  10.359  0.1380 -0.1151 -0.2119
  161SOPE    HX17996   2.436   3.412  10.467  0.2566  1.9735  0.0690
  161SOPE    HY17997   2.564   3.460  10.343  0.5757 -0.3472  1.8074
  161SOPE   O3117998   2.451   3.297  10.289  0.1436 -0.1396  0.4920
  161SOPE   C3117999   2.563   3.232  10.261 -0.8664  1.0291 -0.6593
  161SOPE   O3218000   2.679   3.267  10.286  0.3641 -0.3456 -0.4720
  161SOPE   C3218001   2.533   3.105  10.187 -0.0224 -0.6039 -0.5051
  161SOPE   H2X18002   2.429   3.074  10.208 -0.7000  1.1336 -1.1009
  161SOPE   H2Y18003   2.594   3.027  10.237 -0.8042  0.0516  1.5994
  161SOPE   C2318004   2.376   3.750   9.855  0.0304 -0.2330 -1.1240
  161SOPE   H3R18005   2.449   3.832   9.841  0.3713  0.0714  1.9146
  161SOPE   H3S18006   2.295   3.808   9.905  3.1902  3.5665  0.0758
  161SOPE   C2418007   2.347   3.689   9.716  0.5861 -0.3401 -0.5182
  161SOPE   H4R18008   2.280   3.601   9.711 -2.4103  1.7880 -1.0798
  161SOPE   H4S18009   2.288   3.768   9.664 -0.3772 -0.2853  0.6097
  161SOPE   C2518010   2.471   3.648   9.638  0.0548  1.1414  0.3058
  161SOPE   H5R18011   2.550   3.725   9.631 -0.3553  1.3960 -2.4648
  161SOPE   H5S18012   2.509   3.563   9.698 -0.5235  0.1337 -0.7180
  161SOPE   C2618013   2.439   3.585   9.499  0.2826  0.0877 -0.4485
  161SOPE   H6R18014   2.522   3.523   9.460  0.3436  0.2291 -0.5421
  161SOPE   H6S18015   2.350   3.519   9.500 -0.4625  1.0665  0.5920
  161SOPE   C2718016   2.410   3.699   9.400 -0.2935 -0.3947  0.0047
  161SOPE   H7R18017   2.330   3.758   9.450 -0.3640  0.7130 -1.3634
  161SOPE   H7S18018   2.495   3.768   9.379 -1.1738  0.3205 -1.3712
  161SOPE   C2818019   2.342   3.650   9.267  0.1449 -0.9630  0.2593
  161SOPE   H8R18020   2.251   3.591   9.291 -0.5553 -1.4003 -3.0240
  161SOPE   H8S18021   2.306   3.743   9.217 -0.4451 -2.5286 -2.4114
  161SOPE   C2918022   2.434   3.572   9.179  0.4260 -0.2229  0.6858
  161SOPE   H9118023   2.538   3.608   9.176  1.4843 -3.0937 -1.8743
  161SOPE  C21018024   2.411   3.466   9.098  0.2372 -0.6210 -0.8986
  161SOPE  H10118025   2.493   3.417   9.043 -1.1092 -2.2021 -1.5678
  161SOPE  C21118026   2.271   3.404   9.086 -0.0359  0.5447  0.4473
  161SOPE  H11R18027   2.196   3.463   9.144 -1.4519  0.3415 -1.1109
  161SOPE  H11S18028   2.266   3.299   9.122 -2.4313 -0.0442 -1.3708
  161SOPE  C21218029   2.228   3.397   8.934 -0.5434  0.4398 -0.3200
  161SOPE  H12R18030   2.121   3.365   8.932 -0.7134  1.0385 -1.8850
  161SOPE  H12S18031   2.281   3.314   8.884  1.8439  0.3849  2.0663
  161SOPE  C21318032   2.228   3.529   8.859  0.8475  0.4724 -0.2360
  161SOPE  H13R18033   2.332   3.569   8.850  0.6838  1.1196  0.6402
  161SOPE  H13S18034   2.161   3.592   8.920 -2.4014 -1.2585 -1.7589
  161SOPE  C21418035   2.159   3.539   8.719  0.0482 -1.1815 -0.3325
  161SOPE  H14R18036   2.200   3.452   8.664  3.0607  1.0846 -1.9541
  161SOPE  H14S18037   2.193   3.632   8.669  0.5906 -1.9167 -1.3382
  161SOPE  C21518038   2.001   3.545   8.737  0.4881  0.0761  0.3618
  161SOPE  H15R18039   1.965   3.613   8.816 -0.5663  0.9385 -0.8235
  161SOPE  H15S18040   1.969   3.442   8.762 -3.1192  1.1234  0.5359
  161SOPE  C21618041   1.931   3.590   8.610  0.7142  0.1436 -0.2110
  161SOPE  H16R18042   1.973   3.539   8.521  0.8278 -1.4788  0.7161
  161SOPE  H16S18043   1.953   3.699   8.607 -1.9424  0.7452 -0.3513
  161SOPE  C21718044   1.776   3.569   8.623  0.1850 -0.1313 -0.0933
  161SOPE  H17R18045   1.741   3.651   8.688 -0.5610  0.1329 -0.8071
  161SOPE  H17S18046   1.757   3.473   8.676  1.3901 -0.2923  0.0643
  161SOPE  C21818047   1.703   3.560   8.488  0.2876 -0.7029  0.3958
  161SOPE  H18R18048   1.737   3.468   8.436 -0.8411 -1.1267  0.3644
  161SOPE  H18S18049   1.727   3.654   8.434 -1.1928  0.6137  1.9011
  161SOPE  H18T18050   1.593   3.558   8.504  0.0091  1.4805 -0.8652
  161SOPE   C3318051   2.552   3.126  10.034  0.2073 -0.4192  0.2642
  161SOPE   H3X18052   2.571   3.030   9.980 -0.0926  0.4102 -1.3953
  161SOPE   H3Y18053   2.635   3.195  10.009 -0.7322  0.9685  0.8939
  161SOPE   C3418054   2.436   3.189   9.966 -0.3167 -0.2885  0.4895
  161SOPE   H4X18055   2.402   3.283  10.015  2.2261  0.8376  0.2588
  161SOPE   H4Y18056   2.344   3.127   9.976 -0.3799  0.0294  2.1756
  161SOPE   C3518057   2.458   3.224   9.821  0.3377  0.0322  0.8301
  161SOPE   H5X18058   2.565   3.246   9.799 -0.0217  0.6888 -0.3159
  161SOPE   H5Y18059   2.402   3.313   9.786  0.9750  0.0816 -0.0915
  161SOPE   C3618060   2.404   3.107   9.729 -0.3665 -0.2329 -0.1302
  161SOPE   H6X18061   2.294   3.093   9.736 -0.8178  2.4127 -0.8145
  161SOPE   H6Y18062   2.447   3.009   9.755 -2.4897 -1.2809 -0.3436
  161SOPE   C3718063   2.435   3.146   9.585 -0.2793  0.5264 -0.4149
  161SOPE   H7X18064   2.544   3.141   9.568 -0.3125  0.2036 -0.5476
  161SOPE   H7Y18065   2.408   3.253   9.575 -0.5930  0.4636 -0.2430
  161SOPE   C3818066   2.351   3.062   9.484  1.1929  0.1058  0.4798
  161SOPE   H8X18067   2.246   3.097   9.493  1.0806 -0.3466  1.0092
  161SOPE   H8Y18068   2.366   2.958   9.520  2.8380  0.0490 -0.3073
  161SOPE   C3918069   2.401   3.092   9.339  0.1210  0.0148 -0.1915
  161SOPE   H9X18070   2.500   3.046   9.319  0.2829  0.5639 -0.6702
  161SOPE   H9Y18071   2.403   3.197   9.303 -1.0712 -0.5605 -2.0728
  161SOPE  C31018072   2.323   3.007   9.231  0.2057 -0.6497 -1.0123
  161SOPE  H10X18073   2.224   3.053   9.211 -0.7320 -1.8187  0.6563
  161SOPE  H10Y18074   2.306   2.904   9.268 -0.8900 -0.0908  0.1019
  161SOPE  C31118075   2.384   3.010   9.092  1.0280  0.0561 -1.1352
  161SOPE  H11X18076   2.485   2.966   9.076  1.4250  1.0843 -1.5146
  161SOPE  H11Y18077   2.395   3.113   9.054  1.5135  1.6308  2.8594
  161SOPE  C31218078   2.294   2.924   8.996 -0.0245  0.1496  0.0640
  161SOPE  H12X18079   2.259   2.832   9.048 -1.4285  0.2227 -0.6975
  161SOPE  H12Y18080   2.366   2.890   8.919  0.4427 -2.5881  1.5897
  161SOPE  C31318081   2.186   2.996   8.921  0.0766 -0.8569  0.4783
  161SOPE  H13X18082   2.234   3.080   8.866  0.2014 -0.6542  0.8945
  161SOPE  H13Y18083   2.119   3.035   9.000  0.4280 -0.5155  0.6090
  161SOPE  C31418084   2.112   2.907   8.824  0.2605  0.1564  0.3620
  161SOPE  H14X18085   2.051   2.833   8.879 -1.6004  1.9749  0.8646
  161SOPE  H14Y18086   2.185   2.852   8.761  1.5669  2.9105 -0.7165
  161SOPE  C31518087   2.012   2.970   8.725  0.1663 -0.5940 -0.0301
  161SOPE  H15X18088   1.919   3.008   8.772  1.0806  1.6858  0.0410
  161SOPE  H15Y18089   1.971   2.891   8.659 -0.7167 -0.4482  0.3407
  161SOPE  C31618090   2.086   3.076   8.643  0.1224 -0.1417 -0.3112
  161SOPE  H16X18091   2.193   3.048   8.635  0.8787  2.5309 -0.4006
  161SOPE  H16Y18092   2.090   3.170   8.701 -0.5979 -0.4874  0.3200
  161SOPE  C31718093   2.029   3.113   8.503  0.4445  0.5824 -0.0668
  161SOPE  H17X18094   2.040   3.023   8.438  3.3421  1.2284 -0.6326
  161SOPE  H17Y18095   2.094   3.189   8.456 -0.9181  1.5536 -0.4292
  161SOPE  C31818096   1.879   3.157   8.492 -0.3762 -0.0190 -0.5506
  161SOPE  H18X18097   1.803   3.083   8.525 -1.7758  1.7926  0.4345
  161SOPE  H18Y18098   1.852   3.187   8.388  1.8578  0.4826 -1.0510
  161SOPE  H18Z18099   1.873   3.243   8.562 -1.2352  0.0070 -0.6399
  162SOPE     N18100   0.235   4.918  11.018 -0.4363 -0.7339 -0.3064
  162SOPE   HN118101   0.271   4.918  10.920 -1.7065 -0.4325 -0.8029
  162SOPE   HN218102   0.193   5.011  11.040  1.4302  0.0820 -0.0090
  162SOPE   HN318103   0.317   4.896  11.078  1.2503  0.1106 -2.1774
  162SOPE   C1218104   0.135   4.807  11.051 -0.3212  0.2411  0.0974
  162SOPE  H12A18105   0.042   4.867  11.057  0.6978  1.7904  1.2598
  162SOPE  H12B18106   0.159   4.762  11.150 -2.0966  2.0352  1.4332
  162SOPE   C1118107   0.145   4.703  10.947  0.6392  0.4171 -0.7243
  162SOPE  H11A18108   0.133   4.750  10.847  0.1281  1.1827 -0.3054
  162SOPE  H11B18109   0.056   4.637  10.960  0.0316  1.4809  0.6708
  162SOPE     P18110   0.356   4.585  10.832 -0.1702 -0.0175 -0.1013
  162SOPE   O1318111   0.414   4.456  10.872 -0.0536  0.5008  0.2378
  162SOPE   O1418112   0.443   4.694  10.786  0.2000  0.6929 -0.4807
  162SOPE   O1218113   0.272   4.636  10.955  0.0169  0.3343  0.1692
  162SOPE   O1118114   0.241   4.561  10.716 -0.5967  0.0508 -0.2000
  162SOPE    C118115   0.251   4.475  10.606 -0.1369 -0.3509 -0.1166
  162SOPE    HA18116   0.176   4.501  10.529  0.4200 -2.3621 -1.4174
  162SOPE    HB18117   0.239   4.372  10.646  0.0745  0.4645  2.2014
  162SOPE    C218118   0.389   4.483  10.536  0.4914 -0.0709  0.0192
  162SOPE    HS18119   0.473   4.472  10.607  1.5209 -0.1991 -1.1878
  162SOPE   O2118120   0.389   4.621  10.488  0.3179  1.0109  0.0549
  162SOPE   C2118121   0.506   4.676  10.468 -0.6045  0.7726  0.2954
  162SOPE   O2218122   0.613   4.624  10.499 -0.0179 -0.4362  0.1290
  162SOPE   C2218123   0.490   4.809  10.394 -0.8796  0.2910  0.6542
  162SOPE   H2R18124   0.567   4.878  10.434  0.8496 -1.2848  0.2220
  162SOPE   H2S18125   0.390   4.846  10.422 -1.0882  2.4614 -2.4749
  162SOPE    C318126   0.400   4.373  10.427  0.5499 -0.6209 -0.5914
  162SOPE    HX18127   0.423   4.280  10.482 -0.2946 -0.8793 -0.6614
  162SOPE    HY18128   0.485   4.404  10.362 -0.0572  0.0527 -1.0773
  162SOPE   O3118129   0.272   4.369  10.353 -0.2755 -0.0688  0.2428
  162SOPE   C3118130   0.206   4.245  10.344  0.8752 -0.6085 -0.0085
  162SOPE   O3218131   0.252   4.138  10.381  0.0204 -0.2084 -0.6098
  162SOPE   C3218132   0.083   4.266  10.262 -0.4637  0.0878  0.0801
  162SOPE   H2X18133   0.043   4.369  10.279  2.1457  1.3045 -0.6285
  162SOPE   H2Y18134   0.009   4.185  10.282 -1.1745 -0.2179 -3.1912
  162SOPE   C2318135   0.505   4.802  10.237  0.4453 -0.1398  0.2884
  162SOPE   H3R18136   0.616   4.795  10.226  0.6088 -0.8356  2.0486
  162SOPE   H3S18137   0.477   4.900  10.192  0.2614  0.0088  0.7226
  162SOPE   C2418138   0.426   4.694  10.164  0.3229  0.1266  0.7304
  162SOPE   H4R18139   0.460   4.596  10.205  1.4061 -0.2379 -0.9625
  162SOPE   H4S18140   0.318   4.716  10.179  0.7194  2.1719  0.7626
  162SOPE   C2518141   0.459   4.714  10.015  0.0573  0.5193  0.4733
  162SOPE   H5R18142   0.409   4.805   9.976  0.7621  1.4746  1.7529
  162SOPE   H5S18143   0.568   4.733  10.003  0.1571  2.4090  3.4405
  162SOPE   C2618144   0.419   4.591   9.923  0.3151 -0.4173 -0.0200
  162SOPE   H6R18145   0.420   4.504   9.994 -2.7431  0.5267  1.3576
  162SOPE   H6S18146   0.319   4.599   9.877  2.1479  1.9930 -4.0621
  162SOPE   C2718147   0.518   4.565   9.815 -0.2859 -0.1436 -0.1247
  162SOPE   H7R18148   0.558   4.659   9.769  0.6467 -0.5033 -0.0678
  162SOPE   H7S18149   0.605   4.502   9.844  1.3481  1.6510 -0.8951
  162SOPE   C2818150   0.458   4.481   9.706  0.1045  0.2093  0.3459
  162SOPE   H8R18151   0.540   4.446   9.640  0.2734  0.1979  0.5601
  162SOPE   H8S18152   0.407   4.396   9.756 -0.1359  1.1582  1.7856
  162SOPE   C2918153   0.351   4.545   9.627  0.5259  0.2653 -0.7841
  162SOPE   H9118154   0.275   4.602   9.683  0.6362  3.3709 -3.5345
  162SOPE  C21018155   0.324   4.533   9.499 -0.0608  0.2637 -0.0896
  162SOPE  H10118156   0.236   4.581   9.455  0.6067 -0.3434 -2.2129
  162SOPE  C21118157   0.407   4.449   9.402  0.5143  0.3458  0.3260
  162SOPE  H11R18158   0.353   4.357   9.373  1.5319  0.4345 -2.0901
  162SOPE  H11S18159   0.501   4.407   9.444 -0.5352 -1.6161  0.7846
  162SOPE  C21218160   0.434   4.525   9.266  0.0578  0.1215  0.1418
  162SOPE  H12R18161   0.493   4.615   9.293  3.0023 -1.4931 -0.4522
  162SOPE  H12S18162   0.338   4.554   9.218  0.3582 -0.9524 -1.1730
  162SOPE  C21318163   0.520   4.448   9.160 -0.9366  0.1975 -0.2951
  162SOPE  H13R18164   0.463   4.367   9.110 -0.7864 -0.5246  0.6863
  162SOPE  H13S18165   0.611   4.403   9.205  1.1603  3.2021 -1.1807
  162SOPE  C21418166   0.575   4.524   9.035  0.1434  0.1065 -0.3849
  162SOPE  H14R18167   0.617   4.448   8.965  0.8180 -0.3888  0.5319
  162SOPE  H14S18168   0.656   4.588   9.075  1.8076 -1.2004 -1.5193
  162SOPE  C21518169   0.469   4.609   8.967 -0.6412  0.5286 -0.5644
  162SOPE  H15R18170   0.444   4.697   9.030 -1.3663 -0.3657  0.4371
  162SOPE  H15S18171   0.372   4.557   8.954 -0.6244 -0.3108  2.2002
  162SOPE  C21618172   0.511   4.649   8.826 -0.0382 -0.1485  0.1678
  162SOPE  H16R18173   0.618   4.678   8.830 -0.3033  0.8933  0.0104
  162SOPE  H16S18174   0.461   4.745   8.802  1.9680  0.8551 -0.2474
  162SOPE  C21718175   0.492   4.549   8.704 -0.2805  0.1383 -0.2713
  162SOPE  H17R18176   0.390   4.507   8.711 -0.7050  0.4492 -3.3254
  162SOPE  H17S18177   0.565   4.467   8.719  1.3295  0.9489 -3.0075
  162SOPE  C21818178   0.506   4.618   8.570  0.1757 -0.0248 -0.4649
  162SOPE  H18R18179   0.420   4.686   8.559 -0.9987 -1.4490 -0.3635
  162SOPE  H18S18180   0.504   4.542   8.489 -1.9567  0.4934 -0.9632
  162SOPE  H18T18181   0.600   4.677   8.571  0.0211  0.2962  2.0400
  162SOPE   C3318182   0.122   4.260  10.113 -0.1146  0.3386  0.1122
  162SOPE   H3X18183   0.172   4.162  10.101  0.2652  0.4985  0.3510
  162SOPE   H3Y18184   0.199   4.334  10.081 -0.9721  0.9953 -0.5040
  162SOPE   C3418185   0.010   4.278  10.019  0.0289  0.0314  0.0747
  162SOPE   H4X18186  -0.029   4.381  10.027  0.6017  0.3520 -0.9535
  162SOPE   H4Y18187  -0.066   4.200  10.043  2.7703 -3.0981 -0.6116
  162SOPE   C3518188   0.058   4.245   9.878 -0.4440 -0.3194 -0.2367
  162SOPE   H5X18189   0.103   4.143   9.886 -1.6954 -0.8259  0.5253
  162SOPE   H5Y18190   0.141   4.315   9.851 -0.1966 -0.0243  1.1876
  162SOPE   C3618191  -0.054   4.240   9.769 -0.0758 -0.1003 -0.6054
  162SOPE   H6X18192  -0.115   4.332   9.757 -0.3944 -0.1258  0.6721
  162SOPE   H6Y18193  -0.122   4.160   9.805 -0.3155  0.1875 -0.4132
  162SOPE   C3718194  -0.004   4.190   9.626  0.1565 -0.1587 -0.2128
  162SOPE   H7X18195   0.027   4.083   9.630 -1.9444 -0.9075 -1.8087
  162SOPE   H7Y18196   0.078   4.258   9.597  0.9611 -0.7302  0.6879
  162SOPE   C3818197  -0.120   4.204   9.528 -0.0791 -0.3650  0.1118
  162SOPE   H8X18198  -0.156   4.309   9.520 -1.8466 -1.0322 -1.1708
  162SOPE   H8Y18199  -0.211   4.153   9.565 -0.5566  0.5887  0.2865
  162SOPE   C3918200  -0.092   4.159   9.388  0.5474 -0.3601 -0.1962
  162SOPE   H9X18201  -0.061   4.052   9.399  0.1292 -0.5649 -0.9660
  162SOPE   H9Y18202   0.003   4.210   9.362  1.8687 -2.5568  0.0733
  162SOPE  C31018203  -0.195   4.191   9.275 -0.7265  0.1483 -0.5118
  162SOPE  H10X18204  -0.227   4.298   9.274 -1.8255 -0.1591  0.3256
  162SOPE  H10Y18205  -0.286   4.129   9.276 -0.5509 -0.1630 -2.0355
  162SOPE  C31118206  -0.126   4.172   9.140  0.9077 -0.2414 -0.2865
  162SOPE  H11X18207  -0.074   4.073   9.149  1.7667  0.1165 -1.1063
  162SOPE  H11Y18208  -0.036   4.237   9.133  0.7970  0.6597  4.0235
  162SOPE  C31218209  -0.220   4.157   9.020 -0.3375 -0.0383  0.0542
  162SOPE  H12X18210  -0.283   4.247   9.002 -1.1275 -0.5376  0.3012
  162SOPE  H12Y18211  -0.291   4.081   9.059  2.9850 -2.2366  2.3962
  162SOPE  C31318212  -0.145   4.123   8.892  0.4337  0.1888 -0.2280
  162SOPE  H13X18213  -0.077   4.036   8.907  1.1945  0.5591 -1.3516
  162SOPE  H13Y18214  -0.080   4.212   8.877 -0.6285  1.0644  0.2631
  162SOPE  C31418215  -0.235   4.095   8.771 -0.8627  0.3945 -0.6004
  162SOPE  H14X18216  -0.300   4.182   8.747 -1.2150  0.2830 -0.0591
  162SOPE  H14Y18217  -0.313   4.016   8.781 -0.2889 -0.0372  0.6418
  162SOPE  C31518218  -0.152   4.051   8.650 -0.2702 -0.3242 -0.2537
  162SOPE  H15X18219  -0.225   4.044   8.567  0.3960  0.3576 -0.9117
  162SOPE  H15Y18220  -0.104   3.951   8.663 -1.9082 -1.7177 -3.6778
  162SOPE  C31618221  -0.042   4.147   8.595  0.1896  0.1085 -0.0779
  162SOPE  H16X18222   0.039   4.145   8.670  0.9837 -2.2848 -0.8992
  162SOPE  H16Y18223  -0.085   4.249   8.585  0.6353  0.4165  1.0139
  162SOPE  C31718224   0.024   4.108   8.461  0.1068 -0.0534 -0.3020
  162SOPE  H17X18225   0.106   4.180   8.440  0.6683 -0.0986  1.5070
  162SOPE  H17Y18226  -0.055   4.118   8.383 -0.2441  0.4430  0.1063
  162SOPE  C31818227   0.080   3.966   8.467 -0.2385 -0.1085 -0.1426
  162SOPE  H18X18228  -0.001   3.890   8.469  0.7923 -1.3037  2.9661
  162SOPE  H18Y18229   0.134   3.953   8.564 -1.8591  0.7279  0.9107
  162SOPE  H18Z18230   0.136   3.950   8.372 -0.1241 -1.7221  0.1636
  163SOPE     N18231   0.967   3.011  10.687 -0.8942 -0.8788  0.3056
  163SOPE   HN118232   1.040   2.980  10.619 -1.7493  2.3603 -2.3567
  163SOPE   HN218233   0.906   3.070  10.627 -1.1793 -0.1749  1.2634
  163SOPE   HN318234   1.021   3.064  10.757  0.9469 -1.7871 -0.3520
  163SOPE   C1218235   0.891   2.890  10.740 -0.6444 -0.5731  0.6642
  163SOPE  H12A18236   0.816   2.923  10.815 -0.1793 -0.1580  0.9512
  163SOPE  H12B18237   0.964   2.822  10.789  0.7226 -0.4241 -1.0653
  163SOPE   C1118238   0.811   2.808  10.634 -0.2022 -0.8295 -0.3520
  163SOPE  H11A18239   0.878   2.796  10.546 -0.3138  0.9963 -0.7209
  163SOPE  H11B18240   0.729   2.875  10.600  0.0682  0.0923  0.7359
  163SOPE     P18241   0.860   2.555  10.674 -0.2845 -0.2515  0.2541
  163SOPE   O1318242   0.842   2.473  10.802 -0.5634 -0.2645  0.4145
  163SOPE   O1418243   1.003   2.589  10.638 -1.1361 -0.4364  0.2485
  163SOPE   O1218244   0.766   2.682  10.684 -0.0990 -0.1841 -0.1277
  163SOPE   O1118245   0.787   2.469  10.556 -0.1779  0.2421  0.0652
  163SOPE    C118246   0.748   2.523  10.433  0.1790 -0.4346  0.0011
  163SOPE    HA18247   0.775   2.630  10.426 -0.2936 -0.3067  0.0406
  163SOPE    HB18248   0.637   2.534  10.432  0.0790 -1.4065 -0.6059
  163SOPE    C218249   0.824   2.457  10.317  0.0658  0.6864  0.7607
  163SOPE    HS18250   0.789   2.500  10.220  0.4103  1.2068  0.8609
  163SOPE   O2118251   0.817   2.317  10.312 -0.5765  0.3836 -0.0100
  163SOPE   C2118252   0.697   2.261  10.313 -0.9735  0.8628 -0.0904
  163SOPE   O2218253   0.590   2.322  10.316 -0.2129  0.0458  0.2408
  163SOPE   C2218254   0.714   2.109  10.314 -0.1133  0.3574 -0.1226
  163SOPE   H2R18255   0.738   2.073  10.416 -0.2561 -0.2221 -0.2875
  163SOPE   H2S18256   0.799   2.076  10.251 -1.1023 -0.8651 -0.8692
  163SOPE    C318257   0.973   2.490  10.314 -0.3251  0.1781  0.3840
  163SOPE    HX18258   1.002   2.449  10.413 -0.7316  0.9642  0.8285
  163SOPE    HY18259   0.993   2.598  10.325 -3.1372  0.8923 -0.8284
  163SOPE   O3118260   1.041   2.431  10.203 -0.2934  0.2694 -0.1542
  163SOPE   C3118261   1.015   2.480  10.082 -0.1540  0.5275 -0.5860
  163SOPE   O3218262   0.945   2.573  10.051  0.2635  0.0641 -0.0839
  163SOPE   C3218263   1.080   2.393   9.980  0.0803 -0.1914 -0.6742
  163SOPE   H2X18264   1.183   2.368  10.013  1.1479  2.1938 -1.9473
  163SOPE   H2Y18265   1.077   2.446   9.882 -0.6657  2.1557  0.5592
  163SOPE   C2318266   0.582   2.025  10.280  0.3544  0.6324  0.1876
  163SOPE   H3R18267   0.492   2.058  10.335  0.4811 -0.4460  1.0888
  163SOPE   H3S18268   0.606   1.921  10.314  0.7811  0.1892 -1.3922
  163SOPE   C2418269   0.565   2.011  10.133 -0.1728  0.9133  0.5816
  163SOPE   H4R18270   0.538   2.114  10.101 -1.2172  0.5536  0.2442
  163SOPE   H4S18271   0.646   1.975  10.066 -0.9252 -1.1743  0.7014
  163SOPE   C2518272   0.442   1.925  10.109  0.5346  0.8725  0.2162
  163SOPE   H5R18273   0.435   1.826  10.159 -3.3053 -0.4731 -2.5084
  163SOPE   H5S18274   0.352   1.983  10.138 -0.4875 -0.8623  0.6542
  163SOPE   C2618275   0.428   1.902   9.952 -0.1318 -0.0285 -0.4547
  163SOPE   H6R18276   0.420   2.000   9.901 -0.7476 -0.5051 -1.3030
  163SOPE   H6S18277   0.516   1.848   9.911  0.7655  1.3416 -0.3554
  163SOPE   C2718278   0.301   1.840   9.909 -0.4536  0.0169 -0.1111
  163SOPE   H7R18279   0.288   1.732   9.930  1.5546 -0.5451 -1.4798
  163SOPE   H7S18280   0.223   1.882   9.977 -0.4319  1.1343 -0.7497
  163SOPE   C2818281   0.269   1.863   9.759 -0.0483  0.7722  0.0078
  163SOPE   H8R18282   0.278   1.970   9.727  1.3311  1.5025  2.5999
  163SOPE   H8S18283   0.352   1.818   9.701 -0.7338 -1.0433  0.3827
  163SOPE   C2918284   0.133   1.805   9.720 -0.0278 -0.1002  0.4272
  163SOPE   H9118285   0.052   1.860   9.770  0.0536 -0.4095  0.9161
  163SOPE  C21018286   0.105   1.716   9.619 -0.5481 -0.0074 -0.3350
  163SOPE  H10118287  -0.001   1.691   9.610 -0.5503 -1.4003  2.4807
  163SOPE  C21118288   0.210   1.643   9.531  0.6091  0.2368 -0.0195
  163SOPE  H11R18289   0.191   1.535   9.548 -1.3257  0.3692 -1.0221
  163SOPE  H11S18290   0.316   1.666   9.554  0.8424 -1.0689  0.2608
  163SOPE  C21218291   0.190   1.647   9.374 -0.7059  0.5159 -0.4715
  163SOPE  H12R18292   0.265   1.574   9.337 -2.8151 -1.2913 -1.3555
  163SOPE  H12S18293   0.204   1.744   9.323 -1.5073 -0.5355 -2.7919
  163SOPE  C21318294   0.065   1.580   9.314 -0.1004 -0.3194  0.3706
  163SOPE  H13R18295  -0.029   1.631   9.346  0.1260 -0.4033  1.1842
  163SOPE  H13S18296   0.060   1.483   9.367 -1.0729  0.9627  2.7966
  163SOPE  C21418297   0.076   1.588   9.158  0.6139  0.9929  0.0400
  163SOPE  H14R18298   0.167   1.546   9.111  1.4718  2.0773  0.6769
  163SOPE  H14S18299   0.079   1.694   9.127 -2.6903  1.2789  0.3441
  163SOPE  C21518300  -0.046   1.531   9.093  0.9656 -0.0250 -0.1639
  163SOPE  H15R18301  -0.138   1.535   9.155  0.1751 -4.8695 -0.5840
  163SOPE  H15S18302  -0.032   1.422   9.078  2.2185  0.3288 -1.8485
  163SOPE  C21618303  -0.086   1.587   8.958  0.3354 -0.7828  0.1326
  163SOPE  H16R18304  -0.108   1.696   8.967 -0.2949 -0.8509 -0.5219
  163SOPE  H16S18305  -0.179   1.536   8.927  0.5560 -0.1890 -1.6012
  163SOPE  C21718306   0.027   1.579   8.857  0.4983 -0.4742  0.1698
  163SOPE  H17R18307   0.043   1.470   8.847 -0.3329 -0.5901 -0.0295
  163SOPE  H17S18308   0.125   1.627   8.879 -0.7794  2.0726  0.7492
  163SOPE  C21818309  -0.015   1.626   8.714  0.6667  1.2157 -0.0470
  163SOPE  H18R18310  -0.120   1.659   8.732  1.2870  2.6405  1.2346
  163SOPE  H18S18311  -0.017   1.536   8.650 -0.2763  2.0548 -1.2416
  163SOPE  H18T18312   0.046   1.707   8.669  3.1440 -1.2069 -1.3236
  163SOPE   C3318313   1.002   2.254   9.974 -0.3162 -0.0204 -0.3783
  163SOPE   H3X18314   0.954   2.211  10.064  1.9631 -2.2734 -0.1241
  163SOPE   H3Y18315   1.072   2.179   9.931 -0.2104  1.3125 -2.6980
  163SOPE   C3418316   0.892   2.256   9.859  0.0884  0.0677 -0.6606
  163SOPE   H4X18317   0.817   2.335   9.882 -1.0109 -1.3992  1.1708
  163SOPE   H4Y18318   0.841   2.157   9.855 -0.4571  0.3810 -1.6176
  163SOPE   C3518319   0.950   2.288   9.716 -0.2438  0.6298  0.2230
  163SOPE   H5X18320   1.017   2.203   9.690 -2.1084 -0.5645 -0.8390
  163SOPE   H5Y18321   1.011   2.381   9.710 -0.5551  0.8155 -0.1130
  163SOPE   C3618322   0.840   2.276   9.606  0.7413 -0.4762  0.1690
  163SOPE   H6X18323   0.754   2.331   9.649 -0.2976 -1.2113 -0.9062
  163SOPE   H6Y18324   0.802   2.174   9.581 -1.0996  0.9780 -3.8048
  163SOPE   C3718325   0.875   2.337   9.474 -0.7051 -0.0968  0.5527
  163SOPE   H7X18326   0.974   2.293   9.447 -0.5428  0.2600  0.5596
  163SOPE   H7Y18327   0.888   2.446   9.492  0.5217 -0.3792  1.5047
  163SOPE   C3818328   0.776   2.310   9.357 -0.3545 -0.6367 -0.0890
  163SOPE   H8X18329   0.689   2.379   9.366  0.5590  0.3533  1.7946
  163SOPE   H8Y18330   0.739   2.206   9.367 -2.1371  0.1173  1.5913
  163SOPE   C3918331   0.831   2.337   9.215  0.0454 -0.2694 -0.2579
  163SOPE   H9X18332   0.929   2.287   9.202  0.1468  0.4180 -2.5874
  163SOPE   H9Y18333   0.855   2.445   9.207 -0.8306 -0.0766 -0.4392
  163SOPE  C31018334   0.727   2.291   9.107 -0.5502 -0.7208  0.2325
  163SOPE  H10X18335   0.642   2.361   9.114  1.5827  2.0460  0.0228
  163SOPE  H10Y18336   0.692   2.185   9.116 -1.3954 -0.3940  0.9044
  163SOPE  C31118337   0.793   2.309   8.971 -0.4626 -0.0470  0.4307
  163SOPE  H11X18338   0.885   2.249   8.957  0.5123  0.6851  3.2311
  163SOPE  H11Y18339   0.828   2.414   8.965  1.2438 -0.6000  0.3424
  163SOPE  C31218340   0.696   2.289   8.846  0.4022  0.0360 -0.3969
  163SOPE  H12X18341   0.594   2.322   8.872 -0.1297 -2.0561  0.4115
  163SOPE  H12Y18342   0.689   2.180   8.824  0.4550  0.1638 -1.0845
  163SOPE  C31318343   0.737   2.370   8.721  0.1819 -0.4170  0.3419
  163SOPE  H13X18344   0.739   2.478   8.750 -1.0698 -0.2699 -0.0622
  163SOPE  H13Y18345   0.650   2.368   8.652 -0.2957  1.9000  0.7915
  163SOPE  C31418346   0.867   2.327   8.649 -0.2098  0.2763 -0.2996
  163SOPE  H14X18347   0.855   2.225   8.607  0.2739 -0.8838  2.1974
  163SOPE  H14Y18348   0.959   2.332   8.712 -1.0312  3.4518  0.8340
  163SOPE  C31518349   0.898   2.409   8.517 -0.1015  0.5395 -0.4146
  163SOPE  H15X18350   0.900   2.516   8.544 -0.1268  0.9750 -2.0464
  163SOPE  H15Y18351   0.810   2.393   8.450  0.1105 -2.7633 -0.0936
  163SOPE  C31618352   1.034   2.369   8.440  0.9552 -0.0313 -0.0162
  163SOPE  H16X18353   1.025   2.404   8.335 -0.6402  1.7705  0.6700
  163SOPE  H16Y18354   1.031   2.258   8.443  2.6655 -0.0912  1.3763
  163SOPE  C31718355   1.161   2.428   8.506  0.4922  0.6390  0.8377
  163SOPE  H17X18356   1.185   2.406   8.613  1.5484 -2.6356  0.0568
  163SOPE  H17Y18357   1.157   2.538   8.496 -0.8459  0.5535  0.2922
  163SOPE  C31818358   1.280   2.369   8.434 -0.2355 -0.2486  0.5037
  163SOPE  H18X18359   1.366   2.440   8.435 -0.3686 -0.0896  1.1350
  163SOPE  H18Y18360   1.257   2.355   8.326  0.0978  0.1874  0.3687
  163SOPE  H18Z18361   1.311   2.271   8.475 -2.2107 -0.9488  0.4193
  164SOPE     N18362   4.557   5.948  10.968 -0.8539  1.0497 -0.0508
  164SOPE   HN118363   4.622   5.962  11.047 -0.3216  1.1121 -0.4940
  164SOPE   HN218364   4.482   5.881  10.995 -0.9410  1.6280  1.2200
  164SOPE   HN318365   4.611   5.910  10.888 -0.4621  0.3180  0.5498
  164SOPE   C1218366   4.505   6.074  10.921 -0.1425  0.2303  0.7612
  164SOPE  H12A18367   4.435   6.118  10.995 -1.1826 -1.1923  0.6623
  164SOPE  H12B18368   4.438   6.051  10.835 -0.2287  1.2998  0.5254
  164SOPE   C1118369   4.634   6.161  10.876  0.3789 -0.3902  0.0208
  164SOPE  H11A18370   4.699   6.182  10.963  0.9922  1.7782 -0.8912
  164SOPE  H11B18371   4.591   6.259  10.846 -0.1267 -1.0831 -1.6019
  164SOPE     P18372   4.700   6.161  10.626 -0.0599  0.3322  0.4157
  164SOPE   O1318373   4.778   6.075  10.534 -0.3757  0.2912  0.6320
  164SOPE   O1418374   4.745   6.301  10.637  0.2534 -0.0800  0.5854
  164SOPE   O1218375   4.700   6.099  10.772 -0.1493 -0.2751  0.3515
  164SOPE   O1118376   4.550   6.141  10.602 -0.4126 -0.0302  0.4185
  164SOPE    C118377   4.488   6.060  10.509 -0.0537  0.2732  0.8311
  164SOPE    HA18378   4.387   6.036  10.550 -0.7088  0.7929 -0.4349
  164SOPE    HB18379   4.553   5.972  10.492  0.6915  0.5094  2.2848
  164SOPE    C218380   4.473   6.132  10.370 -0.5430  0.0949 -0.1647
  164SOPE    HS18381   4.578   6.154  10.340  0.7745 -0.4493  3.4815
  164SOPE   O2118382   4.391   6.249  10.374  0.1964  0.4957 -0.1118
  164SOPE   C2118383   4.417   6.350  10.300 -0.1521 -0.3282  0.8088
  164SOPE   O2218384   4.518   6.370  10.234  0.2533  0.2478 -0.0433
  164SOPE   C2218385   4.299   6.446  10.312  0.0947 -0.0524  0.1377
  164SOPE   H2R18386   4.318   6.519  10.393  0.6093  0.2918 -0.2898
  164SOPE   H2S18387   4.216   6.386  10.356  0.5993  0.6825  2.2036
  164SOPE    C318388   4.410   6.028  10.271 -0.3829 -0.0903 -0.2078
  164SOPE    HX18389   4.303   6.015  10.297  0.1140 -2.2301  0.9745
  164SOPE    HY18390   4.449   5.926  10.292  0.3908  0.4324  0.9781
  164SOPE   O3118391   4.419   6.070  10.129 -0.0658  0.8223 -0.4756
  164SOPE   C3118392   4.547   6.054  10.079 -0.3731  0.4587  0.0549
  164SOPE   O3218393   4.647   6.007  10.132 -0.4446  0.1023  0.3631
  164SOPE   C3218394   4.545   6.100   9.933 -0.4545  0.1332 -1.1048
  164SOPE   H2X18395   4.509   6.205   9.942  1.1466  0.5953  0.6944
  164SOPE   H2Y18396   4.477   6.039   9.870 -1.2478  2.0384 -2.1845
  164SOPE   C2318397   4.256   6.525  10.186 -0.1380  0.2381  0.3278
  164SOPE   H3R18398   4.341   6.589  10.155 -1.0313  0.4762 -1.8023
  164SOPE   H3S18399   4.170   6.592  10.207  0.6691  0.7753  2.1752
  164SOPE   C2418400   4.222   6.434  10.064  0.0772  0.4813  0.2861
  164SOPE   H4R18401   4.309   6.367  10.045 -0.7601  0.1940 -3.1477
  164SOPE   H4S18402   4.133   6.373  10.091 -0.7552  0.8087 -1.5694
  164SOPE   C2518403   4.217   6.517   9.938  0.3241 -0.7488  0.0712
  164SOPE   H5R18404   4.114   6.558   9.934  0.6526  0.1313  0.3590
  164SOPE   H5S18405   4.288   6.600   9.959 -2.5415  1.6007  1.3018
  164SOPE   C2618406   4.243   6.431   9.818 -0.2547  0.3702 -0.1298
  164SOPE   H6R18407   4.345   6.388   9.828  0.3105  1.8343  0.7467
  164SOPE   H6S18408   4.163   6.354   9.826 -1.0660  0.9790 -1.9018
  164SOPE   C2718409   4.220   6.497   9.682  0.0347 -0.4934 -0.3305
  164SOPE   H7R18410   4.222   6.419   9.603  1.9866  1.0412 -1.8928
  164SOPE   H7S18411   4.115   6.534   9.678  0.2590  0.4720  1.5605
  164SOPE   C2818412   4.310   6.621   9.651 -0.0751  0.4433 -0.2459
  164SOPE   H8R18413   4.248   6.667   9.572 -2.3666  2.6214  2.5909
  164SOPE   H8S18414   4.298   6.687   9.740 -0.5879  0.6099 -0.4374
  164SOPE   C2918415   4.457   6.596   9.618  0.1735  0.2906  0.1659
  164SOPE   H9118416   4.500   6.519   9.683  0.3698  0.3034  0.0512
  164SOPE  C21018417   4.534   6.661   9.531 -0.5276 -0.3296 -0.6197
  164SOPE  H10118418   4.642   6.640   9.526 -0.6390 -0.6218 -2.2398
  164SOPE  C21118419   4.495   6.779   9.441  1.2668  0.3763 -0.8200
  164SOPE  H11R18420   4.573   6.859   9.439 -0.0025  1.6561 -2.3576
  164SOPE  H11S18421   4.408   6.829   9.487  0.8291 -2.7478  2.0951
  164SOPE  C21218422   4.472   6.742   9.291 -0.0790 -0.2111  0.5433
  164SOPE  H12R18423   4.379   6.682   9.287 -0.7039  0.5314  2.5774
  164SOPE  H12S18424   4.556   6.676   9.258  0.4761  0.9072 -0.3594
  164SOPE  C21318425   4.460   6.871   9.203  0.4908 -0.1741 -0.2548
  164SOPE  H13R18426   4.559   6.920   9.198 -0.0608  0.9987 -0.0374
  164SOPE  H13S18427   4.398   6.943   9.260  0.0008  1.1137 -2.3169
  164SOPE  C21418428   4.398   6.844   9.067  1.0082 -0.8789  0.5546
  164SOPE  H14R18429   4.292   6.811   9.067 -0.0948  2.1635 -1.8892
  164SOPE  H14S18430   4.454   6.759   9.023 -0.1946 -1.6082  0.4156
  164SOPE  C21518431   4.422   6.957   8.966  0.4395 -0.8461 -0.0930
  164SOPE  H15R18432   4.377   7.049   9.011 -1.3264 -0.6316 -2.1344
  164SOPE  H15S18433   4.366   6.943   8.871 -3.4211  0.6607  1.7406
  164SOPE  C21618434   4.569   6.985   8.940  0.3490 -0.0780  0.3185
  164SOPE  H16R18435   4.621   6.899   8.893  1.0942  0.6095 -0.1364
  164SOPE  H16S18436   4.620   7.012   9.035 -1.4793 -1.6177  1.8098
  164SOPE  C21718437   4.591   7.105   8.843  0.2456  0.0118  0.3917
  164SOPE  H17R18438   4.544   7.190   8.896  0.9129 -0.6357  2.0594
  164SOPE  H17S18439   4.530   7.091   8.750  0.0281 -1.2793  0.7087
  164SOPE  C21818440   4.732   7.132   8.804  0.4643 -0.3280 -0.9899
  164SOPE  H18R18441   4.789   7.176   8.889  3.2935 -0.5544 -2.6589
  164SOPE  H18S18442   4.738   7.209   8.724  1.5620 -1.3757 -1.9442
  164SOPE  H18T18443   4.792   7.042   8.778  1.4533 -1.2845  3.5678
  164SOPE   C3318444   4.677   6.103   9.858 -1.1228  0.0992 -0.1136
  164SOPE   H3X18445   4.711   5.997   9.853  0.8780  0.6384  0.8236
  164SOPE   H3Y18446   4.735   6.163   9.931 -0.0163 -0.4155 -0.5434
  164SOPE   C3418447   4.667   6.173   9.721 -0.2290 -0.0464 -0.3782
  164SOPE   H4X18448   4.629   6.275   9.745  0.9503  0.4828 -0.7074
  164SOPE   H4Y18449   4.576   6.125   9.679 -0.0935  0.2249 -0.9918
  164SOPE   C3518450   4.786   6.163   9.630 -0.5306  0.0148  0.3499
  164SOPE   H5X18451   4.806   6.054   9.627  1.1853  0.2800  0.9975
  164SOPE   H5Y18452   4.870   6.203   9.691 -0.0321 -0.9295  0.2948
  164SOPE   C3618453   4.772   6.233   9.493 -0.5073 -0.0685 -0.0913
  164SOPE   H6X18454   4.840   6.186   9.418 -0.7163 -0.2852 -0.1480
  164SOPE   H6Y18455   4.808   6.336   9.510 -0.6160  0.1008 -0.8510
  164SOPE   C3718456   4.636   6.223   9.430  0.3172  0.4512 -0.6398
  164SOPE   H7X18457   4.572   6.273   9.506  4.2507  1.3863  2.4256
  164SOPE   H7Y18458   4.595   6.120   9.436  0.9949  0.1888 -0.4107
  164SOPE   C3818459   4.631   6.288   9.294  0.1048  0.2139  0.5091
  164SOPE   H8X18460   4.661   6.217   9.214  0.2315 -1.3860  1.9470
  164SOPE   H8Y18461   4.699   6.375   9.304 -2.5418  2.2281  2.5440
  164SOPE   C3918462   4.494   6.363   9.267 -0.4780  0.7220  0.9801
  164SOPE   H9X18463   4.488   6.438   9.348 -0.2352  0.6599  1.0561
  164SOPE   H9Y18464   4.403   6.303   9.287 -0.6865  0.7900  0.2686
  164SOPE  C31018465   4.479   6.416   9.123 -0.0551  0.4592 -0.4415
  164SOPE  H10X18466   4.566   6.477   9.088 -2.2930  4.3244  0.0836
  164SOPE  H10Y18467   4.390   6.482   9.117 -0.2205  0.4338  1.2865
  164SOPE  C31118468   4.448   6.299   9.030  1.0576 -0.2933  0.2807
  164SOPE  H11X18469   4.366   6.234   9.068  1.6178 -2.3585 -1.7572
  164SOPE  H11Y18470   4.539   6.237   9.015  1.4927  0.7750 -1.7238
  164SOPE  C31218471   4.398   6.348   8.883  0.1188  0.1663  0.2102
  164SOPE  H12X18472   4.446   6.445   8.856 -1.2948  0.6734 -0.5624
  164SOPE  H12Y18473   4.292   6.372   8.907 -0.5937 -0.2918 -2.2722
  164SOPE  C31318474   4.415   6.243   8.776 -0.1511 -0.0764  0.5223
  164SOPE  H13X18475   4.365   6.149   8.807 -1.8986  0.7757  0.4306
  164SOPE  H13Y18476   4.525   6.226   8.777  0.0640  0.4482 -2.7894
  164SOPE  C31418477   4.376   6.283   8.630  0.0140  0.0364 -0.4369
  164SOPE  H14X18478   4.387   6.195   8.563  3.2379 -0.4685  0.5697
  164SOPE  H14Y18479   4.445   6.357   8.582 -0.7821  1.4644  0.5513
  164SOPE  C31518480   4.225   6.320   8.626  0.1732  0.1671  0.0397
  164SOPE  H15X18481   4.207   6.427   8.652 -3.0893 -0.1974 -0.2853
  164SOPE  H15Y18482   4.162   6.264   8.698 -2.7136  1.3624 -1.3985
  164SOPE  C31618483   4.173   6.304   8.482 -0.5505 -0.6203  0.6044
  164SOPE  H16X18484   4.065   6.330   8.481 -0.1736  1.1253  1.2824
  164SOPE  H16Y18485   4.175   6.195   8.460 -0.6147 -0.4455 -0.3219
  164SOPE  C31718486   4.242   6.377   8.363  0.2367  0.0344 -0.1930
  164SOPE  H17X18487   4.184   6.356   8.271  0.0107  3.4615 -0.9998
  164SOPE  H17Y18488   4.349   6.351   8.354  0.1464 -0.8956  1.1620
  164SOPE  C31818489   4.238   6.532   8.387  0.6627  0.9894  0.5281
  164SOPE  H18X18490   4.277   6.562   8.487  1.1760  0.2237  0.5725
  164SOPE  H18Y18491   4.136   6.569   8.364 -0.1501 -0.1524  2.0457
  164SOPE  H18Z18492   4.309   6.575   8.313  1.7750  0.0163  0.9839
  165SOPE     N18493   1.877   6.007  10.999 -0.4602 -0.1103  0.3017
  165SOPE   HN118494   1.829   6.085  11.050  1.1808  0.7501  0.5864
  165SOPE   HN218495   1.881   6.034  10.898  1.0591 -1.2115  0.0435
  165SOPE   HN318496   1.826   5.917  11.008  1.7213 -1.5688 -1.0691
  165SOPE   C1218497   2.021   5.995  11.049 -0.2371 -0.0739  0.1347
  165SOPE  H12A18498   2.009   5.925  11.135 -0.1895  0.8625  0.9197
  165SOPE  H12B18499   2.043   6.100  11.076 -4.2064  0.7952  0.5368
  165SOPE   C1118500   2.119   5.942  10.942 -0.1991 -0.2703 -0.1209
  165SOPE  H11A18501   2.072   5.854  10.893 -2.1575 -0.6294  2.2037
  165SOPE  H11B18502   2.199   5.894  11.002 -1.7391 -3.0488 -0.1123
  165SOPE     P18503   2.102   6.068  10.717  0.3377 -0.1113 -0.3071
  165SOPE   O1318504   1.957   6.088  10.748  0.3254  0.0437 -0.3666
  165SOPE   O1418505   2.139   5.971  10.613 -0.0455 -0.5302  0.0386
  165SOPE   O1218506   2.175   6.037  10.855  0.3845  0.0219  0.9835
  165SOPE   O1118507   2.166   6.208  10.691 -0.1699  0.4269 -0.0579
  165SOPE    C118508   2.100   6.323  10.640  0.6819  0.3793 -0.3130
  165SOPE    HA18509   2.161   6.406  10.680  1.4773 -1.4614  2.5704
  165SOPE    HB18510   1.999   6.343  10.682  0.5521  1.8601 -1.2588
  165SOPE    C218511   2.091   6.331  10.492  0.2561 -0.9886 -0.0930
  165SOPE    HS18512   2.024   6.252  10.451  0.3463 -0.6682 -0.8767
  165SOPE   O2118513   2.226   6.324  10.442 -0.1533  0.0424 -0.2358
  165SOPE   C2118514   2.236   6.240  10.346 -1.0239  0.5658  0.5910
  165SOPE   O2218515   2.141   6.186  10.287  0.1097  0.3207 -0.3042
  165SOPE   C2218516   2.389   6.197  10.314 -0.0364  0.2297  0.2340
  165SOPE   H2R18517   2.428   6.160  10.412 -0.7995  0.7779  0.7562
  165SOPE   H2S18518   2.438   6.294  10.294  0.9169 -0.3916 -0.5549
  165SOPE    C318519   2.034   6.475  10.461 -0.2410  0.2068 -0.2801
  165SOPE    HX18520   2.113   6.540  10.506 -0.2476  1.5585 -2.1397
  165SOPE    HY18521   1.941   6.478  10.522  0.0349 -1.2252  0.2545
  165SOPE   O3118522   1.998   6.501  10.331  0.3234  0.1694 -0.3732
  165SOPE   C3118523   2.067   6.585  10.264 -0.7161 -0.2193 -0.3872
  165SOPE   O3218524   2.176   6.628  10.309  0.0650  0.4421 -0.7017
  165SOPE   C3218525   2.013   6.610  10.124  0.8937  0.1854  0.3143
  165SOPE   H2X18526   1.940   6.693  10.132  2.6208  1.8409 -0.2332
  165SOPE   H2Y18527   1.963   6.518  10.089  1.5652  0.7101 -2.1817
  165SOPE   C2318528   2.409   6.098  10.200  0.3993 -0.3112  0.0283
  165SOPE   H3R18529   2.338   6.013  10.200 -0.8107  0.6449 -0.9269
  165SOPE   H3S18530   2.516   6.070  10.196  0.3068 -1.2342  2.5619
  165SOPE   C2418531   2.372   6.146  10.059 -0.5018 -0.3636 -0.6073
  165SOPE   H4R18532   2.373   6.061   9.988 -1.8156 -0.8954 -0.0261
  165SOPE   H4S18533   2.266   6.180  10.057 -0.9971 -1.8478 -0.8286
  165SOPE   C2518534   2.461   6.261  10.015 -0.8238  0.1542  0.0485
  165SOPE   H5R18535   2.473   6.337  10.096 -1.7886  2.0170 -1.4835
  165SOPE   H5S18536   2.560   6.216   9.992 -0.1479  1.1571  0.9205
  165SOPE   C2618537   2.413   6.337   9.894 -0.3917  0.4328 -0.1117
  165SOPE   H6R18538   2.319   6.392   9.915 -0.0834  0.5343  1.0828
  165SOPE   H6S18539   2.480   6.422   9.869  0.4288  0.3168  1.5348
  165SOPE   C2718540   2.378   6.252   9.776 -0.3929 -0.1774 -0.6263
  165SOPE   H7R18541   2.457   6.174   9.771 -1.5909 -1.3786 -2.5185
  165SOPE   H7S18542   2.281   6.201   9.797 -0.3607 -0.0979 -0.2893
  165SOPE   C2818543   2.384   6.328   9.641  0.6556  0.7610  0.1954
  165SOPE   H8R18544   2.471   6.397   9.645  1.1515  0.1127  0.5531
  165SOPE   H8S18545   2.396   6.252   9.562 -3.0982  0.5918 -0.4130
  165SOPE   C2918546   2.264   6.416   9.624  0.3321  0.3612 -0.2607
  165SOPE   H9118547   2.236   6.476   9.713  1.0544  1.0144 -0.4669
  165SOPE  C21018548   2.179   6.404   9.520  0.3629  0.2507  0.0574
  165SOPE  H10118549   2.092   6.471   9.519  0.0186 -0.1125 -2.5161
  165SOPE  C21118550   2.198   6.321   9.396 -0.1378  0.3038  0.1299
  165SOPE  H11R18551   2.183   6.214   9.422 -0.7864  0.6559  1.2866
  165SOPE  H11S18552   2.303   6.335   9.361  0.5549  0.8440  2.2599
  165SOPE  C21218553   2.099   6.363   9.278 -0.2860  0.1590 -0.3469
  165SOPE  H12R18554   1.999   6.329   9.310 -0.4632 -0.4849 -1.5175
  165SOPE  H12S18555   2.128   6.309   9.185  0.4630  1.8369 -1.1350
  165SOPE  C21318556   2.093   6.510   9.238  0.2792 -0.4713  0.4218
  165SOPE  H13R18557   2.196   6.544   9.216  0.3638 -0.4450  0.8502
  165SOPE  H13S18558   2.033   6.565   9.314 -0.4846 -0.1115 -0.4165
  165SOPE  C21418559   2.026   6.533   9.101  0.3235 -1.0715 -0.1855
  165SOPE  H14R18560   1.920   6.501   9.102  0.2147 -0.7587 -0.9006
  165SOPE  H14S18561   2.081   6.468   9.028  2.0274  0.2039 -0.0991
  165SOPE  C21518562   2.009   6.683   9.055  0.3720  0.3030 -0.7312
  165SOPE  H15R18563   2.112   6.721   9.036  1.2932 -1.8529 -0.4461
  165SOPE  H15S18564   1.961   6.740   9.137  1.0804  0.4197 -0.3933
  165SOPE  C21618565   1.920   6.691   8.923  0.1070 -0.1396 -0.7928
  165SOPE  H16R18566   1.819   6.657   8.954  0.2894 -1.0131 -1.1037
  165SOPE  H16S18567   1.964   6.610   8.861  0.0090 -0.5366 -0.3527
  165SOPE  C21718568   1.923   6.820   8.843  0.1860  0.3500 -0.3022
  165SOPE  H17R18569   1.908   6.906   8.911  0.6225  0.7067 -0.6511
  165SOPE  H17S18570   1.848   6.834   8.763 -0.2569  1.7093  0.3271
  165SOPE  C21818571   2.062   6.831   8.774  0.3723 -0.0816 -0.4940
  165SOPE  H18R18572   2.095   6.732   8.737  0.4684 -0.2561  0.0423
  165SOPE  H18S18573   2.131   6.879   8.847  1.3198  0.8852 -1.9706
  165SOPE  H18T18574   2.055   6.900   8.687  0.4902  1.1866  0.4745
  165SOPE   C3318575   2.120   6.646  10.015  0.0542 -0.1082 -0.0834
  165SOPE   H3X18576   2.213   6.588  10.034  1.2611  1.5312 -0.6854
  165SOPE   H3Y18577   2.133   6.757  10.019 -0.5513  0.1065 -2.4887
  165SOPE   C3418578   2.082   6.625   9.872  0.0584 -0.3456 -0.1892
  165SOPE   H4X18579   2.064   6.516   9.861 -2.9426  0.0801 -0.2959
  165SOPE   H4Y18580   2.168   6.650   9.807 -0.8580  1.0208 -0.9337
  165SOPE   C3518581   1.959   6.704   9.820 -0.1134  0.0633 -1.3760
  165SOPE   H5X18582   1.967   6.814   9.834  3.6743 -0.3233  0.9383
  165SOPE   H5Y18583   1.862   6.669   9.860  1.1236 -1.9516  0.0335
  165SOPE   C3618584   1.936   6.668   9.669 -0.3348 -0.1725  0.2310
  165SOPE   H6X18585   1.941   6.557   9.680 -3.3339 -0.3468  0.6225
  165SOPE   H6Y18586   2.026   6.705   9.616 -0.0856 -0.7438  0.2418
  165SOPE   C3718587   1.801   6.709   9.613  0.1859 -0.3255  0.8692
  165SOPE   H7X18588   1.780   6.817   9.626 -0.1607 -0.2949  0.0945
  165SOPE   H7Y18589   1.724   6.670   9.683 -0.4780 -0.3669  0.1249
  165SOPE   C3818590   1.764   6.671   9.475  0.3036 -0.4366  0.5744
  165SOPE   H8X18591   1.734   6.564   9.484  1.9341 -0.8778  0.9693
  165SOPE   H8Y18592   1.852   6.681   9.408  0.2897 -1.8086  0.3148
  165SOPE   C3918593   1.640   6.742   9.418 -0.0617  0.2006  0.0762
  165SOPE   H9X18594   1.662   6.847   9.388  1.2755 -0.5727 -1.8294
  165SOPE   H9Y18595   1.553   6.760   9.484  1.1255  1.9221  1.2467
  165SOPE  C31018596   1.584   6.651   9.308 -0.3133  0.7197 -0.2811
  165SOPE  H10X18597   1.569   6.550   9.351 -0.8482  0.2184 -1.6005
  165SOPE  H10Y18598   1.667   6.652   9.234  0.1312 -0.1513  0.1944
  165SOPE  C31118599   1.447   6.701   9.253  0.5287 -0.1064 -0.1707
  165SOPE  H11X18600   1.425   6.807   9.281  1.4821  0.8039 -2.6252
  165SOPE  H11Y18601   1.360   6.637   9.279  0.0731  0.1260 -1.0788
  165SOPE  C31218602   1.447   6.733   9.104  0.1924 -0.5189  1.0116
  165SOPE  H12X18603   1.342   6.749   9.070 -0.1281 -2.7627  0.8333
  165SOPE  H12Y18604   1.488   6.647   9.048 -2.4466  0.0294 -2.0478
  165SOPE  C31318605   1.523   6.863   9.069  0.0376 -0.4969 -0.5732
  165SOPE  H13X18606   1.615   6.864   9.132  1.6040  2.0570 -2.6678
  165SOPE  H13Y18607   1.467   6.951   9.105 -1.1577 -1.5982  0.3532
  165SOPE  C31418608   1.561   6.878   8.920  0.6776  0.0399  0.1606
  165SOPE  H14X18609   1.618   6.791   8.881 -0.1814  0.1074 -1.3325
  165SOPE  H14Y18610   1.641   6.955   8.920  0.5993  0.1290  0.9882
  165SOPE  C31518611   1.446   6.904   8.820 -0.3814 -0.0665  0.8274
  165SOPE  H15X18612   1.402   6.998   8.863  1.6876  0.7674  1.2275
  165SOPE  H15Y18613   1.374   6.820   8.819  0.8250 -1.1144  0.6767
  165SOPE  C31618614   1.496   6.939   8.680 -0.3166 -0.4188 -0.0560
  165SOPE  H16X18615   1.542   6.843   8.645 -0.6503 -1.0214  1.1091
  165SOPE  H16Y18616   1.574   7.018   8.675 -1.7662  1.0800  0.0845
  165SOPE  C31718617   1.375   6.981   8.586 -0.2353 -0.5352  0.2243
  165SOPE  H17X18618   1.291   6.908   8.585 -0.3145 -0.4460 -0.7917
  165SOPE  H17Y18619   1.412   6.977   8.481 -0.7124  1.8667 -0.0738
  165SOPE  C31818620   1.312   7.118   8.625 -0.6231  0.8659 -0.1218
  165SOPE  H18X18621   1.251   7.114   8.717 -0.0845 -1.1541  0.1960
  165SOPE  H18Y18622   1.240   7.154   8.548 -1.0935  0.7122  0.2407
  165SOPE  H18Z18623   1.395   7.192   8.629 -1.0358  1.2983  0.4042
  166SOPE     N18624   6.311   0.249  10.642  1.0273 -0.2539 -0.3678
  166SOPE   HN118625   6.284   0.217  10.547  0.6811 -0.1332 -0.3113
  166SOPE   HN218626   6.369   0.172  10.681  1.2212 -0.6235 -1.3456
  166SOPE   HN318627   6.230   0.244  10.707  2.3705  2.3503  1.7321
  166SOPE   C1218628   6.373   0.382  10.657  0.4783 -0.0194 -0.6421
  166SOPE  H12A18629   6.372   0.406  10.765 -0.9060  1.7443 -1.0018
  166SOPE  H12B18630   6.310   0.454  10.601  1.1314  0.7420 -0.4154
  166SOPE   C1118631   6.515   0.399  10.599  0.3932 -0.0810 -1.0562
  166SOPE  H11A18632   6.554   0.501  10.618 -0.2528 -0.2012  1.1936
  166SOPE  H11B18633   6.512   0.373  10.491  1.0344  2.3242 -1.7022
  166SOPE     P18634   6.656   0.177  10.623  0.2420 -0.0364  0.1730
  166SOPE   O1318635   6.557   0.074  10.657  0.0985 -0.0627 -0.3623
  166SOPE   O1418636   6.794   0.170  10.667  0.1697  0.4871  0.5092
  166SOPE   O1218637   6.605   0.311  10.676 -0.1798  0.0114  0.6783
  166SOPE   O1118638   6.655   0.185  10.464  0.2422 -0.0123  0.1637
  166SOPE    C118639   6.771   0.236  10.398  0.3460  0.6755 -0.3749
  166SOPE    HA18640   6.845   0.153  10.402  0.1692  0.4883 -0.8977
  166SOPE    HB18641   6.813   0.324  10.451 -0.6195  2.1635 -2.0089
  166SOPE    C218642   6.748   0.276  10.258  0.5489 -0.4205 -0.2076
  166SOPE    HS18643   6.678   0.362  10.251  3.7511  2.3977 -0.0075
  166SOPE   O2118644   6.699   0.157  10.190 -0.0966 -0.2407  0.2004
  166SOPE   C2118645   6.575   0.149  10.170 -0.3656 -0.5316 -0.3794
  166SOPE   O2218646   6.492   0.240  10.193  0.1616 -0.0918  0.3512
  166SOPE   C2218647   6.541   0.019  10.100  0.5391 -0.5335 -0.1865
  166SOPE   H2R18648   6.435  -0.006  10.124  1.1176 -1.2838  1.8472
  166SOPE   H2S18649   6.602  -0.063  10.145 -0.1519  1.1154  4.3414
  166SOPE    C318650   6.866   0.323  10.177  0.3503  0.6348 -0.7430
  166SOPE    HX18651   6.954   0.256  10.186 -0.1251 -0.2605 -2.2733
  166SOPE    HY18652   6.895   0.427  10.206 -0.4704 -0.1179  3.2650
  166SOPE   O3118653   6.824   0.342  10.037 -0.3304  0.4047 -0.1579
  166SOPE   C3118654   6.873   0.248   9.959 -0.0111  0.2984 -0.5501
  166SOPE   O3218655   6.938   0.149   9.992  0.0745 -0.3883  0.4636
  166SOPE   C3218656   6.838   0.303   9.817  0.3514  0.3229  0.0601
  166SOPE   H2X18657   6.906   0.385   9.785  0.6978 -0.2438 -0.7036
  166SOPE   H2Y18658   6.733   0.339   9.825  0.7165  1.1435  1.5851
  166SOPE   C2318659   6.564   0.029   9.947  0.0021 -0.6360  0.3257
  166SOPE   H3R18660   6.673   0.007   9.950 -0.7811 -5.5587  1.0807
  166SOPE   H3S18661   6.540   0.122   9.891  3.2311 -0.4139 -0.9479
  166SOPE   C2418662   6.501  -0.081   9.870  0.2233 -0.0025  0.6760
  166SOPE   H4R18663   6.534  -0.176   9.918 -1.9271 -0.1622  1.9612
  166SOPE   H4S18664   6.391  -0.085   9.881  0.2072  0.0275  0.5325
  166SOPE   C2518665   6.537  -0.104   9.714  0.9171  0.4178 -0.2314
  166SOPE   H5R18666   6.641  -0.137   9.694  0.6794 -0.3778 -0.1804
  166SOPE   H5S18667   6.465  -0.182   9.684 -2.7104  4.0132 -1.8963
  166SOPE   C2618668   6.507   0.016   9.625 -0.4395  0.0155  0.1968
  166SOPE   H6R18669   6.404   0.054   9.644  0.7655  1.8995  4.2261
  166SOPE   H6S18670   6.578   0.099   9.646 -0.1066  0.2552 -1.7277
  166SOPE   C2718671   6.521  -0.018   9.471 -0.0060  0.6830 -0.8394
  166SOPE   H7R18672   6.622  -0.063   9.459  0.5404  1.5505  0.2629
  166SOPE   H7S18673   6.447  -0.097   9.445 -1.9161  2.0553  0.1541
  166SOPE   C2818674   6.519   0.100   9.378 -0.3859  0.1615  0.7931
  166SOPE   H8R18675   6.423   0.157   9.377 -0.9147 -0.4678 -3.6274
  166SOPE   H8S18676   6.587   0.174   9.426 -2.7926  3.4751 -0.5239
  166SOPE   C2918677   6.570   0.069   9.237  0.2275 -0.4824  0.2485
  166SOPE   H9118678   6.662   0.008   9.239 -0.5829 -1.7519  0.3016
  166SOPE  C21018679   6.512   0.090   9.115 -0.1887  0.2093  0.3081
  166SOPE  H10118680   6.560   0.066   9.019  0.3243 -0.4987  0.7360
  166SOPE  C21118681   6.376   0.160   9.100 -0.1507  0.5952  0.0394
  166SOPE  H11R18682   6.342   0.217   9.189 -1.7436 -0.8689  0.4237
  166SOPE  H11S18683   6.306   0.077   9.078  0.8706 -0.9133  2.2051
  166SOPE  C21218684   6.368   0.238   8.970 -0.4616 -0.5700 -0.4697
  166SOPE  H12R18685   6.428   0.189   8.890  0.5393 -1.0046  0.5136
  166SOPE  H12S18686   6.431   0.328   8.992  0.9639 -2.1365  2.4117
  166SOPE  C21318687   6.228   0.284   8.920  0.4000  0.6755 -0.4877
  166SOPE  H13R18688   6.180   0.339   9.004  2.0329 -0.4065  1.2313
  166SOPE  H13S18689   6.170   0.191   8.905 -1.3818  1.3439  1.6754
  166SOPE  C21418690   6.246   0.381   8.807  0.4405  0.1537 -0.1751
  166SOPE  H14R18691   6.257   0.321   8.714  0.9690  2.0593 -1.3964
  166SOPE  H14S18692   6.329   0.455   8.819  2.1323 -1.4521 -1.3254
  166SOPE  C21518693   6.130   0.471   8.775 -0.6795  0.2417 -0.0282
  166SOPE  H15R18694   6.128   0.561   8.840 -0.0128 -1.9007  3.2048
  166SOPE  H15S18695   6.038   0.413   8.794  1.6739 -2.8677  3.1342
  166SOPE  C21618696   6.128   0.528   8.624  0.0069 -0.2300 -0.3601
  166SOPE  H16R18697   6.225   0.574   8.596  1.2057 -0.1122  3.4487
  166SOPE  H16S18698   6.054   0.611   8.622 -0.1000 -0.2510  1.2406
  166SOPE  C21718699   6.089   0.422   8.520  0.7893  1.2024 -0.1430
  166SOPE  H17R18700   5.996   0.372   8.553  0.9485  1.2150  0.3268
  166SOPE  H17S18701   6.169   0.345   8.511  0.6081  0.8251  1.2563
  166SOPE  C21818702   6.061   0.481   8.384 -0.6253  0.2453  0.5291
  166SOPE  H18R18703   5.986   0.422   8.328 -0.1383  1.0058 -0.9687
  166SOPE  H18S18704   6.152   0.483   8.322 -0.8865  0.8393  0.1479
  166SOPE  H18T18705   6.028   0.587   8.382  0.2530  0.5198 -0.1870
  166SOPE   C3318706   6.852   0.202   9.694  0.5918 -0.0889  0.1432
  166SOPE   H3X18707   6.777   0.223   9.615  0.8069 -1.5607 -0.4900
  166SOPE   H3Y18708   6.831   0.098   9.726  0.3421 -0.6874 -1.7991
  166SOPE   C3418709   6.991   0.193   9.634 -0.8332  0.7482  0.3676
  166SOPE   H4X18710   7.068   0.153   9.704 -1.4878 -1.6816 -0.1928
  166SOPE   H4Y18711   7.015   0.293   9.594  2.5647  0.3880  1.1784
  166SOPE   C3518712   7.010   0.114   9.499 -0.9434  0.0267 -0.2291
  166SOPE   H5X18713   7.118   0.096   9.480 -0.9546 -0.6014  0.2705
  166SOPE   H5Y18714   6.973   0.169   9.410  0.2944 -0.0205 -0.8070
  166SOPE   C3618715   6.944  -0.026   9.502  0.4405 -0.7851 -0.0064
  166SOPE   H6X18716   6.833  -0.023   9.491  0.3653  1.1946  0.8608
  166SOPE   H6Y18717   6.955  -0.084   9.596 -2.9189  0.7950  1.5560
  166SOPE   C3718718   6.999  -0.105   9.383  0.5419  0.3806  1.1480
  166SOPE   H7X18719   6.956  -0.207   9.372  0.6051  0.2702  1.8923
  166SOPE   H7Y18720   7.110  -0.107   9.390  0.6278 -1.5865 -0.0607
  166SOPE   C3818721   6.961  -0.029   9.249 -0.9041 -0.1631 -0.0676
  166SOPE   H8X18722   7.024   0.061   9.233 -3.0359  1.6301  1.0923
  166SOPE   H8Y18723   6.857   0.011   9.251 -0.9344 -0.2103 -0.4902
  166SOPE   C3918724   6.970  -0.120   9.122 -0.4372 -0.2136 -0.0802
  166SOPE   H9X18725   6.895  -0.201   9.126 -1.2810  0.5461 -0.1835
  166SOPE   H9Y18726   7.066  -0.176   9.126 -1.5442 -2.2016 -0.3231
  166SOPE  C31018727   6.951  -0.038   8.991 -0.3642 -0.1309 -0.3054
  166SOPE  H10X18728   7.031   0.040   8.992  0.4018 -0.8700 -1.4527
  166SOPE  H10Y18729   6.851   0.007   9.008 -0.0609  0.2840  0.4764
  166SOPE  C31118730   6.969  -0.110   8.862  0.0815 -0.1400 -0.0292
  166SOPE  H11X18731   6.955  -0.041   8.776 -0.0129 -0.1383 -0.0124
  166SOPE  H11Y18732   6.896  -0.195   8.862  1.3773 -1.2974  1.1942
  166SOPE  C31218733   7.108  -0.165   8.845 -0.4342 -0.2328  0.0808
  166SOPE  H12X18734   7.122  -0.253   8.912 -0.0205 -2.2616 -2.5049
  166SOPE  H12Y18735   7.186  -0.094   8.879 -0.1009 -1.3617  1.7740
  166SOPE  C31318736   7.150  -0.200   8.699 -0.4690 -0.0114  0.1798
  166SOPE  H13X18737   7.068  -0.241   8.636 -0.0350 -2.6845  1.2367
  166SOPE  H13Y18738   7.224  -0.282   8.706  0.4474  0.9299  2.3010
  166SOPE  C31418739   7.216  -0.078   8.624 -0.3373 -0.2538 -0.5513
  166SOPE  H14X18740   7.296  -0.048   8.695  1.7416 -2.8626 -1.6409
  166SOPE  H14Y18741   7.131  -0.006   8.616 -0.9588 -0.7856  0.9322
  166SOPE  C31518742   7.276  -0.115   8.488 -0.5034 -0.1922  0.0580
  166SOPE  H15X18743   7.325  -0.022   8.452 -1.6768  0.0067 -1.1200
  166SOPE  H15Y18744   7.188  -0.131   8.421  0.4466  0.3807 -1.3649
  166SOPE  C31618745   7.381  -0.224   8.496  0.0637 -0.1491 -0.3011
  166SOPE  H16X18746   7.331  -0.312   8.542 -0.3349  0.1472 -0.1604
  166SOPE  H16Y18747   7.462  -0.196   8.567 -0.2755 -1.2909  0.5716
  166SOPE  C31718748   7.441  -0.262   8.362  0.2736 -0.0682  0.1033
  166SOPE  H17X18749   7.515  -0.187   8.326  1.9028 -1.3533  0.6324
  166SOPE  H17Y18750   7.357  -0.285   8.293 -1.1684  0.0755  1.7516
  166SOPE  C31818751   7.523  -0.389   8.382 -0.1701  0.1542 -0.2271
  166SOPE  H18X18752   7.611  -0.376   8.449  1.7280 -1.4864 -2.2575
  166SOPE  H18Y18753   7.555  -0.427   8.283 -0.3278  2.2842 -1.1537
  166SOPE  H18Z18754   7.462  -0.468   8.430  0.5516  0.7411  1.7538
  167SOPE     N18755   0.930   4.502   5.988  0.1806 -0.2518 -0.4550
  167SOPE   HN118756   0.984   4.496   6.076 -0.7199  1.8157  0.3004
  167SOPE   HN218757   0.992   4.492   5.905 -0.2352  2.8151 -1.2670
  167SOPE   HN318758   0.888   4.597   5.986 -0.6153 -0.5648  0.5460
  167SOPE   C1218759   0.812   4.409   5.990 -0.5348 -0.3036 -0.0077
  167SOPE  H12A18760   0.850   4.331   6.059  0.3662  0.9469  0.9637
  167SOPE  H12B18761   0.790   4.363   5.891 -0.8288  1.7549 -0.9712
  167SOPE   C1118762   0.687   4.472   6.067 -0.4254  0.3280  0.2553
  167SOPE  H11A18763   0.609   4.393   6.063  1.0172 -1.1244 -0.6595
  167SOPE  H11B18764   0.646   4.560   6.014  0.1398  0.4002 -0.0720
  167SOPE     P18765   0.665   4.577   6.305 -0.2175 -0.1141  0.1538
  167SOPE   O1318766   0.525   4.539   6.298 -0.0089 -0.2860 -0.6588
  167SOPE   O1418767   0.705   4.718   6.294 -0.0815  0.3121 -0.7288
  167SOPE   O1218768   0.744   4.507   6.190  0.5371 -0.2247  0.2484
  167SOPE   O1118769   0.738   4.522   6.438  0.7464  0.5867 -0.0423
  167SOPE    C118770   0.783   4.383   6.449  0.1792  0.1141 -0.6017
  167SOPE    HA18771   0.864   4.378   6.525 -0.9964 -0.5451  0.6367
  167SOPE    HB18772   0.830   4.341   6.357  2.4793  0.1158  0.4936
  167SOPE    C218773   0.665   4.300   6.503  0.0738 -0.5411 -0.0247
  167SOPE    HS18774   0.580   4.318   6.434  0.1828 -1.7948 -0.5253
  167SOPE   O2118775   0.633   4.342   6.636  0.0800  0.3870  0.2827
  167SOPE   C2118776   0.508   4.302   6.676 -0.6165  0.0695  0.0280
  167SOPE   O2218777   0.417   4.256   6.608  0.4881 -0.1042 -0.1392
  167SOPE   C2218778   0.500   4.310   6.823 -0.8046  0.0855 -0.2226
  167SOPE   H2R18779   0.506   4.417   6.853  0.5248 -0.2337  0.7237
  167SOPE   H2S18780   0.585   4.261   6.874  0.4896  1.1467 -1.2804
  167SOPE    C318781   0.678   4.138   6.488 -0.5541 -0.3328 -0.0076
  167SOPE    HX18782   0.708   4.122   6.382  0.0195 -0.2341  0.1366
  167SOPE    HY18783   0.578   4.096   6.509 -1.1376  0.2006 -1.5922
  167SOPE   O3118784   0.788   4.097   6.570 -0.5814 -0.1935 -0.9728
  167SOPE   C3118785   0.765   4.055   6.691 -0.0850 -0.1033 -0.9019
  167SOPE   O3218786   0.651   4.036   6.738 -0.5122  0.5008 -0.1329
  167SOPE   C3218787   0.897   4.008   6.760 -0.0446  0.2840  0.0186
  167SOPE   H2X18788   0.946   4.107   6.775 -0.7797  1.1295 -2.6575
  167SOPE   H2Y18789   0.948   3.958   6.676 -3.3081 -1.5293 -1.0648
  167SOPE   C2318790   0.371   4.257   6.888  0.2403 -0.2866  0.1725
  167SOPE   H3R18791   0.327   4.176   6.826 -0.7377  0.6858 -0.4289
  167SOPE   H3S18792   0.292   4.334   6.877 -1.9197 -2.3330  0.6174
  167SOPE   C2418793   0.397   4.220   7.036  0.0295  0.0662  0.0980
  167SOPE   H4R18794   0.308   4.180   7.091  0.5860 -1.4502 -0.0774
  167SOPE   H4S18795   0.472   4.139   7.036  0.0141  0.0485  0.4413
  167SOPE   C2518796   0.442   4.342   7.126  0.3535  1.0795 -0.1361
  167SOPE   H5R18797   0.543   4.380   7.100  1.1787 -1.4547 -0.9657
  167SOPE   H5S18798   0.369   4.426   7.123  0.6555  1.3182 -0.8310
  167SOPE   C2618799   0.452   4.302   7.275  0.4495  0.4293  0.0710
  167SOPE   H6R18800   0.358   4.267   7.324  0.4555  0.9372  0.4577
  167SOPE   H6S18801   0.527   4.221   7.263  1.0507  0.6566  1.9904
  167SOPE   C2718802   0.509   4.412   7.358 -0.3901  0.4873 -0.2305
  167SOPE   H7R18803   0.584   4.463   7.294  1.8729 -0.5808  1.4409
  167SOPE   H7S18804   0.427   4.486   7.373 -1.7832 -0.8000 -1.1727
  167SOPE   C2818805   0.592   4.370   7.484 -0.2224  0.3522 -0.5579
  167SOPE   H8R18806   0.667   4.296   7.451 -2.1014 -3.1234  2.1849
  167SOPE   H8S18807   0.652   4.457   7.519 -1.5639  0.4593  1.7350
  167SOPE   C2918808   0.518   4.292   7.590 -0.2151  0.3648 -0.0032
  167SOPE   H9118809   0.507   4.185   7.569  2.6152  0.2095 -1.1578
  167SOPE  C21018810   0.482   4.341   7.711 -0.1905  0.1707 -0.5438
  167SOPE  H10118811   0.430   4.288   7.792  0.1385  0.8068  0.0981
  167SOPE  C21118812   0.512   4.489   7.757 -0.6426 -0.2978  0.0844
  167SOPE  H11R18813   0.442   4.512   7.841  0.5987 -0.7348  1.2860
  167SOPE  H11S18814   0.492   4.558   7.673  0.0765 -0.7528 -0.4698
  167SOPE  C21218815   0.665   4.499   7.798  0.2409 -0.7330 -0.0590
  167SOPE  H12R18816   0.696   4.603   7.821  2.5736 -1.3513 -0.1543
  167SOPE  H12S18817   0.726   4.462   7.713  0.0044 -0.0476 -0.5243
  167SOPE  C21318818   0.716   4.407   7.911  0.7153  0.4138 -0.3708
  167SOPE  H13R18819   0.826   4.413   7.908  0.8216 -0.5204  1.0430
  167SOPE  H13S18820   0.675   4.304   7.902 -2.0727  1.4421 -0.5411
  167SOPE  C21418821   0.671   4.453   8.051  0.2640 -0.3638  0.2951
  167SOPE  H14R18822   0.664   4.360   8.110 -0.4033  0.0298  0.8524
  167SOPE  H14S18823   0.565   4.487   8.053 -0.3511 -0.6968 -5.9890
  167SOPE  C21518824   0.769   4.542   8.124  0.0171  0.6829 -0.1328
  167SOPE  H15R18825   0.793   4.635   8.069 -0.5382  0.1768 -1.2870
  167SOPE  H15S18826   0.861   4.478   8.124 -0.6854 -0.3727  1.1082
  167SOPE  C21618827   0.722   4.575   8.265 -0.3450  0.0316 -0.0859
  167SOPE  H16R18828   0.612   4.566   8.251 -0.6762 -1.0718  2.5759
  167SOPE  H16S18829   0.737   4.682   8.288  1.1730 -0.5415  1.8574
  167SOPE  C21718830   0.770   4.483   8.370  0.1497 -0.0993 -0.3362
  167SOPE  H17R18831   0.751   4.377   8.344  0.0995 -0.7262  1.9897
  167SOPE  H17S18832   0.710   4.501   8.462 -2.4224  0.5686 -2.0445
  167SOPE  C21818833   0.919   4.501   8.413  0.1729  0.2553  0.5923
  167SOPE  H18R18834   0.956   4.441   8.499  1.3148 -0.6083 -0.4597
  167SOPE  H18S18835   0.927   4.607   8.443 -0.1718  1.0010 -1.7196
  167SOPE  H18T18836   0.987   4.488   8.325 -1.1417  1.2484 -0.6141
  167SOPE   C3318837   0.888   3.931   6.893 -0.4592 -0.3975 -0.8375
  167SOPE   H3X18838   0.982   3.877   6.917  0.1570  0.5444 -1.0665
  167SOPE   H3Y18839   0.822   3.843   6.877 -1.9399  0.4048  0.6509
  167SOPE   C3418840   0.858   4.018   7.022 -0.0589 -0.3398  0.4091
  167SOPE   H4X18841   0.749   4.032   7.037 -0.2973  0.8686 -1.9946
  167SOPE   H4Y18842   0.909   4.114   7.002  0.2416 -0.9370 -2.0532
  167SOPE   C3518843   0.915   3.959   7.148 -0.4434  0.8420  0.2401
  167SOPE   H5X18844   1.023   3.985   7.155 -0.8011  2.6910 -0.7339
  167SOPE   H5Y18845   0.917   3.848   7.144  4.1698  0.5919  2.4143
  167SOPE   C3618846   0.850   4.019   7.266  0.7962 -0.1343  0.4189
  167SOPE   H6X18847   0.744   3.985   7.263 -0.0723  2.4502 -0.4423
  167SOPE   H6Y18848   0.831   4.128   7.263 -3.1632 -0.6435  1.1851
  167SOPE   C3718849   0.915   3.978   7.395 -0.0794 -0.1727  0.2103
  167SOPE   H7X18850   1.016   4.025   7.393  0.4495 -1.1991  1.5240
  167SOPE   H7Y18851   0.934   3.869   7.407  2.1060 -0.0322 -1.4399
  167SOPE   C3818852   0.842   4.023   7.524  0.1466 -0.2192 -0.3773
  167SOPE   H8X18853   0.750   3.964   7.540  0.4563 -0.3418  1.0909
  167SOPE   H8Y18854   0.811   4.130   7.523 -1.0357 -0.5375  0.5967
  167SOPE   C3918855   0.939   3.992   7.644  0.7873 -0.0308  0.2977
  167SOPE   H9X18856   1.023   4.065   7.645  0.7203  0.3453 -3.8723
  167SOPE   H9Y18857   0.974   3.889   7.623  0.4909 -0.0813  0.0435
  167SOPE  C31018858   0.864   4.015   7.780  0.4746  0.5053  0.4393
  167SOPE  H10X18859   0.767   3.961   7.792  0.2857  0.5527 -0.7712
  167SOPE  H10Y18860   0.853   4.125   7.777  1.4765  0.6094  0.4611
  167SOPE  C31118861   0.949   3.986   7.903 -0.8330  0.4235 -0.2444
  167SOPE  H11X18862   1.028   4.064   7.897 -0.4476 -0.0181 -1.0570
  167SOPE  H11Y18863   0.986   3.882   7.898 -3.7400 -0.9572  2.9245
  167SOPE  C31218864   0.870   4.022   8.036  0.2782  0.4564  0.7183
  167SOPE  H12X18865   0.768   3.978   8.033  0.4842 -0.0130  0.3839
  167SOPE  H12Y18866   0.846   4.130   8.028 -1.1379  0.1261  0.3296
  167SOPE  C31318867   0.942   3.993   8.170 -0.5449 -0.0382 -0.2896
  167SOPE  H13X18868   1.041   4.045   8.165 -0.4218 -0.2173  0.1745
  167SOPE  H13Y18869   0.965   3.885   8.181  1.4102  0.4172  0.6405
  167SOPE  C31418870   0.858   4.050   8.284 -0.6230 -0.3026 -0.2403
  167SOPE  H14X18871   0.754   4.047   8.243 -0.9405 -0.5994  0.5669
  167SOPE  H14Y18872   0.879   4.159   8.283 -0.3444 -0.3526 -1.5544
  167SOPE  C31518873   0.872   3.999   8.427 -0.4951 -0.3118 -0.4261
  167SOPE  H15X18874   0.854   3.890   8.437  1.0720 -0.6228 -0.7176
  167SOPE  H15Y18875   0.788   4.050   8.478 -0.1205  0.5193 -0.6175
  167SOPE  C31618876   1.004   4.041   8.485  0.3567  0.1895  0.2938
  167SOPE  H16X18877   1.017   4.149   8.463  1.8330 -0.3257 -1.5870
  167SOPE  H16Y18878   1.081   3.985   8.429 -2.2038 -2.3567 -0.9345
  167SOPE  C31718879   1.030   4.014   8.638  0.3714 -0.4023 -0.8037
  167SOPE  H17X18880   1.041   3.903   8.638  0.1585 -0.4250 -0.9777
  167SOPE  H17Y18881   0.943   4.045   8.700  1.3074  2.0922 -0.6159
  167SOPE  C31818882   1.151   4.090   8.694 -0.2567 -0.2993 -0.3881
  167SOPE  H18X18883   1.249   4.047   8.665 -0.0186  1.0517 -1.7754
  167SOPE  H18Y18884   1.126   4.106   8.801 -1.6622 -1.6584 -0.4858
  167SOPE  H18Z18885   1.151   4.190   8.644  1.0878 -1.2895 -2.5254
  168SOPE     N18886   5.348   3.705   6.606  0.0431  0.1910 -0.3887
  168SOPE   HN118887   5.365   3.674   6.704 -1.6242 -1.3930 -0.5503
  168SOPE   HN218888   5.253   3.744   6.590 -0.1811  0.5631  1.5908
  168SOPE   HN318889   5.373   3.626   6.544  1.4808  0.5626 -0.3136
  168SOPE   C1218890   5.452   3.805   6.579  1.3279  0.3976  0.1097
  168SOPE  H12A18891   5.432   3.888   6.651  1.7445  0.4220  0.2042
  168SOPE  H12B18892   5.433   3.843   6.476  2.5749 -1.8070 -1.0139
  168SOPE   C1118893   5.590   3.745   6.580 -0.3570 -0.4159 -0.6546
  168SOPE  H11A18894   5.618   3.676   6.662 -0.2097 -0.2252 -0.5433
  168SOPE  H11B18895   5.659   3.831   6.594  0.5791 -1.4338  1.3895
  168SOPE     P18896   5.764   3.663   6.392 -0.2398  0.0800  0.0287
  168SOPE   O1318897   5.829   3.792   6.352  0.1477  0.2068  0.0995
  168SOPE   O1418898   5.755   3.566   6.282  0.0725  0.2834 -0.0611
  168SOPE   O1218899   5.617   3.686   6.459  0.7022 -0.0903  0.0198
  168SOPE   O1118900   5.852   3.595   6.503 -0.0873  0.6169 -0.3299
  168SOPE    C118901   5.814   3.474   6.567 -0.5240 -0.9436  0.1835
  168SOPE    HA18902   5.867   3.387   6.524 -2.6683 -1.9133 -0.6713
  168SOPE    HB18903   5.704   3.457   6.557 -0.9881  1.6932  0.0292
  168SOPE    C218904   5.849   3.483   6.719 -0.2863  0.3152  0.3607
  168SOPE    HS18905   5.797   3.578   6.745  4.1602  3.0503  0.2174
  168SOPE   O2118906   5.988   3.481   6.746 -0.1820  0.0453  1.0331
  168SOPE   C2118907   6.020   3.559   6.851  0.5186 -0.3339 -0.1899
  168SOPE   O2218908   5.947   3.628   6.915 -0.0783  0.6422  0.1871
  168SOPE   C2218909   6.169   3.545   6.883 -0.2563 -0.0783  0.7458
  168SOPE   H2R18910   6.217   3.588   6.792 -0.5734 -2.9044 -0.8586
  168SOPE   H2S18911   6.201   3.439   6.886 -2.0382 -0.7014 -0.4698
  168SOPE    C318912   5.792   3.365   6.797  0.3489 -0.2701 -0.8181
  168SOPE    HX18913   5.850   3.278   6.758  0.3940 -1.4585  1.6739
  168SOPE    HY18914   5.686   3.343   6.774 -0.7341  1.9995  1.5840
  168SOPE   O3118915   5.795   3.371   6.943 -0.2741 -0.3283 -0.4092
  168SOPE   C3118916   5.717   3.457   6.993 -0.3744  0.2219  0.3792
  168SOPE   O3218917   5.643   3.524   6.931  0.4632 -0.0371  0.4813
  168SOPE   C3218918   5.728   3.461   7.148  0.1166  0.3491  0.0841
  168SOPE   H2X18919   5.835   3.439   7.173 -0.2042  1.1832  2.4507
  168SOPE   H2Y18920   5.669   3.375   7.186  4.0249 -2.5462  0.2473
  168SOPE   C2318921   6.231   3.619   6.992  0.4911 -0.7439  0.5934
  168SOPE   H3R18922   6.171   3.703   7.033 -1.9409 -2.3233  0.4836
  168SOPE   H3S18923   6.325   3.666   6.958  0.3394  0.2343  1.4610
  168SOPE   C2418924   6.282   3.528   7.104 -0.1844 -0.3637  0.0573
  168SOPE   H4R18925   6.206   3.465   7.154  1.2106 -1.5446  0.7797
  168SOPE   H4S18926   6.360   3.458   7.067  2.4201  1.0920  2.4214
  168SOPE   C2518927   6.356   3.616   7.203 -0.3500 -0.2940  0.2964
  168SOPE   H5R18928   6.435   3.675   7.152 -1.4262 -0.1365 -1.2615
  168SOPE   H5S18929   6.291   3.694   7.249  0.6639  0.8823 -0.1905
  168SOPE   C2618930   6.412   3.539   7.325 -0.1589 -0.4435 -0.0603
  168SOPE   H6R18931   6.339   3.558   7.407 -1.4399 -0.1469 -1.2378
  168SOPE   H6S18932   6.406   3.428   7.317 -1.7239 -0.6472  2.5607
  168SOPE   C2718933   6.544   3.590   7.381  0.7274 -0.4966  0.6342
  168SOPE   H7R18934   6.625   3.553   7.315 -0.7329 -0.4941 -1.2311
  168SOPE   H7S18935   6.556   3.700   7.371  1.6423 -0.7594 -2.2194
  168SOPE   C2818936   6.581   3.551   7.526 -0.3360 -0.3602  0.3916
  168SOPE   H8R18937   6.524   3.618   7.594 -1.6546 -0.0321 -0.9764
  168SOPE   H8S18938   6.543   3.449   7.547 -0.2507  0.0404  2.8416
  168SOPE   C2918939   6.723   3.539   7.566 -0.1694 -0.3042  0.2969
  168SOPE   H9118940   6.770   3.448   7.526  2.0771  0.0063  2.0559
  168SOPE  C21018941   6.808   3.614   7.637 -0.4559  0.6119 -0.3971
  168SOPE  H10118942   6.913   3.582   7.641 -0.8648 -0.6855  0.7579
  168SOPE  C21118943   6.777   3.747   7.710 -0.0354 -0.3655  0.8917
  168SOPE  H11R18944   6.673   3.783   7.692  0.3253 -0.1345 -0.9520
  168SOPE  H11S18945   6.854   3.814   7.666  1.3323 -2.2527  0.3008
  168SOPE  C21218946   6.800   3.742   7.862  0.0255  0.0048 -0.1392
  168SOPE  H12R18947   6.708   3.699   7.905  0.4096 -0.0272  0.6541
  168SOPE  H12S18948   6.798   3.840   7.914 -1.3769  0.1797 -0.4795
  168SOPE  C21318949   6.907   3.651   7.927  0.0363  0.2629  0.5367
  168SOPE  H13R18950   7.008   3.661   7.882 -1.6301 -2.8407 -4.7574
  168SOPE  H13S18951   6.878   3.545   7.910 -1.0102 -0.2707  4.5626
  168SOPE  C21418952   6.906   3.662   8.075 -0.2117 -0.1788  0.2115
  168SOPE  H14R18953   6.805   3.638   8.113 -1.2529  0.8880 -1.6958
  168SOPE  H14S18954   6.899   3.770   8.101 -3.0510 -0.2281 -0.0808
  168SOPE  C21518955   7.025   3.599   8.150 -1.0829 -0.2254  0.4069
  168SOPE  H15R18956   7.098   3.679   8.173 -0.0510 -1.2243  0.6631
  168SOPE  H15S18957   7.078   3.525   8.087 -1.4007  0.8729 -1.2159
  168SOPE  C21618958   6.979   3.546   8.285  0.3195  0.2170 -0.4050
  168SOPE  H16R18959   6.920   3.626   8.334 -1.4157 -0.8023 -0.7258
  168SOPE  H16S18960   7.067   3.521   8.348  0.0208  1.6034  0.5800
  168SOPE  C21718961   6.902   3.415   8.270  0.8327 -0.2412  1.4173
  168SOPE  H17R18962   6.958   3.328   8.229 -0.5081 -0.6401  0.3434
  168SOPE  H17S18963   6.816   3.436   8.202  1.5444 -1.9534 -0.0801
  168SOPE  C21818964   6.852   3.360   8.396  0.2568 -0.3001 -0.7799
  168SOPE  H18R18965   6.835   3.250   8.395 -0.6658 -0.1727 -0.7428
  168SOPE  H18S18966   6.758   3.414   8.423  1.3327  2.3981 -2.0336
  168SOPE  H18T18967   6.918   3.389   8.480  0.5609 -2.9024 -0.0420
  168SOPE   C3318968   5.671   3.585   7.220 -1.0850 -0.3324  0.1132
  168SOPE   H3X18969   5.569   3.607   7.183 -1.6136 -1.3699  0.8944
  168SOPE   H3Y18970   5.735   3.671   7.190  0.8588 -1.9728 -0.7308
  168SOPE   C3418971   5.668   3.561   7.372 -0.7083 -0.5592  0.5471
  168SOPE   H4X18972   5.591   3.488   7.405 -1.0761 -1.3030 -1.7969
  168SOPE   H4Y18973   5.659   3.662   7.418  0.2218  0.3775 -1.2073
  168SOPE   C3518974   5.798   3.503   7.428 -0.1621  0.7491 -0.7329
  168SOPE   H5X18975   5.883   3.569   7.402  1.4295 -1.3011 -0.9794
  168SOPE   H5Y18976   5.816   3.402   7.386  0.4971  0.1003  0.9958
  168SOPE   C3618977   5.789   3.475   7.575  0.0749  0.0849 -0.2410
  168SOPE   H6X18978   5.747   3.561   7.631  1.2482  0.4038  0.1916
  168SOPE   H6Y18979   5.889   3.472   7.623 -0.1964  0.4082  0.3613
  168SOPE   C3718980   5.703   3.351   7.617 -0.1628  0.3886  0.4253
  168SOPE   H7X18981   5.747   3.260   7.571 -0.5373 -0.7034  2.1410
  168SOPE   H7Y18982   5.599   3.358   7.578 -0.1938 -0.0168  0.4369
  168SOPE   C3818983   5.691   3.318   7.769  0.2754  0.0418  0.4259
  168SOPE   H8X18984   5.618   3.382   7.821  0.4482 -0.8376  1.7972
  168SOPE   H8Y18985   5.790   3.321   7.819 -0.9884 -0.2732  3.0897
  168SOPE   C3918986   5.622   3.181   7.796 -0.3024  0.4005 -0.5294
  168SOPE   H9X18987   5.688   3.106   7.747  0.3718  0.6942 -0.0803
  168SOPE   H9Y18988   5.522   3.180   7.747 -0.7459  0.9616  0.3359
  168SOPE  C31018989   5.598   3.151   7.941 -0.4274  0.2096  0.0348
  168SOPE  H10X18990   5.696   3.175   7.988 -1.0195  0.0141  1.4357
  168SOPE  H10Y18991   5.577   3.045   7.968 -3.6173  0.8232  0.2788
  168SOPE  C31118992   5.490   3.242   7.998 -0.2444 -0.6366 -0.4460
  168SOPE  H11X18993   5.396   3.243   7.938 -1.4642  0.4777  1.3519
  168SOPE  H11Y18994   5.530   3.346   8.000 -1.7677 -0.0083  1.5668
  168SOPE  C31218995   5.449   3.193   8.139  1.0117  0.3794 -0.5173
  168SOPE  H12X18996   5.420   3.086   8.145 -2.8689  1.1886 -2.1428
  168SOPE  H12Y18997   5.355   3.247   8.163  0.7359  0.5205 -1.8483
  168SOPE  C31318998   5.557   3.234   8.238 -0.1984  0.3679  0.1821
  168SOPE  H13X18999   5.601   3.332   8.209  0.6949 -0.4978 -1.4985
  168SOPE  H13Y19000   5.630   3.152   8.254  0.7674  1.5132  2.0593
  168SOPE  C31419001   5.500   3.268   8.385  0.3878  0.6178 -0.4979
  168SOPE  H14X19002   5.449   3.176   8.420 -2.5170  2.9987  2.1127
  168SOPE  H14Y19003   5.429   3.353   8.371  0.2585  0.5568 -0.2125
  168SOPE  C31519004   5.607   3.309   8.484 -0.2159  0.9622  0.0573
  168SOPE  H15X19005   5.650   3.408   8.458  1.3962  0.5725  1.1253
  168SOPE  H15Y19006   5.691   3.237   8.487 -1.5538 -0.6578  2.6941
  168SOPE  C31619007   5.549   3.318   8.624 -0.4371 -0.0849  0.5732
  168SOPE  H16X19008   5.495   3.221   8.632  1.1272 -1.0725 -0.2340
  168SOPE  H16Y19009   5.476   3.402   8.623 -0.5660 -0.1625 -1.4535
  168SOPE  C31719010   5.648   3.334   8.744  0.1917  0.1412 -0.2463
  168SOPE  H17X19011   5.717   3.246   8.738 -0.3083 -0.2117 -1.0465
  168SOPE  H17Y19012   5.585   3.316   8.834  0.2624 -3.2371 -0.7139
  168SOPE  C31819013   5.721   3.468   8.745 -0.9697 -0.6390 -0.1297
  168SOPE  H18X19014   5.779   3.474   8.650  1.1231 -3.1149  0.8852
  168SOPE  H18Y19015   5.780   3.485   8.838  1.1259 -0.4304 -1.4280
  168SOPE  H18Z19016   5.655   3.557   8.735  1.3390  1.4391  1.8002
  169SOPE     N19017   3.246   3.776   6.565  0.0934  0.1403 -0.0830
  169SOPE   HN119018   3.188   3.848   6.516 -1.7925  0.1164  1.9873
  169SOPE   HN219019   3.177   3.719   6.616  0.0762  0.6350  0.4605
  169SOPE   HN319020   3.308   3.824   6.634  1.6463 -0.2372 -1.1488
  169SOPE   C1219021   3.340   3.691   6.486 -0.3602  0.1605 -0.1918
  169SOPE  H12A19022   3.425   3.753   6.450 -1.1615  0.4426 -1.7195
  169SOPE  H12B19023   3.294   3.662   6.389 -0.0068 -3.5296  0.6165
  169SOPE   C1119024   3.393   3.584   6.581  0.3027 -0.8896  0.5092
  169SOPE  H11A19025   3.427   3.637   6.672  1.8444  0.8281 -1.0113
  169SOPE  H11B19026   3.483   3.536   6.538 -0.2728 -1.2635 -0.3157
  169SOPE     P19027   3.311   3.336   6.566 -0.4042 -0.1708 -0.1767
  169SOPE   O1319028   3.362   3.346   6.428  0.4175  0.0536 -0.3912
  169SOPE   O1419029   3.184   3.258   6.583 -0.0616  0.0671  0.1957
  169SOPE   O1219030   3.291   3.487   6.616  0.2888  0.4927 -0.3634
  169SOPE   O1119031   3.420   3.276   6.662 -0.4327  0.1394  0.0658
  169SOPE    C119032   3.409   3.308   6.805  0.2713  0.3785  0.0995
  169SOPE    HA19033   3.306   3.289   6.843  0.1966 -0.2176 -0.3857
  169SOPE    HB19034   3.443   3.411   6.829  1.2480  0.1198 -0.0949
  169SOPE    C219035   3.496   3.210   6.877 -0.0192 -0.3837 -0.5758
  169SOPE    HS19036   3.443   3.194   6.973  0.9936  0.0521  0.0749
  169SOPE   O2119037   3.628   3.261   6.900  0.2693  0.1191 -0.6243
  169SOPE   C2119038   3.649   3.289   7.034 -0.8430 -0.3419  1.0239
  169SOPE   O2219039   3.583   3.244   7.122  0.0666  0.6462  0.1790
  169SOPE   C2219040   3.768   3.385   7.037 -0.8524  0.1131  0.5404
  169SOPE   H2R19041   3.752   3.453   6.950  0.0295 -0.8172 -0.3877
  169SOPE   H2S19042   3.855   3.319   7.019  0.3225  1.7382 -0.0519
  169SOPE    C319043   3.507   3.077   6.805 -0.0993  0.5805  0.5447
  169SOPE    HX19044   3.558   3.088   6.707 -3.3392  0.7879 -1.2504
  169SOPE    HY19045   3.403   3.046   6.783  0.4247 -0.1915 -0.9695
  169SOPE   O3119046   3.573   2.981   6.893  0.2314 -0.4227  0.0728
  169SOPE   C3119047   3.501   2.878   6.943 -1.0084 -0.0179 -0.7318
  169SOPE   O3219048   3.387   2.849   6.912  0.0779 -0.4001 -0.0825
  169SOPE   C3219049   3.582   2.810   7.055 -0.4103 -0.2598  0.7318
  169SOPE   H2X19050   3.688   2.805   7.020 -0.8444  0.3845 -0.7681
  169SOPE   H2Y19051   3.543   2.706   7.062 -0.3461 -0.1894  2.6128
  169SOPE   C2319052   3.797   3.472   7.160  0.1008 -0.8441 -1.0988
  169SOPE   H3R19053   3.705   3.531   7.181  0.8965 -0.4096  1.6333
  169SOPE   H3S19054   3.880   3.542   7.140  0.2166 -0.7573 -0.3419
  169SOPE   C2419055   3.815   3.403   7.295 -0.3658  0.9429  0.8512
  169SOPE   H4R19056   3.725   3.341   7.318  0.3614 -0.4820 -0.0073
  169SOPE   H4S19057   3.895   3.327   7.285 -2.7937 -1.8420  1.0077
  169SOPE   C2519058   3.843   3.488   7.417 -0.1945 -0.5564 -0.4024
  169SOPE   H5R19059   3.882   3.422   7.498 -1.3882  0.9044  1.4604
  169SOPE   H5S19060   3.921   3.563   7.390 -2.3690  2.2583  0.5819
  169SOPE   C2619061   3.716   3.555   7.474 -0.2852 -0.6853 -0.1294
  169SOPE   H6R19062   3.664   3.611   7.394  0.7273 -1.3961 -1.3108
  169SOPE   H6S19063   3.640   3.479   7.502 -1.2678 -0.1795 -1.3659
  169SOPE   C2719064   3.736   3.644   7.594 -0.4226  0.4970 -0.3416
  169SOPE   H7R19065   3.797   3.735   7.573  1.6739 -0.8684 -0.4185
  169SOPE   H7S19066   3.634   3.680   7.617 -0.7994 -1.2103  0.8386
  169SOPE   C2819067   3.791   3.575   7.727  0.0008 -0.1599  0.3827
  169SOPE   H8R19068   3.731   3.625   7.806 -1.0231 -1.2458  0.3112
  169SOPE   H8S19069   3.762   3.469   7.708  0.1076 -0.3235  1.1132
  169SOPE   C2919070   3.944   3.595   7.726 -0.2072  0.0049 -0.3727
  169SOPE   H9119071   3.989   3.521   7.657 -3.3489 -1.1404 -1.3943
  169SOPE  C21019072   4.018   3.664   7.811 -0.0664  0.1330  0.3043
  169SOPE  H10119073   4.127   3.659   7.820 -0.0024  2.9374  2.3329
  169SOPE  C21119074   3.957   3.744   7.925  0.1550 -1.1769 -0.6781
  169SOPE  H11R19075   3.869   3.691   7.968 -2.5239  1.2518 -2.7736
  169SOPE  H11S19076   3.917   3.842   7.891  0.1809 -0.2630  1.7170
  169SOPE  C21219077   4.058   3.775   8.042  0.1832 -0.3107  0.2015
  169SOPE  H12R19078   4.002   3.797   8.136  2.1169  0.7197  1.1849
  169SOPE  H12S19079   4.108   3.873   8.025  1.0901 -1.0628 -1.6883
  169SOPE  C21319080   4.159   3.661   8.077  1.1211 -0.5745  0.0910
  169SOPE  H13R19081   4.255   3.659   8.022  0.4864  1.4043 -1.1755
  169SOPE  H13S19082   4.111   3.563   8.054  0.3061  0.4356 -2.9854
  169SOPE  C21419083   4.194   3.647   8.228 -0.3209 -0.5134  0.1486
  169SOPE  H14R19084   4.106   3.635   8.294 -0.0515 -1.1673  0.4025
  169SOPE  H14S19085   4.239   3.745   8.257 -1.6160 -0.0754  0.7342
  169SOPE  C21519086   4.284   3.529   8.259  0.2966 -0.0350  0.2565
  169SOPE  H15R19087   4.382   3.560   8.218 -0.3189 -0.5192 -1.7425
  169SOPE  H15S19088   4.257   3.437   8.203 -2.7598 -0.3782  2.0657
  169SOPE  C21619089   4.287   3.497   8.406  0.3177  0.5362 -0.9390
  169SOPE  H16R19090   4.306   3.587   8.469 -2.1480  0.0302  0.6675
  169SOPE  H16S19091   4.358   3.420   8.444 -2.2616 -1.3451  0.3316
  169SOPE  C21719092   4.162   3.434   8.460  0.6437  0.3495  0.4827
  169SOPE  H17R19093   4.146   3.341   8.400  1.0235 -0.6157  1.8342
  169SOPE  H17S19094   4.074   3.500   8.441 -1.1404 -1.8178  0.7757
  169SOPE  C21819095   4.172   3.373   8.604 -0.3271  0.6380  0.7081
  169SOPE  H18R19096   4.075   3.324   8.625 -0.6728  0.6057 -0.8385
  169SOPE  H18S19097   4.194   3.452   8.679  0.2122 -0.4660  1.7553
  169SOPE  H18T19098   4.254   3.297   8.603  0.1270  1.1262  0.1214
  169SOPE   C3319099   3.574   2.865   7.193  0.0017 -0.5513 -0.3163
  169SOPE   H3X19100   3.473   2.865   7.238 -0.1563  0.5221 -0.6310
  169SOPE   H3Y19101   3.612   2.969   7.180  2.0219 -1.3650 -1.5004
  169SOPE   C3419102   3.675   2.798   7.294 -0.6001  0.3977 -0.0166
  169SOPE   H4X19103   3.780   2.803   7.257  0.7905  0.1762  3.5108
  169SOPE   H4Y19104   3.656   2.691   7.319  0.5889  0.2349  0.2743
  169SOPE   C3519105   3.694   2.875   7.428  0.1594 -0.4504  0.2845
  169SOPE   H5X19106   3.606   2.842   7.487  0.2348 -0.2214  0.5284
  169SOPE   H5Y19107   3.688   2.984   7.407  1.7702 -0.3766  0.0739
  169SOPE   C3619108   3.818   2.846   7.500  0.5867  0.1251  0.5129
  169SOPE   H6X19109   3.902   2.852   7.428  1.2614  1.6031  1.3538
  169SOPE   H6Y19110   3.815   2.743   7.541 -1.6090 -0.5175 -1.0752
  169SOPE   C3719111   3.847   2.938   7.618 -0.0063 -1.0842  0.1924
  169SOPE   H7X19112   3.757   2.960   7.679 -0.3910 -0.2494 -0.6563
  169SOPE   H7Y19113   3.883   3.032   7.571 -0.4314  0.5036  2.7712
  169SOPE   C3819114   3.962   2.895   7.709 -0.2411 -0.0118  0.7788
  169SOPE   H8X19115   3.932   2.791   7.731 -2.1369  0.7033  1.8266
  169SOPE   H8Y19116   4.061   2.897   7.659  0.4109 -0.0084  2.0214
  169SOPE   C3919117   3.977   2.978   7.840 -0.6335  0.9198  0.0334
  169SOPE   H9X19118   3.876   3.005   7.878 -0.1007 -0.4347  2.6512
  169SOPE   H9Y19119   4.014   3.080   7.817 -3.8893  2.3470  0.4937
  169SOPE  C31019120   4.028   2.901   7.962 -0.0550  0.5171 -0.4066
  169SOPE  H10X19121   4.133   2.873   7.938  0.8447  4.6177 -2.0906
  169SOPE  H10Y19122   3.972   2.810   7.991 -1.4302  1.2102 -0.8229
  169SOPE  C31119123   4.010   2.983   8.093 -0.4352 -0.0887 -0.0732
  169SOPE  H11X19124   3.901   2.988   8.112 -0.3675  3.4640 -0.0339
  169SOPE  H11Y19125   4.054   3.085   8.090 -1.1728  0.3137  1.7242
  169SOPE  C31219126   4.066   2.899   8.213 -0.3746  0.0160 -0.8521
  169SOPE  H12X19127   4.176   2.888   8.204 -0.2362  0.2354  0.3815
  169SOPE  H12Y19128   4.037   2.792   8.208  2.2088 -0.8092  0.3361
  169SOPE  C31319129   4.032   2.973   8.344 -0.2001 -0.3055 -0.3540
  169SOPE  H13X19130   3.923   2.989   8.359  0.2863  2.5993  0.7590
  169SOPE  H13Y19131   4.070   3.077   8.351  0.0327 -0.4692  1.2004
  169SOPE  C31419132   4.092   2.903   8.470  0.4249  0.7573 -0.0920
  169SOPE  H14X19133   4.188   2.853   8.444  0.2219  1.1122 -1.5917
  169SOPE  H14Y19134   4.018   2.823   8.494  1.6939 -0.5532 -0.3533
  169SOPE  C31519135   4.111   2.996   8.588 -0.4400 -0.4626 -0.6456
  169SOPE  H15X19136   4.009   3.021   8.624  1.0829  0.5196  3.6226
  169SOPE  H15Y19137   4.152   3.095   8.557 -2.6584  0.4397 -0.8861
  169SOPE  C31619138   4.190   2.936   8.708  0.0587  0.4711  0.2920
  169SOPE  H16X19139   4.291   2.904   8.675 -0.6949 -0.1024 -1.5862
  169SOPE  H16Y19140   4.137   2.844   8.742  0.8533 -0.8672 -1.8635
  169SOPE  C31719141   4.213   3.033   8.820 -0.0286  0.0500 -0.6177
  169SOPE  H17X19142   4.273   3.119   8.784  2.8070 -1.1009  1.0316
  169SOPE  H17Y19143   4.266   2.981   8.903  0.7245  0.4451 -0.8406
  169SOPE  C31819144   4.086   3.101   8.876 -0.2188  0.5440  0.0521
  169SOPE  H18X19145   3.990   3.046   8.888 -1.0851  2.2296  1.3478
  169SOPE  H18Y19146   4.052   3.191   8.821 -0.3073  1.0708  0.9576
  169SOPE  H18Z19147   4.111   3.124   8.982  3.4626 -2.3469  0.0462
  170SOPE     N19148   0.173   2.615   6.237  0.6469 -0.4920 -0.1249
  170SOPE   HN119149   0.269   2.648   6.259 -0.3959  3.3081 -0.6475
  170SOPE   HN219150   0.166   2.607   6.133 -0.8369 -1.8090  0.0296
  170SOPE   HN319151   0.114   2.691   6.275 -0.6913 -1.5859  0.0815
  170SOPE   C1219152   0.143   2.473   6.298 -0.0240 -0.2168  0.0710
  170SOPE  H12A19153   0.193   2.397   6.234 -2.1065 -2.0360  0.4840
  170SOPE  H12B19154   0.036   2.446   6.287 -1.0417  3.8289 -1.9753
  170SOPE   C1119155   0.194   2.455   6.437 -0.1928 -0.2221  0.4060
  170SOPE  H11A19156   0.184   2.346   6.457 -0.3371 -0.4890 -0.9659
  170SOPE  H11B19157   0.134   2.517   6.506 -0.4354 -0.0110  0.0135
  170SOPE     P19158   0.437   2.461   6.542  0.4307  0.1931 -0.2295
  170SOPE   O1319159   0.396   2.552   6.652 -0.2066 -0.1968 -0.2400
  170SOPE   O1419160   0.571   2.484   6.483 -0.0733  0.2359 -0.1423
  170SOPE   O1219161   0.332   2.488   6.431 -0.8699 -0.7517 -0.5883
  170SOPE   O1119162   0.410   2.307   6.588 -0.7101 -0.0880  0.4176
  170SOPE    C119163   0.524   2.217   6.578  0.1574 -0.3530  0.6783
  170SOPE    HA19164   0.587   2.229   6.487 -1.6446  1.8789 -0.3903
  170SOPE    HB19165   0.486   2.116   6.552  1.0561 -0.8281  1.1328
  170SOPE    C219166   0.607   2.208   6.703  0.6157  0.1951 -0.1653
  170SOPE    HS19167   0.691   2.136   6.693  0.3999 -0.2130  0.8620
  170SOPE   O2119168   0.519   2.189   6.817  0.4551 -0.1505  0.4120
  170SOPE   C2119169   0.537   2.076   6.874 -0.4787  0.3354  0.3855
  170SOPE   O2219170   0.611   1.982   6.848 -0.3563 -0.1971 -0.1421
  170SOPE   C2219171   0.455   2.092   7.004  0.2481 -0.2340 -0.0293
  170SOPE   H2R19172   0.408   1.996   7.033 -0.2477  0.7445  2.6717
  170SOPE   H2S19173   0.380   2.174   7.000  0.2899 -0.1869  0.1658
  170SOPE    C319174   0.684   2.336   6.728  0.0512 -0.0343 -0.5597
  170SOPE    HX19175   0.616   2.423   6.742  1.2319  1.0476 -1.3455
  170SOPE    HY19176   0.747   2.363   6.640  0.2423 -0.3178 -0.5104
  170SOPE   O3119177   0.783   2.309   6.836  0.3680 -0.3979 -0.4428
  170SOPE   C3119178   0.789   2.403   6.929 -0.0204  0.4832 -0.3417
  170SOPE   O3219179   0.730   2.509   6.934 -0.0960 -0.1794  0.0286
  170SOPE   C3219180   0.890   2.355   7.041  1.1035 -0.1236 -0.0383
  170SOPE   H2X19181   0.968   2.433   7.027  0.9183  0.2937  1.1493
  170SOPE   H2Y19182   0.931   2.254   7.017  0.5994 -0.2121 -0.5529
  170SOPE   C2319183   0.550   2.134   7.115  0.4311 -0.2870  0.3063
  170SOPE   H3R19184   0.571   2.244   7.113 -0.3535 -0.1342  0.1734
  170SOPE   H3S19185   0.644   2.074   7.111  0.3076 -0.4724  0.2149
  170SOPE   C2419186   0.487   2.101   7.251 -0.3113  0.0846  0.3488
  170SOPE   H4R19187   0.416   2.179   7.286  1.9773  2.5328 -0.1830
  170SOPE   H4S19188   0.447   1.999   7.233 -2.0333  0.9765 -1.2957
  170SOPE   C2519189   0.590   2.122   7.359 -0.4210  0.5067 -0.5202
  170SOPE   H5R19190   0.680   2.061   7.336 -2.4357 -2.9505  0.0075
  170SOPE   H5S19191   0.625   2.227   7.369  2.0733 -0.2800 -0.1552
  170SOPE   C2619192   0.531   2.055   7.487 -1.0449  0.0592 -0.1586
  170SOPE   H6R19193   0.456   2.119   7.538 -2.2015 -1.5009  0.1838
  170SOPE   H6S19194   0.478   1.962   7.457  0.8658 -0.8010 -1.0637
  170SOPE   C2719195   0.644   2.010   7.579 -0.3490 -0.1489 -0.3791
  170SOPE   H7R19196   0.719   1.952   7.521 -2.4851 -0.9780 -2.4440
  170SOPE   H7S19197   0.691   2.098   7.627 -2.3803  1.3250 -0.9653
  170SOPE   C2819198   0.601   1.915   7.697  0.4933 -0.4678  0.0582
  170SOPE   H8R19199   0.524   1.842   7.664  0.6627 -0.7464  0.2784
  170SOPE   H8S19200   0.696   1.863   7.721  0.5429 -0.0936  0.7199
  170SOPE   C2919201   0.546   1.985   7.819  0.0335 -0.1024  0.2757
  170SOPE   H9119202   0.521   2.091   7.801  2.7094  0.4882 -0.4379
  170SOPE  C21019203   0.559   1.939   7.947  0.3474 -0.2671  0.3073
  170SOPE  H10119204   0.523   2.004   8.027  0.9277  1.6141 -0.8926
  170SOPE  C21119205   0.609   1.804   7.983  0.7124 -0.7840  0.1035
  170SOPE  H11R19206   0.707   1.835   8.027 -0.3890  3.0749  0.2557
  170SOPE  H11S19207   0.632   1.732   7.903 -1.1505 -1.1134 -0.1794
  170SOPE  C21219208   0.526   1.738   8.087  0.2006 -0.2446 -0.4598
  170SOPE  H12R19209   0.536   1.784   8.188 -0.6031 -0.6360 -0.1934
  170SOPE  H12S19210   0.575   1.639   8.098  1.1386  0.2399 -0.1191
  170SOPE  C21319211   0.378   1.719   8.046  0.5441 -0.2118 -0.2798
  170SOPE  H13R19212   0.381   1.686   7.940  0.2294  1.1477 -0.7371
  170SOPE  H13S19213   0.323   1.815   8.059 -2.0809 -1.5433 -0.8280
  170SOPE  C21419214   0.302   1.621   8.128  0.6328  0.2098  0.2132
  170SOPE  H14R19215   0.328   1.515   8.110 -1.0398 -0.3219  0.8012
  170SOPE  H14S19216   0.196   1.631   8.098  1.1474  1.8261 -1.2395
  170SOPE  C21519217   0.301   1.658   8.280  0.6684  0.2953 -0.0013
  170SOPE  H15R19218   0.269   1.764   8.286  0.5712  0.2098  1.3605
  170SOPE  H15S19219   0.405   1.649   8.320  0.9560  0.3288 -0.7263
  170SOPE  C21619220   0.204   1.570   8.366 -0.6503 -0.2032 -1.1411
  170SOPE  H16R19221   0.096   1.591   8.354 -0.7119 -0.6921 -1.4825
  170SOPE  H16S19222   0.232   1.591   8.472 -0.2626  1.4773 -1.5538
  170SOPE  C21719223   0.236   1.426   8.365 -0.3097 -0.2357 -0.2549
  170SOPE  H17R19224   0.337   1.410   8.321 -1.8682 -0.5809 -4.1895
  170SOPE  H17S19225   0.155   1.371   8.312 -2.9016  1.2381  1.9622
  170SOPE  C21819226   0.246   1.364   8.503  0.9136 -0.5432 -0.4131
  170SOPE  H18R19227   0.315   1.430   8.561 -0.6254  1.8450 -1.1557
  170SOPE  H18S19228   0.269   1.256   8.515 -0.0510 -0.5606  1.7813
  170SOPE  H18T19229   0.156   1.396   8.561  1.0343  2.5971 -1.7777
  170SOPE   C3319230   0.839   2.354   7.181 -0.4385  0.3826  0.0476
  170SOPE   H3X19231   0.770   2.267   7.191 -2.1439  1.1493 -3.5930
  170SOPE   H3Y19232   0.786   2.446   7.213  3.3336  2.2534  1.5937
  170SOPE   C3419233   0.958   2.356   7.281 -1.2164 -1.0038 -0.8346
  170SOPE   H4X19234   1.021   2.446   7.265 -0.6046 -1.4249 -0.8281
  170SOPE   H4Y19235   1.016   2.263   7.265 -1.4653 -1.4943  0.9358
  170SOPE   C3519236   0.902   2.356   7.426 -0.0201  0.8372  0.0916
  170SOPE   H5X19237   0.850   2.259   7.436 -0.0116  0.7112 -0.9048
  170SOPE   H5Y19238   0.823   2.434   7.422 -0.3066  0.5371 -0.1103
  170SOPE   C3619239   1.003   2.376   7.540  0.0060  0.2795  0.0973
  170SOPE   H6X19240   1.063   2.469   7.527  0.8899  0.0575  2.2760
  170SOPE   H6Y19241   1.073   2.290   7.533  0.1836  0.4644 -0.4719
  170SOPE   C3719242   0.919   2.370   7.670 -0.3556  0.7890  0.4662
  170SOPE   H7X19243   0.868   2.271   7.672  1.2023 -0.0474 -0.1851
  170SOPE   H7Y19244   0.836   2.445   7.667 -2.9780 -1.9341  0.4795
  170SOPE   C3819245   1.002   2.399   7.797  0.0279  0.1989 -0.6609
  170SOPE   H8X19246   1.037   2.504   7.798  0.5531  0.3540  5.7645
  170SOPE   H8Y19247   1.096   2.340   7.802 -1.1752 -1.7521  2.3056
  170SOPE   C3919248   0.925   2.370   7.925  0.4655  0.2399 -0.4614
  170SOPE   H9X19249   0.900   2.262   7.917  0.0136  0.3781 -0.9769
  170SOPE   H9Y19250   0.830   2.426   7.914 -1.8679 -3.5081 -1.0311
  170SOPE  C31019251   0.995   2.410   8.060 -0.0760  0.0130  0.1889
  170SOPE  H10X19252   1.083   2.342   8.070 -1.6857 -2.5388 -1.8705
  170SOPE  H10Y19253   0.926   2.396   8.146 -0.3717 -0.1459 -0.0731
  170SOPE  C31119254   1.056   2.553   8.059  0.0633  0.6068 -0.7368
  170SOPE  H11X19255   1.048   2.581   8.167  1.4671  1.7398 -0.8837
  170SOPE  H11Y19256   0.984   2.619   8.006  0.2716 -0.2231 -2.0945
  170SOPE  C31219257   1.204   2.572   8.019 -0.0838 -0.4465 -0.6034
  170SOPE  H12X19258   1.224   2.514   7.926  0.8801  0.0519 -0.7122
  170SOPE  H12Y19259   1.270   2.532   8.098 -1.2414  0.2798  0.7753
  170SOPE  C31319260   1.236   2.720   8.002  0.7632 -0.2998  0.3502
  170SOPE  H13X19261   1.250   2.777   8.096 -0.9042  0.3836  0.2103
  170SOPE  H13Y19262   1.145   2.766   7.958 -0.8963 -2.7499  1.0213
  170SOPE  C31419263   1.346   2.746   7.902  0.7035  0.2673 -0.1772
  170SOPE  H14X19264   1.434   2.683   7.927 -0.1790 -0.6946  0.5693
  170SOPE  H14Y19265   1.370   2.854   7.892  0.4943  0.3869  0.4993
  170SOPE  C31519266   1.299   2.712   7.757 -0.2377 -0.8244 -0.0301
  170SOPE  H15X19267   1.209   2.776   7.745  1.1036  0.8386 -1.7695
  170SOPE  H15Y19268   1.264   2.606   7.750 -0.6193 -0.7687  0.8767
  170SOPE  C31619269   1.396   2.747   7.646 -0.6661  0.1744  0.0055
  170SOPE  H16X19270   1.495   2.698   7.660  0.2671  2.5539  3.0191
  170SOPE  H16Y19271   1.423   2.855   7.650  2.1199 -0.4364 -0.3988
  170SOPE  C31719272   1.343   2.701   7.508 -0.0981 -0.0037  0.4079
  170SOPE  H17X19273   1.272   2.779   7.475 -1.8718 -1.0276  1.6049
  170SOPE  H17Y19274   1.281   2.610   7.525 -0.7998  0.1322 -1.2300
  170SOPE  C31819275   1.449   2.672   7.404 -0.0614 -0.2105  0.9969
  170SOPE  H18X19276   1.499   2.767   7.374 -1.5502  0.1002 -0.6257
  170SOPE  H18Y19277   1.409   2.615   7.318 -1.4019 -0.4138  1.7388
  170SOPE  H18Z19278   1.531   2.614   7.452  0.6295 -2.1970 -2.2905
  171SOPE     N19279   3.619   6.349   6.214 -0.0597  0.1309  0.3431
  171SOPE   HN119280   3.672   6.434   6.186  1.4196 -0.4491  1.2627
  171SOPE   HN219281   3.668   6.262   6.185 -0.5478 -1.1989  3.1816
  171SOPE   HN319282   3.522   6.351   6.177  0.2832 -1.2163 -0.7082
  171SOPE   C1219283   3.594   6.332   6.360 -0.2396 -0.1608 -0.6609
  171SOPE  H12A19284   3.515   6.406   6.386  0.5602  0.5440 -0.1772
  171SOPE  H12B19285   3.696   6.360   6.396 -1.0607 -0.2737  2.0068
  171SOPE   C1119286   3.566   6.183   6.402 -0.5604 -0.2182  0.1939
  171SOPE  H11A19287   3.548   6.186   6.512 -0.0950  0.9782  0.2528
  171SOPE  H11B19288   3.656   6.122   6.375 -0.8573 -0.3744 -0.4452
  171SOPE     P19289   3.434   6.028   6.220 -0.0410  0.0830  0.3703
  171SOPE   O1319290   3.539   6.067   6.123 -0.0713 -0.4434 -0.2365
  171SOPE   O1419291   3.296   6.016   6.160  1.0397 -0.4367 -0.2064
  171SOPE   O1219292   3.448   6.138   6.332 -0.2448 -0.2470  0.1501
  171SOPE   O1119293   3.480   5.892   6.284  0.0610  0.3146  0.4437
  171SOPE    C119294   3.465   5.852   6.422 -0.1517  0.2830  0.3128
  171SOPE    HA19295   3.480   5.947   6.479 -0.4356  0.0441  0.7948
  171SOPE    HB19296   3.552   5.789   6.451 -1.1447 -1.5211 -0.5170
  171SOPE    C219297   3.333   5.789   6.457  0.0315 -0.2763  0.3507
  171SOPE    HS19298   3.254   5.859   6.423 -3.2843 -3.4049  0.9159
  171SOPE   O2119299   3.327   5.767   6.596  0.2874 -0.1572 -0.2157
  171SOPE   C2119300   3.194   5.757   6.637  0.0675 -0.0481  0.2986
  171SOPE   O2219301   3.099   5.778   6.560 -0.6038  0.4566  0.4869
  171SOPE   C2219302   3.183   5.706   6.784  0.3600 -0.0929  0.8457
  171SOPE   H2R19303   3.280   5.667   6.819  0.4941  0.6353  1.3234
  171SOPE   H2S19304   3.109   5.623   6.785  0.0075  0.1972 -0.1113
  171SOPE    C319305   3.313   5.664   6.379 -0.3184  0.5270  0.2955
  171SOPE    HX19306   3.304   5.685   6.270  4.0180 -1.1428 -0.5981
  171SOPE    HY19307   3.214   5.619   6.401 -0.6442  0.6987 -0.7411
  171SOPE   O3119308   3.431   5.575   6.387  0.0459  0.1118 -0.1367
  171SOPE   C3119309   3.410   5.482   6.479  0.5243  0.6282  0.7743
  171SOPE   O3219310   3.300   5.462   6.534 -0.1543 -0.3281 -0.1782
  171SOPE   C3219311   3.535   5.399   6.508 -0.7153 -0.2860  0.4696
  171SOPE   H2X19312   3.622   5.460   6.476 -2.0453  1.2711 -0.3282
  171SOPE   H2Y19313   3.527   5.305   6.448 -0.8734 -0.9763  1.5426
  171SOPE   C2319314   3.141   5.818   6.872  0.0681  0.0576 -0.4200
  171SOPE   H3R19315   3.047   5.861   6.831 -0.2465 -0.5018 -0.3031
  171SOPE   H3S19316   3.219   5.897   6.876  0.1723 -0.0640  0.0077
  171SOPE   C2419317   3.130   5.770   7.018  0.5591  0.1327 -0.0481
  171SOPE   H4R19318   3.046   5.699   7.028  0.3802  0.4816  0.9886
  171SOPE   H4S19319   3.223   5.717   7.048 -0.9653 -2.9623 -0.3809
  171SOPE   C2519320   3.094   5.889   7.112 -0.0494 -0.6591  0.2900
  171SOPE   H5R19321   3.177   5.963   7.117 -1.8229  1.4738  0.1760
  171SOPE   H5S19322   3.010   5.951   7.072  2.1224  1.9798 -0.4575
  171SOPE   C2619323   3.058   5.847   7.255 -0.0328 -0.0563  0.0102
  171SOPE   H6R19324   2.973   5.777   7.245  0.0667 -0.0455 -0.9906
  171SOPE   H6S19325   3.145   5.789   7.295  1.0751  1.4701 -0.0780
  171SOPE   C2719326   3.016   5.962   7.341  0.3005  0.7463  0.7541
  171SOPE   H7R19327   3.105   6.025   7.364  0.0914  1.1286  0.5245
  171SOPE   H7S19328   2.942   6.028   7.292 -0.6315 -0.6358  0.2610
  171SOPE   C2819329   2.943   5.914   7.463  0.0023  0.0503 -0.1077
  171SOPE   H8R19330   2.889   6.004   7.501  1.9597  0.9008  0.7810
  171SOPE   H8S19331   2.877   5.833   7.425  0.0229  1.0634 -2.4717
  171SOPE   C2919332   3.037   5.867   7.569 -1.0041  0.6753 -0.3551
  171SOPE   H9119333   3.141   5.841   7.543 -0.6054  2.2600 -0.4619
  171SOPE  C21019334   2.992   5.837   7.694  0.0923 -0.9465 -0.2058
  171SOPE  H10119335   3.066   5.810   7.771 -1.0564 -2.0606  0.5307
  171SOPE  C21119336   2.850   5.863   7.741  0.0535 -0.0113 -0.4372
  171SOPE  H11R19337   2.784   5.805   7.674  0.8806 -2.4703  0.7740
  171SOPE  H11S19338   2.827   5.972   7.736 -1.3591 -0.2490  0.2324
  171SOPE  C21219339   2.812   5.804   7.881 -0.3112 -0.2931 -0.6111
  171SOPE  H12R19340   2.824   5.694   7.874 -1.8291 -0.8391  3.2221
  171SOPE  H12S19341   2.703   5.812   7.899 -0.3846  1.6973 -1.7067
  171SOPE  C21319342   2.885   5.865   8.007  0.3579  0.7468  0.2188
  171SOPE  H13R19343   2.992   5.839   7.996  0.9711  1.8446  2.8328
  171SOPE  H13S19344   2.849   5.832   8.107 -1.5884 -0.7770 -0.8982
  171SOPE  C21419345   2.870   6.024   8.008  0.3007  0.3340 -0.0460
  171SOPE  H14R19346   2.763   6.051   8.007  0.1984 -0.0647 -0.9787
  171SOPE  H14S19347   2.906   6.065   7.911 -1.4758 -1.6675 -1.6597
  171SOPE  C21519348   2.941   6.094   8.131  0.4121 -0.3453 -0.0846
  171SOPE  H15R19349   2.906   6.051   8.227 -1.4408  0.0321 -0.5475
  171SOPE  H15S19350   2.914   6.201   8.125  0.6609 -0.1068  2.3304
  171SOPE  C21619351   3.090   6.082   8.112 -0.2233 -0.6713 -0.2548
  171SOPE  H16R19352   3.121   6.057   8.008 -0.7848 -0.1627 -0.5558
  171SOPE  H16S19353   3.117   5.989   8.166 -0.9850 -0.4448  0.5425
  171SOPE  C21719354   3.167   6.204   8.176  0.6073 -0.1514  0.2220
  171SOPE  H17R19355   3.118   6.227   8.273  0.6666 -0.6335  0.3686
  171SOPE  H17S19356   3.147   6.288   8.106 -0.5734  0.1142  0.8490
  171SOPE  C21819357   3.317   6.183   8.190 -0.3299  0.1389  0.0476
  171SOPE  H18R19358   3.347   6.144   8.290  2.6363 -0.9798 -1.1794
  171SOPE  H18S19359   3.365   6.283   8.198  1.5168 -0.6396 -0.8694
  171SOPE  H18T19360   3.369   6.122   8.113  0.6886  1.5253 -0.3983
  171SOPE   C3319361   3.544   5.365   6.655  0.8536  0.4882  0.0639
  171SOPE   H3X19362   3.584   5.262   6.648 -1.4154 -0.3730 -0.9672
  171SOPE   H3Y19363   3.442   5.358   6.697 -0.4895 -0.6752 -3.1227
  171SOPE   C3419364   3.653   5.453   6.723 -0.1912 -0.0219  0.8089
  171SOPE   H4X19365   3.612   5.555   6.711  0.4338  0.2550  0.9913
  171SOPE   H4Y19366   3.749   5.453   6.667 -0.3858  0.7593  0.4723
  171SOPE   C3519367   3.689   5.428   6.869  0.1560 -0.1347  0.3220
  171SOPE   H5X19368   3.737   5.520   6.909  0.1646  0.1241 -0.2706
  171SOPE   H5Y19369   3.768   5.350   6.874  1.8291  1.3997 -0.7199
  171SOPE   C3619370   3.578   5.383   6.958  1.0945 -0.3186  0.1672
  171SOPE   H6X19371   3.542   5.291   6.908 -0.1898  0.1041  0.2795
  171SOPE   H6Y19372   3.497   5.457   6.948  0.2377 -1.2366  0.2167
  171SOPE   C3719373   3.622   5.368   7.107  0.1080 -0.7017  0.6319
  171SOPE   H7X19374   3.688   5.453   7.138 -2.2276  0.9441  1.3318
  171SOPE   H7Y19375   3.683   5.276   7.115  0.9752 -0.1146  1.0779
  171SOPE   C3819376   3.506   5.358   7.207 -0.2453 -0.3979  0.1690
  171SOPE   H8X19377   3.446   5.270   7.175  1.2636 -0.8450 -1.6105
  171SOPE   H8Y19378   3.441   5.446   7.227 -0.4633 -0.0334 -1.9527
  171SOPE   C3919379   3.571   5.303   7.341 -0.0677  0.2872 -0.6974
  171SOPE   H9X19380   3.637   5.384   7.380  1.6312 -2.0215  1.5299
  171SOPE   H9Y19381   3.633   5.212   7.323  3.2349  2.3911 -0.7867
  171SOPE  C31019382   3.465   5.269   7.443 -0.3726 -0.0515 -0.2205
  171SOPE  H10X19383   3.385   5.208   7.396 -0.5446 -1.1965  1.4303
  171SOPE  H10Y19384   3.417   5.363   7.476  0.3347  0.7812 -1.4907
  171SOPE  C31119385   3.515   5.193   7.567 -0.0609  0.3205 -0.7061
  171SOPE  H11X19386   3.595   5.257   7.610 -3.5500  2.7424  2.7998
  171SOPE  H11Y19387   3.552   5.092   7.539 -0.5852 -0.5078  1.4304
  171SOPE  C31219388   3.400   5.179   7.673 -0.1108 -0.2122  0.1465
  171SOPE  H12X19389   3.310   5.135   7.625 -0.9880  2.0080 -0.4090
  171SOPE  H12Y19390   3.368   5.278   7.713  0.9236  0.1491  0.1186
  171SOPE  C31319391   3.452   5.099   7.792  0.3639  0.3536  0.5769
  171SOPE  H13X19392   3.556   5.126   7.823  1.2870 -1.8635 -0.3276
  171SOPE  H13Y19393   3.465   4.993   7.761 -1.2990 -0.4120  2.3053
  171SOPE  C31419394   3.353   5.094   7.905  0.8954  0.0089 -0.2693
  171SOPE  H14X19395   3.373   5.001   7.961  1.4324  1.7378  2.6286
  171SOPE  H14Y19396   3.248   5.086   7.869  0.4679  0.8102  0.7347
  171SOPE  C31519397   3.370   5.210   8.011  0.0999  0.4176  0.5478
  171SOPE  H15X19398   3.298   5.198   8.095 -0.5074 -2.1019 -0.2283
  171SOPE  H15Y19399   3.342   5.307   7.965 -1.2945 -0.1659  0.0998
  171SOPE  C31619400   3.513   5.228   8.069  0.2539 -0.3232 -0.2053
  171SOPE  H16X19401   3.524   5.331   8.109  1.1393 -1.2016  1.9464
  171SOPE  H16Y19402   3.598   5.225   7.997 -0.8614  1.2480 -1.6507
  171SOPE  C31719403   3.542   5.140   8.191  0.2986  0.8177  0.2084
  171SOPE  H17X19404   3.646   5.162   8.223  0.2560 -2.6423  3.4338
  171SOPE  H17Y19405   3.532   5.034   8.161 -0.3911  1.2720 -1.2745
  171SOPE  C31819406   3.459   5.158   8.314  0.5193 -0.2117 -0.1097
  171SOPE  H18X19407   3.481   5.083   8.394  0.2078  2.2459  2.4682
  171SOPE  H18Y19408   3.350   5.158   8.295  0.4112 -0.0722  0.4960
  171SOPE  H18Z19409   3.484   5.261   8.348  0.1158  0.2088 -1.0635
  172SOPE     N19410   4.321   1.313   6.422 -0.3952 -0.0197  0.7439
  172SOPE   HN119411   4.416   1.313   6.463  0.5059 -0.8373 -1.2462
  172SOPE   HN219412   4.323   1.239   6.349  0.4008  2.0794 -1.4722
  172SOPE   HN319413   4.310   1.403   6.372 -0.4237 -0.5581 -0.2409
  172SOPE   C1219414   4.217   1.302   6.520 -0.3422 -0.0539  0.4527
  172SOPE  H12A19415   4.257   1.344   6.615 -2.5090  0.4471  1.2022
  172SOPE  H12B19416   4.180   1.198   6.526  0.1723 -0.3846 -1.5064
  172SOPE   C1119417   4.100   1.387   6.477  0.2229  0.4841 -0.2371
  172SOPE  H11A19418   4.030   1.389   6.564 -0.3500 -0.4808 -0.6484
  172SOPE  H11B19419   4.050   1.342   6.388  0.1954 -0.5641  0.2922
  172SOPE     P19420   4.116   1.648   6.504 -0.1130 -0.3507 -0.2284
  172SOPE   O1319421   4.026   1.716   6.403 -0.0562 -0.9106 -0.7397
  172SOPE   O1419422   4.245   1.712   6.530  0.1106  0.4113 -0.4736
  172SOPE   O1219423   4.156   1.511   6.440 -0.5171  0.2769 -0.4747
  172SOPE   O1119424   4.038   1.602   6.630  0.2266  0.0767 -0.0051
  172SOPE    C119425   4.041   1.645   6.762  0.6829 -0.4606 -0.1875
  172SOPE    HA19426   3.941   1.690   6.776  0.3918 -1.4825  1.1216
  172SOPE    HB19427   4.115   1.722   6.793 -0.8413 -0.1157  2.9609
  172SOPE    C219428   4.056   1.532   6.862  1.0161 -0.0339 -0.8036
  172SOPE    HS19429   4.047   1.581   6.962  0.4536  0.2456 -0.9880
  172SOPE   O2119430   4.175   1.453   6.834  0.1959 -0.1146  0.0953
  172SOPE   C2119431   4.234   1.406   6.948  0.2574  0.1425  0.4946
  172SOPE   O2219432   4.192   1.424   7.064 -0.6478  0.9149  0.2444
  172SOPE   C2219433   4.368   1.338   6.910  0.3008 -0.0496 -0.0580
  172SOPE   H2R19434   4.417   1.410   6.841 -0.6764  0.1684 -0.5444
  172SOPE   H2S19435   4.337   1.244   6.859 -0.6976  0.5471 -0.5807
  172SOPE    C319436   3.929   1.445   6.849 -0.1949  0.1344 -0.2224
  172SOPE    HX19437   3.935   1.413   6.742  1.8025  0.9584 -0.4030
  172SOPE    HY19438   3.836   1.505   6.848 -1.4647 -1.7079  0.6883
  172SOPE   O3119439   3.926   1.334   6.942  0.8054  0.1676  0.3140
  172SOPE   C3119440   3.887   1.368   7.063 -0.3635 -0.8658 -0.4108
  172SOPE   O3219441   3.851   1.477   7.101  0.0860 -0.2070  0.1569
  172SOPE   C3219442   3.904   1.242   7.156 -0.0244  0.4662  0.9423
  172SOPE   H2X19443   4.012   1.214   7.155  0.4507  2.1826  1.1695
  172SOPE   H2Y19444   3.842   1.165   7.105  0.9968 -1.2762  2.1808
  172SOPE   C2319445   4.464   1.314   7.031  0.3654  0.0719 -0.2072
  172SOPE   H3R19446   4.497   1.407   7.082  1.1870 -0.3600  0.0649
  172SOPE   H3S19447   4.556   1.271   6.986 -0.2943 -0.5640 -0.9956
  172SOPE   C2419448   4.411   1.219   7.143 -0.1747  0.0712  0.6325
  172SOPE   H4R19449   4.312   1.257   7.176  0.1124  3.8369 -2.1945
  172SOPE   H4S19450   4.393   1.117   7.104  0.7055  0.6110 -1.2673
  172SOPE   C2519451   4.508   1.226   7.267  0.1157  0.1491  0.2463
  172SOPE   H5R19452   4.607   1.213   7.220  0.7691 -0.4919  1.7192
  172SOPE   H5S19453   4.496   1.328   7.309  0.0423 -0.1349  0.9379
  172SOPE   C2619454   4.487   1.111   7.366  0.4081 -0.1777  0.2142
  172SOPE   H6R19455   4.474   1.011   7.320 -1.9823 -0.9990  2.3833
  172SOPE   H6S19456   4.564   1.112   7.446 -0.7276 -0.0187  1.3476
  172SOPE   C2719457   4.365   1.129   7.455 -0.1660 -0.1887  0.1239
  172SOPE   H7R19458   4.371   1.224   7.514 -0.0341  0.5801 -1.0991
  172SOPE   H7S19459   4.280   1.135   7.384 -0.5298 -2.4744  0.2883
  172SOPE   C2819460   4.344   1.010   7.556 -0.0021 -0.7815  0.0266
  172SOPE   H8R19461   4.244   1.019   7.602  0.1640 -0.3492  0.3184
  172SOPE   H8S19462   4.349   0.921   7.490 -0.8698 -0.5165 -0.4158
  172SOPE   C2919463   4.445   1.018   7.666 -0.1324  0.6328 -0.4527
  172SOPE   H9119464   4.546   0.992   7.633  0.3753  1.6306  0.2610
  172SOPE  C21019465   4.416   1.038   7.796  0.5452  0.0623 -0.6442
  172SOPE  H10119466   4.500   1.005   7.859 -0.1444  0.1079  0.3167
  172SOPE  C21119467   4.281   1.061   7.872 -0.9751 -0.0158  0.4856
  172SOPE  H11R19468   4.197   1.083   7.802 -0.0892 -2.3135 -1.4329
  172SOPE  H11S19469   4.303   1.149   7.936  0.6058  0.4790 -0.6819
  172SOPE  C21219470   4.244   0.939   7.964 -0.0637 -0.0631  0.0310
  172SOPE  H12R19471   4.261   0.845   7.907 -0.2228  0.1193 -0.3198
  172SOPE  H12S19472   4.138   0.960   7.991  0.7152  0.9739  2.6346
  172SOPE  C21319473   4.321   0.923   8.094 -0.0917 -0.1673 -0.0730
  172SOPE  H13R19474   4.430   0.917   8.076 -0.1066 -1.0610  0.0725
  172SOPE  H13S19475   4.308   0.826   8.147  2.6012  0.0701  1.1610
  172SOPE  C21419476   4.293   1.030   8.206  0.2883 -0.1399  0.3380
  172SOPE  H14R19477   4.184   1.044   8.219  0.4511  0.7056  0.8684
  172SOPE  H14S19478   4.342   1.124   8.173 -0.2204 -0.3327 -1.0310
  172SOPE  C21519479   4.355   0.999   8.350  0.1780  0.1721  0.4209
  172SOPE  H15R19480   4.464   1.016   8.343  0.6388 -2.1964  0.7776
  172SOPE  H15S19481   4.340   0.889   8.357 -0.1419  0.1203 -0.7555
  172SOPE  C21619482   4.290   1.073   8.465  0.1049 -0.0319  0.0736
  172SOPE  H16R19483   4.273   1.180   8.442 -4.1992 -0.3899  0.7210
  172SOPE  H16S19484   4.370   1.080   8.543  0.2207 -0.4593 -0.0033
  172SOPE  C21719485   4.170   1.000   8.520 -0.0722 -0.3917 -1.0125
  172SOPE  H17R19486   4.187   0.894   8.491  1.0762 -0.4423 -0.1970
  172SOPE  H17S19487   4.074   1.029   8.471 -1.8308 -2.5689  0.9718
  172SOPE  C21819488   4.153   1.016   8.673  0.3566  0.8144  0.2124
  172SOPE  H18R19489   4.108   0.920   8.704 -1.2822  1.0364 -1.3410
  172SOPE  H18S19490   4.075   1.094   8.686  0.2232  0.3792  2.4655
  172SOPE  H18T19491   4.251   1.046   8.717  1.0363  2.3524 -2.1832
  172SOPE   C3319492   3.866   1.251   7.308  0.0958  0.3177  0.0561
  172SOPE   H3X19493   3.761   1.288   7.307  0.2222  0.6763 -0.7951
  172SOPE   H3Y19494   3.911   1.338   7.361 -1.8496  0.7533  1.1033
  172SOPE   C3419495   3.884   1.117   7.370 -0.1875 -0.5551 -0.2180
  172SOPE   H4X19496   3.993   1.094   7.363 -0.2119 -0.7620  0.0960
  172SOPE   H4Y19497   3.835   1.042   7.305 -0.1039  0.8792 -2.0338
  172SOPE   C3519498   3.820   1.107   7.502  0.7728  0.7113  0.1428
  172SOPE   H5X19499   3.820   1.002   7.540  0.8467  0.0827 -1.5253
  172SOPE   H5Y19500   3.715   1.138   7.488  0.1376 -1.5754 -0.4832
  172SOPE   C3619501   3.881   1.196   7.612  0.3238 -0.5419  0.0620
  172SOPE   H6X19502   3.879   1.300   7.573 -1.1463  0.1570  1.8554
  172SOPE   H6Y19503   3.988   1.183   7.638  0.3409  3.0824  2.4635
  172SOPE   C3719504   3.802   1.190   7.749 -0.7711 -0.8784  0.8342
  172SOPE   H7X19505   3.691   1.188   7.742 -0.8628  1.1314  0.9907
  172SOPE   H7Y19506   3.833   1.281   7.806  0.7110 -0.6471 -0.2747
  172SOPE   C3819507   3.842   1.073   7.842 -0.1824  1.1518 -0.1949
  172SOPE   H8X19508   3.946   1.093   7.875  0.3057 -0.7091 -0.5038
  172SOPE   H8Y19509   3.841   0.972   7.795 -1.7919  2.2856 -2.8428
  172SOPE   C3919510   3.742   1.069   7.955 -0.6687 -0.1765 -0.1357
  172SOPE   H9X19511   3.658   1.024   7.899 -0.1546  0.3549 -1.3575
  172SOPE   H9Y19512   3.721   1.171   7.996  0.6144  0.0772 -0.0656
  172SOPE  C31019513   3.778   0.967   8.067  0.6096  0.0843 -0.8308
  172SOPE  H10X19514   3.833   0.881   8.024  0.9561 -0.2758  0.2809
  172SOPE  H10Y19515   3.691   0.932   8.126 -0.0645  2.4166 -0.3166
  172SOPE  C31119516   3.878   1.032   8.165 -0.5424  0.1473 -0.5248
  172SOPE  H11X19517   3.956   1.100   8.123  0.3872 -0.9484 -0.6317
  172SOPE  H11Y19518   3.933   0.950   8.217 -0.8938 -0.7472 -1.5348
  172SOPE  C31219519   3.801   1.136   8.261  0.2432 -0.3818 -0.6906
  172SOPE  H12X19520   3.734   1.071   8.321  0.8935 -2.3135 -1.9334
  172SOPE  H12Y19521   3.730   1.193   8.198 -1.1796 -1.0790  0.2392
  172SOPE  C31319522   3.900   1.225   8.334  0.5995  1.3753 -0.6070
  172SOPE  H13X19523   3.949   1.276   8.249  2.2979  2.1246  0.7777
  172SOPE  H13Y19524   3.980   1.163   8.379 -0.1141  1.7056  1.2148
  172SOPE  C31419525   3.832   1.336   8.416 -0.0072  1.0000  0.5934
  172SOPE  H14X19526   3.761   1.386   8.346 -2.0822  0.0971  1.9329
  172SOPE  H14Y19527   3.901   1.418   8.445 -0.2966  1.3081  0.4278
  172SOPE  C31519528   3.753   1.289   8.540 -0.0479 -0.1996  1.1305
  172SOPE  H15X19529   3.816   1.214   8.592  1.2806  0.4037  0.4281
  172SOPE  H15Y19530   3.656   1.242   8.510  0.6347 -1.2624  0.5063
  172SOPE  C31619531   3.702   1.412   8.624 -0.2839  0.2491 -0.1949
  172SOPE  H16X19532   3.625   1.369   8.693  0.9126  0.5484  1.3716
  172SOPE  H16Y19533   3.652   1.491   8.564 -1.3816  0.2796  0.7161
  172SOPE  C31719534   3.811   1.473   8.710  0.5667  0.1616  0.6836
  172SOPE  H17X19535   3.887   1.522   8.646 -1.7562  1.3753 -1.2768
  172SOPE  H17Y19536   3.869   1.395   8.765 -0.4007 -0.3217  1.0484
  172SOPE  C31819537   3.750   1.569   8.810 -0.4067  0.5234  0.3849
  172SOPE  H18X19538   3.673   1.628   8.756 -0.0058  0.1816 -0.5713
  172SOPE  H18Y19539   3.815   1.652   8.846  1.5010 -0.7882  0.0646
  172SOPE  H18Z19540   3.702   1.518   8.897 -1.3556  0.0372 -0.3937
  173SAPI   C1219541   6.238   4.479  11.090 -0.2113 -0.2939  0.8070
  173SAPI    H219542   6.130   4.455  11.077  0.0836 -1.3279  0.0907
  173SAPI    O219543   6.243   4.573  11.197  0.1963 -0.2508 -0.1369
  173SAPI   HO219544   6.198   4.541  11.275  0.6079  1.5881  0.9263
  173SAPI   C1319545   6.317   4.357  11.122  0.0140  0.0761 -0.5292
  173SAPI    H319546   6.311   4.292  11.033  0.5576 -0.9565  0.1668
  173SAPI    O319547   6.259   4.289  11.237  0.3816  0.2156 -0.1286
  173SAPI   HO319548   6.180   4.241  11.211  1.4786 -2.8806  1.6719
  173SAPI   C1419549   6.459   4.391  11.140 -0.7646  0.6359 -0.6982
  173SAPI    H419550   6.468   4.468  11.219 -0.9922 -0.4237  0.3927
  173SAPI    O419551   6.527   4.276  11.186 -0.1340 -0.2045  0.7565
  173SAPI   HO419552   6.510   4.211  11.117 -1.8926  0.1069  0.8666
  173SAPI   C1519553   6.516   4.449  11.014  0.2304  0.9269  0.5052
  173SAPI    H519554   6.517   4.370  10.935 -1.1190  0.7263  0.6715
  173SAPI    O519555   6.646   4.502  11.037 -0.1235  0.1534  0.6813
  173SAPI   HO519556   6.717   4.451  10.997  2.1059  3.2896  0.3091
  173SAPI   C1619557   6.431   4.566  10.965  0.4139  0.1516 -0.3235
  173SAPI    H619558   6.434   4.658  11.027  0.1663  0.0576 -0.1692
  173SAPI    O619559   6.477   4.604  10.836 -0.2021  0.2632  0.1356
  173SAPI   HO619560   6.465   4.696  10.812  2.7628  0.5357 -0.6976
  173SAPI   C1119561   6.279   4.534  10.956  0.2230 -0.8183  0.5771
  173SAPI    H119562   6.269   4.451  10.883  0.0028 -0.8039  0.5883
  173SAPI     P19563   6.079   4.634  10.811  0.0924  0.0783 -0.1215
  173SAPI   O1319564   6.014   4.766  10.796  0.4585  0.2510  0.0610
  173SAPI   O1419565   5.997   4.511  10.827 -0.1809 -0.4071 -0.1839
  173SAPI   O1219566   6.192   4.648  10.922  0.4727  0.2766 -0.5058
  173SAPI   O1119567   6.168   4.608  10.687 -0.0617  0.5842 -0.3465
  173SAPI    C119568   6.207   4.492  10.621 -0.1288 -0.5340 -0.3037
  173SAPI    HA19569   6.316   4.476  10.633 -0.0567 -1.3886 -1.8656
  173SAPI    HB19570   6.148   4.402  10.649 -3.3495  1.6160  0.4197
  173SAPI    C219571   6.180   4.502  10.467 -0.3053  0.0649 -0.2915
  173SAPI    HS19572   6.192   4.407  10.412 -0.8923 -0.2910  0.1788
  173SAPI   O2119573   6.260   4.603  10.406 -0.3796 -0.4585  0.2155
  173SAPI   C2119574   6.382   4.561  10.374  0.2923  0.2003  1.0254
  173SAPI   O2219575   6.419   4.444  10.383  0.0565  0.1299  0.4432
  173SAPI   C2219576   6.471   4.683  10.349  0.0220 -0.3417 -0.7484
  173SAPI   H2R19577   6.420   4.769  10.399 -1.7341 -0.5697 -2.0477
  173SAPI   H2S19578   6.569   4.670  10.400 -0.1936 -0.0788 -0.2570
  173SAPI    C319579   6.026   4.544  10.459  0.2462 -0.0310  0.1878
  173SAPI    HX19580   6.014   4.646  10.501  1.2306  0.0082  0.4035
  173SAPI    HY19581   5.963   4.480  10.525  1.8039 -1.5097  0.3195
  173SAPI   O3119582   5.984   4.554  10.323  0.4754  0.6397 -0.3111
  173SAPI   C3119583   5.959   4.440  10.259  0.4700  0.3170 -0.6351
  173SAPI   O3219584   5.949   4.333  10.312  0.1368 -0.0606  0.3504
  173SAPI   C3219585   5.937   4.466  10.108 -0.1882 -0.0469 -0.2943
  173SAPI   H2X19586   5.931   4.576  10.093 -1.1458 -0.0971 -0.3667
  173SAPI   H2Y19587   5.849   4.405  10.078  0.5243 -1.7187  0.8445
  173SAPI   C2319588   6.512   4.720  10.210 -0.4075 -0.7353  0.7947
  173SAPI   H3R19589   6.569   4.815  10.205 -0.3951 -0.8026 -2.6558
  173SAPI   H3S19590   6.420   4.720  10.147 -1.1670 -2.5042  1.8192
  173SAPI   C2419591   6.597   4.613  10.143 -0.2893 -0.6824 -0.1954
  173SAPI   H4R19592   6.610   4.638  10.036  5.4619  0.0565  0.3559
  173SAPI   H4S19593   6.556   4.511  10.159  0.3831 -1.0879 -0.9654
  173SAPI   C2519594   6.736   4.610  10.198 -0.1545 -0.5710  0.9837
  173SAPI   H5R19595   6.748   4.572  10.301 -0.7060  2.0488  2.0728
  173SAPI   C2619596   6.852   4.647  10.131 -0.4230  0.8321  0.1398
  173SAPI   H6R19597   6.950   4.637  10.180  0.1171  0.0252 -1.0300
  173SAPI   C2719598   6.857   4.707   9.987 -0.5575 -0.0069 -0.4586
  173SAPI   H7R19599   6.950   4.768   9.975  1.8913 -3.1445  1.1699
  173SAPI   H7S19600   6.770   4.775   9.980  0.7671  2.7609  4.6036
  173SAPI   C2819601   6.839   4.616   9.868  0.7777  0.8854 -0.2556
  173SAPI   H8R19602   6.878   4.513   9.877 -2.2386 -0.2562  0.8416
  173SAPI   C2919603   6.798   4.651   9.745  1.2997 -0.3213  0.1302
  173SAPI   H9R19604   6.799   4.587   9.656  0.2072  0.1332 -0.2229
  173SAPI  C21019605   6.765   4.793   9.693 -0.3494  0.2778  0.4628
  173SAPI  H10R19606   6.760   4.864   9.779  0.7789  0.0517  0.7301
  173SAPI  H10S19607   6.663   4.784   9.650  0.6143  3.3641 -2.9748
  173SAPI  C21119608   6.863   4.844   9.586 -0.0911  0.0727  0.1488
  173SAPI  H11R19609   6.937   4.911   9.633 -2.7276  1.0654  3.2179
  173SAPI  C21219610   6.866   4.826   9.450 -0.2828  0.3886 -0.3591
  173SAPI  H12R19611   6.953   4.867   9.396 -0.0476 -1.9832 -1.9285
  173SAPI  C21319612   6.768   4.747   9.361 -0.0025 -0.7117  0.2077
  173SAPI  H13R19613   6.756   4.804   9.266 -2.9086 -0.1777  0.8251
  173SAPI  H13S19614   6.665   4.752   9.400 -0.3264 -1.2103 -0.5573
  173SAPI  C21419615   6.804   4.602   9.354  0.6387  0.0640 -0.1574
  173SAPI  H14R19616   6.795   4.548   9.450 -1.8757  0.7758  0.0660
  173SAPI  C21519617   6.843   4.532   9.246 -0.7820 -0.6642 -0.2301
  173SAPI  H15R19618   6.881   4.429   9.248  0.1574 -0.3664 -1.5534
  173SAPI  C21619619   6.851   4.600   9.114  0.2385  0.6449  0.0596
  173SAPI  H16R19620   6.938   4.668   9.110  0.4358  0.4749  1.1377
  173SAPI  H16S19621   6.758   4.660   9.099 -0.3462 -0.3907 -0.5593
  173SAPI  C21719622   6.865   4.492   9.013  0.1610 -0.2123  0.4268
  173SAPI  H17R19623   6.783   4.416   9.016  2.0188 -2.2906  0.7214
  173SAPI  H17S19624   6.961   4.439   9.026 -1.0084 -1.9659  2.6673
  173SAPI  C21819625   6.875   4.556   8.877  0.5590 -0.7377 -0.3037
  173SAPI  H18R19626   6.971   4.609   8.859  0.4073 -0.5158 -0.4716
  173SAPI  H18S19627   6.803   4.641   8.874  1.3376 -0.1058 -1.9452
  173SAPI  C21919628   6.856   4.472   8.759 -0.9669  0.0199  0.2419
  173SAPI  H19R19629   6.750   4.440   8.757 -0.7152 -0.8797  0.7699
  173SAPI  H19S19630   6.913   4.376   8.763  2.3789  1.8440  0.2990
  173SAPI  C22019631   6.896   4.543   8.630  0.3188 -0.3892  0.2172
  173SAPI  H20R19632   6.856   4.492   8.540 -0.8158  0.1940  0.3707
  173SAPI  H20S19633   7.006   4.561   8.621  0.1346  0.3670 -0.6697
  173SAPI  H20T19634   6.845   4.641   8.621 -1.7549 -1.4360  0.1061
  173SAPI   C3319635   6.063   4.414  10.029  0.1863 -0.4646  0.5489
  173SAPI   H3X19636   6.047   4.374   9.926 -1.7532  0.2391  0.5381
  173SAPI   H3Y19637   6.121   4.335  10.081 -0.1259 -0.3793  1.0278
  173SAPI   C3419638   6.158   4.537  10.004 -0.3638  0.1272  0.1298
  173SAPI   H4X19639   6.202   4.563  10.102 -1.2668  0.9659  0.3279
  173SAPI   H4Y19640   6.115   4.634   9.973  2.3327  1.6677  0.8389
  173SAPI   C3519641   6.274   4.528   9.900  0.5456 -0.0867 -0.3387
  173SAPI   H5X19642   6.315   4.425   9.914 -2.4849 -1.2857  0.5471
  173SAPI   H5Y19643   6.350   4.606   9.923  0.8958 -0.5346  0.0683
  173SAPI   C3619644   6.231   4.538   9.756  0.0091 -0.0285 -0.5330
  173SAPI   H6X19645   6.175   4.632   9.736 -1.3392 -0.7971 -0.4997
  173SAPI   H6Y19646   6.161   4.455   9.730 -0.4021  0.4160 -0.8627
  173SAPI   C3719647   6.350   4.532   9.657  0.3144 -0.5308 -0.8923
  173SAPI   H7X19648   6.391   4.428   9.653  1.1386 -0.2008 -1.1490
  173SAPI   H7Y19649   6.428   4.603   9.692 -1.2103  1.0709 -0.6223
  173SAPI   C3819650   6.303   4.556   9.512  0.1399  0.3087  0.4840
  173SAPI   H8X19651   6.258   4.658   9.515 -0.7679  0.0299 -1.5060
  173SAPI   H8Y19652   6.217   4.489   9.491 -0.1290  1.0085 -0.8059
  173SAPI   C3919653   6.410   4.542   9.410  0.5346 -0.7831 -0.0112
  173SAPI   H9X19654   6.451   4.439   9.418  1.1967 -0.5136  0.1156
  173SAPI   H9Y19655   6.493   4.608   9.445 -1.5194  2.2522 -0.4462
  173SAPI  C31019656   6.362   4.572   9.265 -0.5462 -0.6616  0.4642
  173SAPI  H10X19657   6.345   4.681   9.252  0.2504 -0.7144 -1.1702
  173SAPI  H10Y19658   6.261   4.528   9.251 -0.0535 -1.5001 -0.5714
  173SAPI  C31119659   6.454   4.529   9.151 -0.3173 -0.1801 -0.3071
  173SAPI  H11X19660   6.470   4.420   9.156 -0.9661 -0.2922 -0.5342
  173SAPI  H11Y19661   6.553   4.577   9.163 -0.3336  0.0481 -1.0183
  173SAPI  C31219662   6.386   4.554   9.017 -0.4070  0.0898  0.4648
  173SAPI  H12X19663   6.342   4.655   9.006  1.8777  1.0985  0.0217
  173SAPI  H12Y19664   6.297   4.488   9.015 -0.6267  0.2921  2.2169
  173SAPI  C31319665   6.473   4.530   8.888 -0.0481  1.0729  0.1177
  173SAPI  H13X19666   6.520   4.430   8.897 -1.5338  0.3377 -0.0574
  173SAPI  H13Y19667   6.555   4.604   8.875  0.6990  0.5993  1.9073
  173SAPI  C31419668   6.386   4.519   8.760 -0.7302  0.4936  0.4967
  173SAPI  H14X19669   6.343   4.620   8.749 -1.8961 -0.0407 -0.0758
  173SAPI  H14Y19670   6.309   4.438   8.764 -0.9156  0.6712  0.5520
  173SAPI  C31519671   6.473   4.486   8.632  0.1929  0.6755  0.3287
  173SAPI  H15X19672   6.531   4.394   8.652 -0.7878 -0.4837 -1.8516
  173SAPI  H15Y19673   6.549   4.567   8.638 -0.5249  1.2456  3.5800
  173SAPI  C31619674   6.395   4.479   8.502 -0.5285  0.4864 -0.2041
  173SAPI  H16X19675   6.463   4.493   8.415 -1.2329  0.5610 -0.7529
  173SAPI  H16Y19676   6.321   4.562   8.504 -1.1810  0.0641 -2.9292
  173SAPI  C31719677   6.314   4.351   8.484  0.0055 -0.0640 -0.4955
  173SAPI  H17X19678   6.230   4.371   8.414 -0.2996  2.9174  0.5654
  173SAPI  H17Y19679   6.255   4.336   8.577  1.5567  0.1166  0.5441
  173SAPI  C31819680   6.390   4.225   8.449 -0.5134 -0.9341 -0.0457
  173SAPI  H18X19681   6.453   4.212   8.540 -0.3938 -0.0353  0.0084
  173SAPI  H18Y19682   6.455   4.233   8.359 -0.0398  0.5949  0.3955
  173SAPI  H18Z19683   6.317   4.142   8.442 -0.4528 -1.0139  0.2457
  174SAPI   C1219684   3.241   6.228  10.604  0.4152 -0.2999 -0.7357
  174SAPI    H219685   3.203   6.320  10.556  1.2758  0.0387 -0.7807
  174SAPI    O219686   3.138   6.138  10.640 -0.0983  0.1042  0.5084
  174SAPI   HO219687   3.049   6.168  10.619 -1.6456 -1.6978  3.7346
  174SAPI   C1319688   3.335   6.160  10.504 -0.4362 -0.1861  0.4955
  174SAPI    H319689   3.408   6.241  10.487  0.2383 -0.6539  1.0755
  174SAPI    O319690   3.269   6.134  10.376 -0.1041  0.1934  1.0125
  174SAPI   HO319691   3.197   6.071  10.384 -2.1982  2.0556 -1.5677
  174SAPI   C1419692   3.404   6.037  10.571  0.0686 -0.4970 -0.0669
  174SAPI    H419693   3.324   5.966  10.599  0.2296 -0.9293 -0.6871
  174SAPI    O419694   3.489   5.968  10.482  0.6567 -0.2557  0.5239
  174SAPI   HO419695   3.433   5.897  10.447 -0.2572 -0.3841  2.1362
  174SAPI   C1519696   3.489   6.087  10.689  0.0328 -0.0005  0.7850
  174SAPI    H519697   3.561   6.156  10.641  1.2591 -0.4871  1.8479
  174SAPI    O519698   3.555   5.977  10.756 -0.3194 -0.5102  0.1780
  174SAPI   HO519699   3.615   6.021  10.817 -0.1126 -0.0844 -0.3291
  174SAPI   C1619700   3.406   6.170  10.791 -0.5989  0.7328  0.4197
  174SAPI    H619701   3.345   6.093  10.843 -0.1138 -0.5974 -0.9005
  174SAPI    O619702   3.497   6.231  10.884  0.3303  0.0258 -0.7107
  174SAPI   HO619703   3.477   6.199  10.972  1.1700 -0.8929 -0.8299
  174SAPI   C1119704   3.321   6.273  10.729  0.2248 -1.3207 -0.2789
  174SAPI    H119705   3.389   6.355  10.696 -2.5921  1.3897  0.1647
  174SAPI     P19706   3.199   6.494  10.834  0.0632  0.1135  0.2821
  174SAPI   O1319707   3.319   6.573  10.856 -0.1242  0.3670  0.5824
  174SAPI   O1419708   3.092   6.508  10.936 -0.6124 -0.3415 -0.2394
  174SAPI   O1219709   3.236   6.332  10.820  0.3685  0.5163  0.1668
  174SAPI   O1119710   3.146   6.541  10.693 -0.4359  0.0369  0.2057
  174SAPI    C119711   3.017   6.493  10.648  0.1136  0.4812 -0.3394
  174SAPI    HA19712   3.008   6.383  10.638 -0.2814  0.4175  0.6353
  174SAPI    HB19713   2.936   6.518  10.720  0.5410 -1.0589  0.7244
  174SAPI    C219714   2.966   6.568  10.521 -0.5345  0.1741  0.2987
  174SAPI    HS19715   2.858   6.547  10.509 -0.0537 -2.7110  0.3585
  174SAPI   O2119716   3.036   6.527  10.405 -0.1980  0.5260 -0.2836
  174SAPI   C2119717   3.014   6.401  10.360  0.5376 -0.3992 -0.7699
  174SAPI   O2219718   2.933   6.321  10.410  0.4593  0.1680 -0.4256
  174SAPI   C2219719   3.096   6.373  10.237 -0.6912 -0.2220  0.2146
  174SAPI   H2R19720   3.133   6.461  10.180  1.2603 -0.2177  1.4026
  174SAPI   H2S19721   3.194   6.336  10.274 -0.6495  0.5038  0.8663
  174SAPI    C319722   2.983   6.725  10.537  0.2721  0.6215  0.7641
  174SAPI    HX19723   3.090   6.740  10.563  0.6173  0.2504 -0.3729
  174SAPI    HY19724   2.920   6.745  10.626  0.2438 -0.2144  0.9439
  174SAPI   O3119725   2.937   6.799  10.421 -0.0634  0.2978  0.6369
  174SAPI   C3119726   3.021   6.810  10.323 -0.4170 -0.5017  0.0139
  174SAPI   O3219727   3.137   6.770  10.316 -0.4975  0.3840  0.5157
  174SAPI   C3219728   2.966   6.886  10.204  0.5138  0.4874  0.1101
  174SAPI   H2X19729   2.935   6.987  10.237 -1.6198  0.0452 -0.4129
  174SAPI   H2Y19730   2.871   6.830  10.187  1.5987 -1.9469  1.4802
  174SAPI   C2319731   3.030   6.291  10.130  0.9443  0.4185  0.2133
  174SAPI   H3R19732   3.015   6.187  10.167  1.0983 -0.1994 -1.3771
  174SAPI   H3S19733   3.095   6.281  10.041 -0.0575 -3.9183 -0.2561
  174SAPI   C2419734   2.899   6.342  10.064  0.3462 -0.4036  0.7517
  174SAPI   H4R19735   2.829   6.378  10.143 -1.5987  2.1878 -1.9418
  174SAPI   H4S19736   2.861   6.253  10.009  0.9235 -0.1910 -0.0103
  174SAPI   C2519737   2.937   6.458   9.974  0.2032 -0.6182  0.1311
  174SAPI   H5R19738   3.002   6.533  10.021  0.0763 -0.7281  0.4875
  174SAPI   C2619739   2.908   6.476   9.843  0.8500 -0.0120 -0.1306
  174SAPI   H6R19740   2.953   6.553   9.779  1.5055  1.7594  2.3391
  174SAPI   C2719741   2.812   6.384   9.763  0.1922 -0.2803  0.0507
  174SAPI   H7R19742   2.734   6.449   9.718  0.3646  0.9822  1.4782
  174SAPI   H7S19743   2.748   6.317   9.824  0.1958 -1.1148 -0.8455
  174SAPI   C2819744   2.866   6.292   9.655 -0.9317  0.1260  0.3313
  174SAPI   H8R19745   2.880   6.187   9.684 -0.8731  0.2118  0.6137
  174SAPI   C2919746   2.890   6.325   9.524 -0.1300 -0.4124 -0.6350
  174SAPI   H9R19747   2.946   6.248   9.469  2.1459  1.2429 -0.7978
  174SAPI  C21019748   2.883   6.461   9.457  0.3804 -0.0971  0.1743
  174SAPI  H10R19749   2.866   6.542   9.531 -1.0796 -0.1415 -0.0730
  174SAPI  H10S19750   2.803   6.456   9.380  0.0791 -0.1397  0.4866
  174SAPI  C21119751   3.012   6.491   9.388  0.9549 -0.6834  0.4803
  174SAPI  H11R19752   3.101   6.496   9.451 -0.1633 -2.9977  2.4075
  174SAPI  C21219753   3.012   6.528   9.255 -0.2063  0.0470  0.5100
  174SAPI  H12R19754   3.106   6.548   9.200 -0.5949 -0.0745 -0.2146
  174SAPI  C21319755   2.894   6.538   9.157  0.4838  0.3413  0.6979
  174SAPI  H13R19756   2.898   6.633   9.100 -0.0508 -0.4793 -0.7515
  174SAPI  H13S19757   2.799   6.549   9.214  0.3204  1.6197  0.2119
  174SAPI  C21419758   2.877   6.420   9.059  0.6182 -0.3493  0.1650
  174SAPI  H14R19759   2.829   6.329   9.098  0.4520  0.0278  0.8480
  174SAPI  C21519760   2.937   6.424   8.935  0.2603 -0.0049  0.0900
  174SAPI  H15R19761   2.911   6.348   8.860  1.2699  0.0652 -0.3524
  174SAPI  C21619762   3.023   6.534   8.888  0.0263 -0.2286  0.5497
  174SAPI  H16R19763   3.092   6.493   8.811  0.0178 -0.9765  0.9299
  174SAPI  H16S19764   3.090   6.587   8.959 -1.1430  1.5446  0.3912
  174SAPI  C21719765   2.933   6.639   8.818  0.5650  0.3514  0.8871
  174SAPI  H17R19766   2.849   6.656   8.889 -1.7842 -1.4003 -1.3062
  174SAPI  H17S19767   2.901   6.592   8.723  1.3406 -0.1944  0.8851
  174SAPI  C21819768   3.018   6.765   8.787  0.0116  0.7451 -0.7845
  174SAPI  H18R19769   3.103   6.743   8.719  0.0330 -0.2090 -0.4686
  174SAPI  H18S19770   3.062   6.809   8.879  1.9729  1.8818 -2.1978
  174SAPI  C21919771   2.938   6.881   8.726  0.6860  0.6596 -0.5815
  174SAPI  H19R19772   3.009   6.966   8.726  0.3997  0.9077  0.6385
  174SAPI  H19S19773   2.849   6.912   8.785 -0.1464  0.9419 -1.9282
  174SAPI  C22019774   2.898   6.864   8.578 -0.3372 -0.4219  0.4935
  174SAPI  H20R19775   2.803   6.806   8.580  0.1466 -1.2515  0.0609
  174SAPI  H20S19776   2.966   6.794   8.526  0.6093 -0.4703  1.7293
  174SAPI  H20T19777   2.895   6.959   8.520  2.5709  0.5028  1.6656
  174SAPI   C3319778   3.070   6.884  10.091 -0.4248  0.4973  0.5670
  174SAPI   H3X19779   3.119   6.789  10.060 -0.1996  0.8037 -0.0303
  174SAPI   H3Y19780   3.157   6.945  10.125  0.1533  0.1214 -0.2005
  174SAPI   C3419781   3.014   6.955   9.976  0.2983 -1.0861 -0.5921
  174SAPI   H4X19782   3.097   6.968   9.903  1.0215  0.0053  0.3714
  174SAPI   H4Y19783   2.970   7.050  10.014  1.1655 -0.4033 -1.2489
  174SAPI   C3519784   2.897   6.896   9.900  0.1717  0.3803 -0.4432
  174SAPI   H5X19785   2.805   6.928   9.955 -0.4841 -0.8949 -0.7533
  174SAPI   H5Y19786   2.895   6.785   9.910 -1.7167  0.4150 -0.0389
  174SAPI   C3619787   2.890   6.936   9.749 -0.2103  0.5203  0.4389
  174SAPI   H6X19788   2.907   7.045   9.762 -0.8037  0.4609  2.0031
  174SAPI   H6Y19789   2.790   6.922   9.703  0.5966  0.0618 -1.2429
  174SAPI   C3719790   2.998   6.869   9.666  0.6313  0.7017  0.1159
  174SAPI   H7X19791   2.978   6.760   9.658  0.7274  0.7352 -0.6580
  174SAPI   H7Y19792   3.099   6.881   9.711  1.1148 -2.8883  0.3380
  174SAPI   C3819793   2.995   6.909   9.521  0.4981  0.1244  0.2913
  174SAPI   H8X19794   2.981   7.019   9.510 -0.7740 -0.2069 -1.9735
  174SAPI   H8Y19795   2.911   6.856   9.471  1.8361 -1.0036 -0.8478
  174SAPI   C3919796   3.131   6.873   9.458  0.0780 -0.7819 -0.1453
  174SAPI   H9X19797   3.153   6.769   9.492 -1.0179 -1.0258 -0.1527
  174SAPI   H9Y19798   3.208   6.941   9.501 -0.6151 -0.6400  0.9245
  174SAPI  C31019799   3.116   6.889   9.306 -0.1504 -0.2949 -0.1803
  174SAPI  H10X19800   3.027   6.950   9.278  0.0957  0.8766  1.4756
  174SAPI  H10Y19801   3.096   6.786   9.268  1.5145 -0.4535 -0.6715
  174SAPI  C31119802   3.233   6.950   9.231 -0.0372  0.0161  0.4774
  174SAPI  H11X19803   3.326   6.928   9.288  0.3990  1.3229  0.3096
  174SAPI  H11Y19804   3.228   7.061   9.238  1.9946  0.1735 -0.1314
  174SAPI  C31219805   3.236   6.908   9.078 -0.9373  0.3947  0.0019
  174SAPI  H12X19806   3.146   6.947   9.026  0.0901 -0.3046 -2.4464
  174SAPI  H12Y19807   3.236   6.801   9.048 -0.5185  0.7853 -1.4642
  174SAPI  C31319808   3.358   6.972   9.012 -0.1151  0.1292 -0.9693
  174SAPI  H13X19809   3.449   6.936   9.066 -1.2823  1.9828  2.5505
  174SAPI  H13Y19810   3.344   7.082   9.013 -1.3814 -0.0085  0.9003
  174SAPI  C31419811   3.369   6.935   8.867 -0.7728 -0.3838  0.3674
  174SAPI  H14X19812   3.275   6.966   8.817 -0.2183 -0.0349 -0.4763
  174SAPI  H14Y19813   3.385   6.825   8.859  0.8653 -0.0440 -1.7842
  174SAPI  C31519814   3.486   6.999   8.790  0.1209 -1.0147 -0.3447
  174SAPI  H15X19815   3.583   6.967   8.834  0.5209  2.3957  1.5993
  174SAPI  H15Y19816   3.481   7.109   8.798 -2.8570 -1.0458 -0.6862
  174SAPI  C31619817   3.474   6.973   8.640  0.1423 -1.2362 -0.0991
  174SAPI  H16X19818   3.368   6.996   8.614  1.3102  1.6156 -2.9709
  174SAPI  H16Y19819   3.481   6.864   8.618 -2.6476 -1.4149 -0.5192
  174SAPI  C31719820   3.564   7.051   8.554 -0.0710 -0.2384 -0.8581
  174SAPI  H17X19821   3.669   7.023   8.576 -0.4199 -0.9262 -0.0453
  174SAPI  H17Y19822   3.552   7.161   8.564  1.1195 -0.1115 -0.7639
  174SAPI  C31819823   3.548   7.017   8.407 -0.0967 -0.1811  0.1422
  174SAPI  H18X19824   3.598   7.099   8.351  1.1724  0.2896  1.8664
  174SAPI  H18Y19825   3.444   7.020   8.368  0.4477  0.7830 -1.3082
  174SAPI  H18Z19826   3.601   6.923   8.380  3.4035  1.3755  0.9847
  175SAPI   C1219827   6.814   4.832   5.886 -0.1707 -0.8192  0.6399
  175SAPI    H219828   6.849   4.878   5.982 -1.7962  0.6322  0.5902
  175SAPI    O219829   6.708   4.914   5.836  0.1334  0.3037 -0.1149
  175SAPI   HO219830   6.760   4.975   5.785 -1.7245  0.7612 -1.5438
  175SAPI   C1319831   6.922   4.835   5.781 -0.1991  0.9498 -0.7320
  175SAPI    H319832   7.013   4.784   5.820 -0.7881  0.4812  0.0664
  175SAPI    O319833   6.956   4.974   5.755 -0.5017 -0.3862  0.1286
  175SAPI   HO319834   7.000   4.971   5.670  0.1518 -1.3976  0.4862
  175SAPI   C1419835   6.887   4.762   5.649 -0.0399 -1.3417  0.1308
  175SAPI    H419836   6.799   4.805   5.598 -0.1477 -2.4897 -0.6826
  175SAPI    O419837   7.004   4.771   5.563 -0.0230  0.3247  0.0564
  175SAPI   HO419838   6.984   4.777   5.469  1.2588 -2.3398 -0.4616
  175SAPI   C1519839   6.841   4.620   5.675  0.2917 -0.7172 -0.0094
  175SAPI    H519840   6.922   4.559   5.721  0.8476  1.3965  2.0110
  175SAPI    O519841   6.802   4.551   5.555 -0.0065 -0.0702  0.2051
  175SAPI   HO519842   6.875   4.550   5.493  0.4734 -0.5229  0.7554
  175SAPI   C1619843   6.729   4.622   5.782  0.1642 -0.2138 -0.5795
  175SAPI    H619844   6.638   4.662   5.731 -0.7365  0.8912  1.7457
  175SAPI    O619845   6.698   4.488   5.812  0.0119 -0.5001 -0.0280
  175SAPI   HO619846   6.602   4.484   5.821 -0.2625 -0.2504 -2.2725
  175SAPI   C1119847   6.773   4.688   5.911 -0.3272  0.9191 -0.0782
  175SAPI    H119848   6.862   4.634   5.951 -0.3130  1.0563  0.0738
  175SAPI     P19849   6.666   4.600   6.147  0.2096 -0.0054 -0.0046
  175SAPI   O1319850   6.751   4.479   6.134 -0.4270  0.1016  0.3599
  175SAPI   O1419851   6.521   4.578   6.172  0.3827  0.3311  0.0672
  175SAPI   O1219852   6.671   4.688   6.007 -0.6703 -0.7607  0.0782
  175SAPI   O1119853   6.711   4.701   6.257  0.5443 -0.3186 -0.4317
  175SAPI    C119854   6.718   4.844   6.240 -0.0286 -0.2513  0.1764
  175SAPI    HA19855   6.794   4.865   6.162  0.1667  0.0692  0.4545
  175SAPI    HB19856   6.618   4.877   6.203 -0.0093 -0.5236 -0.1291
  175SAPI    C219857   6.758   4.911   6.376 -0.1618  0.4177 -0.9709
  175SAPI    HS19858   6.726   5.018   6.379 -0.0082  0.4356  0.3946
  175SAPI   O2119859   6.897   4.890   6.404 -0.6874 -0.1482  0.4038
  175SAPI   C2119860   6.986   4.991   6.390 -0.0793  0.5320 -0.1258
  175SAPI   O2219861   6.961   5.106   6.364  0.3169 -0.3425  0.5749
  175SAPI   C2219862   7.127   4.918   6.395  0.7321 -0.9639  0.2095
  175SAPI   H2R19863   7.127   4.836   6.320 -0.7204  2.3782 -3.8847
  175SAPI   H2S19864   7.214   4.979   6.361 -0.1019 -1.2738 -2.7257
  175SAPI    C319865   6.675   4.852   6.488  0.1990 -0.2685  0.1017
  175SAPI    HX19866   6.691   4.743   6.504 -2.3608 -0.6165  0.7360
  175SAPI    HY19867   6.567   4.862   6.463 -0.4058 -1.9655  1.8075
  175SAPI   O3119868   6.715   4.903   6.617  0.7036  0.7709 -0.4091
  175SAPI   C3119869   6.615   4.969   6.673 -0.3278  0.0614 -1.1239
  175SAPI   O3219870   6.496   4.960   6.643 -0.6252 -0.2417 -0.3169
  175SAPI   C3219871   6.660   5.078   6.773 -0.0578 -0.2522 -0.0885
  175SAPI   H2X19872   6.569   5.139   6.787 -0.2358 -0.2288 -1.2185
  175SAPI   H2Y19873   6.731   5.147   6.721  0.3858 -0.2381  0.5222
  175SAPI   C2319874   7.141   4.871   6.546  0.3286 -0.1922  0.5767
  175SAPI   H3R19875   7.041   4.846   6.588 -0.9999 -1.3276 -2.9245
  175SAPI   H3S19876   7.183   4.956   6.604  0.1060  0.5042 -0.2530
  175SAPI   C2419877   7.232   4.748   6.558  0.9620 -0.1291  0.2641
  175SAPI   H4R19878   7.322   4.764   6.494  1.0220  2.2640  0.8602
  175SAPI   H4S19879   7.186   4.659   6.512 -0.5466  0.0727  1.3157
  175SAPI   C2519880   7.284   4.721   6.703 -0.1229  0.0563  0.4912
  175SAPI   H5R19881   7.391   4.744   6.713 -0.1925 -0.4415  2.9852
  175SAPI   C2619882   7.210   4.678   6.805  0.2150 -0.6931 -0.3061
  175SAPI   H6R19883   7.261   4.677   6.903 -0.2188 -1.3315 -0.0819
  175SAPI   C2719884   7.057   4.651   6.805 -0.2067  0.4880  0.2804
  175SAPI   H7R19885   7.036   4.545   6.830  0.8612  0.2905  0.3915
  175SAPI   H7S19886   7.022   4.657   6.700 -0.9126  3.2496  0.5921
  175SAPI   C2819887   6.967   4.736   6.884  0.4751  0.3227 -0.6172
  175SAPI   H8R19888   6.945   4.831   6.833  1.9902  0.0452 -1.8621
  175SAPI   C2919889   6.916   4.705   7.002  0.7300  0.1222 -0.2821
  175SAPI   H9R19890   6.836   4.766   7.048 -2.4082 -3.6109 -0.2013
  175SAPI  C21019891   6.941   4.576   7.073  0.3271  0.8599  1.0419
  175SAPI  H10R19892   6.926   4.589   7.183  1.4608 -0.3556  1.3724
  175SAPI  H10S19893   7.042   4.535   7.051  1.0936  2.3015  1.7609
  175SAPI  C21119894   6.834   4.472   7.031 -0.2235  0.4686  0.3849
  175SAPI  H11R19895   6.779   4.495   6.939  0.2111  0.1139  0.0333
  175SAPI  C21219896   6.800   4.354   7.090 -0.5322  0.9298 -0.1551
  175SAPI  H12R19897   6.729   4.279   7.050  0.2763 -0.6308  1.2033
  175SAPI  C21319898   6.872   4.293   7.206 -0.3648 -0.6607 -1.0982
  175SAPI  H13R19899   6.913   4.372   7.272  0.7385 -1.3700 -0.9195
  175SAPI  H13S19900   6.966   4.252   7.164  1.4357  1.7872  0.2575
  175SAPI  C21419901   6.803   4.193   7.301  0.3051  0.4223 -0.4064
  175SAPI  H14R19902   6.710   4.143   7.270  1.9086 -2.4799 -0.7777
  175SAPI  C21519903   6.833   4.180   7.436  0.4062  0.2008  0.3814
  175SAPI  H15R19904   6.774   4.103   7.488 -1.0235  2.7630  2.8446
  175SAPI  C21619905   6.935   4.260   7.517  0.1200  0.1439  0.8069
  175SAPI  H16R19906   6.951   4.364   7.481  1.1870 -0.4420 -0.5191
  175SAPI  H16S19907   7.035   4.213   7.508  1.2274  2.6503 -1.7671
  175SAPI  C21719908   6.893   4.269   7.664 -1.0215  0.6406 -0.1306
  175SAPI  H17R19909   6.809   4.340   7.660 -1.4718  0.0775 -1.4590
  175SAPI  H17S19910   6.972   4.333   7.709  0.4017 -1.0546 -0.0866
  175SAPI  C21819911   6.884   4.139   7.748 -0.0383  0.8333 -0.2382
  175SAPI  H18R19912   6.979   4.083   7.761  0.1130  0.6900 -1.8487
  175SAPI  H18S19913   6.816   4.072   7.691  1.9122 -1.2427 -0.2666
  175SAPI  C21919914   6.806   4.160   7.876  0.9900  0.1902  0.8836
  175SAPI  H19R19915   6.782   4.069   7.935 -3.3497 -1.3341 -2.6357
  175SAPI  H19S19916   6.701   4.187   7.851  0.8220 -1.8341 -0.9325
  175SAPI  C22019917   6.872   4.269   7.963 -0.4084  0.4969 -0.2163
  175SAPI  H20R19918   6.842   4.357   7.901 -1.1096 -1.0684 -2.2250
  175SAPI  H20S19919   6.983   4.269   7.963 -0.3915  1.6664 -0.6179
  175SAPI  H20T19920   6.820   4.289   8.059 -1.3764  0.6010 -0.7373
  175SAPI   C3319921   6.716   5.040   6.906  0.0951 -0.8994 -0.2262
  175SAPI   H3X19922   6.774   4.945   6.909  1.6083 -0.0380 -0.7606
  175SAPI   H3Y19923   6.630   5.028   6.974  0.1761 -0.8073 -0.1071
  175SAPI   C3419924   6.822   5.138   6.957 -0.2016 -0.1171 -0.3915
  175SAPI   H4X19925   6.763   5.231   6.965  1.8478  1.2069  0.0359
  175SAPI   H4Y19926   6.909   5.146   6.888 -1.2061 -3.4787 -2.3100
  175SAPI   C3519927   6.871   5.113   7.098 -0.0393 -0.0304  0.2931
  175SAPI   H5X19928   6.957   5.182   7.112 -0.6633  1.5006 -2.6027
  175SAPI   H5Y19929   6.913   5.010   7.105  2.2198  0.9297  3.4083
  175SAPI   C3619930   6.771   5.128   7.209  0.0797 -0.6539  0.3246
  175SAPI   H6X19931   6.669   5.088   7.193 -1.1351  0.2965  4.4113
  175SAPI   H6Y19932   6.751   5.238   7.205 -0.8262 -0.8135  0.4238
  175SAPI   C3719933   6.794   5.086   7.352  0.2279  0.2683 -0.5296
  175SAPI   H7X19934   6.808   4.977   7.368 -0.5913  0.0546 -1.2249
  175SAPI   H7Y19935   6.705   5.124   7.407 -0.5461 -2.9168  0.6166
  175SAPI   C3819936   6.910   5.159   7.414  0.1886 -0.5596 -0.2549
  175SAPI   H8X19937   6.892   5.269   7.414 -2.8032 -0.9528 -1.8718
  175SAPI   H8Y19938   7.000   5.135   7.353 -1.2211 -3.2558 -1.3921
  175SAPI   C3919939   6.929   5.112   7.566  0.1181 -0.1260  0.7288
  175SAPI   H9X19940   6.928   5.001   7.572 -1.5307 -0.2430 -0.7099
  175SAPI   H9Y19941   6.836   5.143   7.619  1.0489  1.4303  1.5226
  175SAPI  C31019942   7.042   5.185   7.642  0.1012 -0.6964 -0.0156
  175SAPI  H10X19943   7.018   5.292   7.628  0.9935 -0.4716  0.1135
  175SAPI  H10Y19944   7.140   5.156   7.597  0.5440  3.2916 -2.0351
  175SAPI  C31119945   7.052   5.155   7.791  0.3533 -0.2810  0.7804
  175SAPI  H11X19946   7.148   5.189   7.834 -0.2384  1.0931  1.0890
  175SAPI  H11Y19947   7.047   5.047   7.819  1.0349 -0.0998  1.6671
  175SAPI  C31219948   6.949   5.223   7.879  0.5734  0.7751 -1.0402
  175SAPI  H12X19949   6.855   5.164   7.873 -0.7409  2.6756 -0.1985
  175SAPI  H12Y19950   6.919   5.324   7.845  1.2288  0.9022 -1.2496
  175SAPI  C31319951   6.982   5.240   8.033 -0.4665 -0.6508  0.0161
  175SAPI  H13X19952   7.004   5.145   8.085  1.7045  0.0769  0.5344
  175SAPI  H13Y19953   6.904   5.292   8.091 -0.6312  1.9934 -2.3676
  175SAPI  C31419954   7.109   5.330   8.057 -0.3777  0.1374 -0.2673
  175SAPI  H14X19955   7.067   5.431   8.038  0.0009  0.6622  1.4924
  175SAPI  H14Y19956   7.202   5.302   8.003  0.7390  1.7235  0.7622
  175SAPI  C31519957   7.156   5.333   8.207 -0.1373  0.2830 -0.2573
  175SAPI  H15X19958   7.204   5.236   8.234 -0.7396 -0.7550 -2.6323
  175SAPI  H15Y19959   7.075   5.349   8.281 -0.7985 -2.8266 -0.1899
  175SAPI  C31619960   7.259   5.446   8.229 -0.2870 -0.0461 -0.1292
  175SAPI  H16X19961   7.202   5.525   8.175  1.2472  1.3916  0.2777
  175SAPI  H16Y19962   7.361   5.438   8.187 -0.3622 -2.5768  0.0486
  175SAPI  C31719963   7.259   5.507   8.371 -0.2804  0.5022 -0.5703
  175SAPI  H17X19964   7.275   5.425   8.444 -4.4554 -1.4584 -1.5251
  175SAPI  H17Y19965   7.158   5.543   8.400 -0.9569 -1.5030 -0.2621
  175SAPI  C31819966   7.364   5.624   8.382  0.4488 -0.5978 -0.0898
  175SAPI  H18X19967   7.355   5.677   8.479 -0.6460  0.5515 -0.7884
  175SAPI  H18Y19968   7.336   5.698   8.304 -3.1793 -1.7540 -0.1008
  175SAPI  H18Z19969   7.462   5.581   8.352  0.4835  0.0114 -0.8824
  176SAPI   C1219970   3.053   2.631   6.334 -0.5842 -0.1021  0.0494
  176SAPI    H219971   3.023   2.599   6.436  0.9655 -2.4248 -0.1422
  176SAPI    O219972   2.946   2.598   6.256 -0.3950  0.5218  0.4492
  176SAPI   HO219973   2.946   2.502   6.256 -1.0796  0.4910 -0.9166
  176SAPI   C1319974   3.088   2.780   6.338  0.8647 -0.6242 -0.2766
  176SAPI    H319975   3.154   2.793   6.427  0.4414 -3.7516  0.6406
  176SAPI    O319976   2.968   2.852   6.373  0.3563 -0.1170 -0.3262
  176SAPI   HO319977   2.903   2.825   6.307 -0.9140 -1.9955  1.5741
  176SAPI   C1419978   3.148   2.830   6.214  0.4029 -0.5592 -0.1539
  176SAPI    H419979   3.071   2.829   6.133 -2.8743  1.5567  2.6077
  176SAPI    O419980   3.194   2.962   6.234 -0.1607  0.0368 -0.0060
  176SAPI   HO419981   3.130   3.018   6.278  0.9927  0.3444  1.3594
  176SAPI   C1519982   3.266   2.742   6.174 -0.2555  0.3484  0.5101
  176SAPI    H519983   3.349   2.762   6.245  1.0013  0.3473 -0.9102
  176SAPI    O519984   3.323   2.790   6.052  0.1893 -0.2227  0.7210
  176SAPI   HO519985   3.320   2.711   5.996  0.0149 -1.5530  2.5126
  176SAPI   C1619986   3.230   2.587   6.162  0.0968  0.0087 -0.1882
  176SAPI    H619987   3.150   2.569   6.087 -1.0212 -1.2844  1.2538
  176SAPI    O619988   3.342   2.520   6.120  0.1124 -0.3962 -0.0839
  176SAPI   HO619989   3.350   2.444   6.179  1.1378 -0.5543 -0.4081
  176SAPI   C1119990   3.180   2.546   6.300 -0.1768 -0.7605 -0.5701
  176SAPI    H119991   3.260   2.572   6.373  1.1061 -1.5641 -1.6380
  176SAPI     P19992   3.242   2.293   6.364 -0.3254 -0.0833 -0.0183
  176SAPI   O1319993   3.376   2.322   6.318 -0.2365 -0.3541  0.2851
  176SAPI   O1419994   3.183   2.163   6.333  0.1731 -0.1161 -0.3130
  176SAPI   O1219995   3.142   2.405   6.302 -0.1872 -0.2576 -0.7908
  176SAPI   O1119996   3.230   2.332   6.520 -0.2709  0.1458 -0.0622
  176SAPI    C119997   3.107   2.326   6.594 -0.3570 -0.3959  0.2690
  176SAPI    HA19998   3.057   2.419   6.627 -1.7955 -0.4272 -1.6053
  176SAPI    HB19999   3.023   2.277   6.539 -0.9907  0.8114  0.1318
  176SAPI    C220000   3.123   2.245   6.723  0.1250 -0.5167 -0.0508
  176SAPI    HS20001   3.026   2.237   6.776 -1.2037  1.9924 -1.9327
  176SAPI   O2120002   3.224   2.303   6.807 -0.5418 -0.2835 -0.4363
  176SAPI   C2120003   3.182   2.407   6.878 -0.4687 -0.4739 -0.6506
  176SAPI   O2220004   3.065   2.447   6.884 -0.1019 -0.5132 -0.6715
  176SAPI   C2220005   3.300   2.455   6.963  0.0046  0.5295  0.1951
  176SAPI   H2R20006   3.387   2.386   6.956 -0.8882 -0.6834  0.6906
  176SAPI   H2S20007   3.336   2.551   6.919 -0.4217 -0.5257 -2.6417
  176SAPI    C320008   3.165   2.098   6.692 -0.2329 -0.4323  0.1300
  176SAPI    HX20009   3.270   2.104   6.655 -0.3536  1.8481  0.0680
  176SAPI    HY20010   3.102   2.061   6.608  2.9839 -0.4546 -2.4551
  176SAPI   O3120011   3.172   2.010   6.807  0.8352  0.0039  0.4210
  176SAPI   C3120012   3.056   1.970   6.860  0.2844  0.0093  0.2674
  176SAPI   O3220013   2.948   2.003   6.827  0.1262 -1.0332  0.1525
  176SAPI   C3220014   3.082   1.873   6.978  0.8345 -0.4547 -0.0461
  176SAPI   H2X20015   3.186   1.833   6.981  0.2189 -2.1464  0.0314
  176SAPI   H2Y20016   3.010   1.790   6.961  0.7749 -1.4099  3.9119
  176SAPI   C2320017   3.252   2.479   7.110  0.6649 -0.1285  0.2152
  176SAPI   H3R20018   3.282   2.399   7.180 -0.5137 -1.6091 -0.8961
  176SAPI   H3S20019   3.143   2.498   7.118  1.0969  2.4887  0.9391
  176SAPI   C2420020   3.310   2.604   7.175 -0.3907  0.6906 -0.2714
  176SAPI   H4R20021   3.305   2.688   7.103  2.6049  1.3780  0.2024
  176SAPI   H4S20022   3.419   2.586   7.192 -0.5313 -1.2299 -1.1677
  176SAPI   C2520023   3.237   2.643   7.302  0.5051 -0.5900  0.1380
  176SAPI   H5R20024   3.141   2.696   7.290 -0.5771 -2.0105  1.8787
  176SAPI   C2620025   3.288   2.634   7.429  0.5856 -0.8385 -0.2712
  176SAPI   H6R20026   3.221   2.649   7.515 -0.1136 -1.1784 -0.7425
  176SAPI   C2720027   3.426   2.588   7.476  0.4095 -0.0521  0.0297
  176SAPI   H7R20028   3.493   2.676   7.483 -1.8597  1.6075  2.0993
  176SAPI   H7S20029   3.460   2.522   7.393 -2.6360 -0.7815 -0.7661
  176SAPI   C2820030   3.437   2.503   7.596 -0.1821 -0.0569 -0.0041
  176SAPI   H8R20031   3.413   2.398   7.575 -0.2069  0.2372 -1.5340
  176SAPI   C2920032   3.479   2.540   7.720 -0.5404 -0.3653  0.5169
  176SAPI   H9R20033   3.507   2.462   7.792 -2.0893  1.7420  3.6179
  176SAPI  C21020034   3.527   2.676   7.760  0.0178  0.2832  1.0675
  176SAPI  H10R20035   3.546   2.745   7.675 -0.5091  0.1897  0.8705
  176SAPI  H10S20036   3.625   2.645   7.803 -1.5746 -0.8513  4.1908
  176SAPI  C21120037   3.437   2.764   7.849  0.3051 -0.2185  0.0550
  176SAPI  H11R20038   3.331   2.738   7.837 -0.0782  0.8307  0.9789
  176SAPI  C21220039   3.479   2.835   7.955 -0.6460  0.1613 -0.6224
  176SAPI  H12R20040   3.406   2.906   7.997  0.3850  0.7126  0.2906
  176SAPI  C21320041   3.630   2.862   7.990  0.0758  0.2032 -0.1709
  176SAPI  H13R20042   3.650   2.957   7.937  1.7559  1.2880  2.2259
  176SAPI  H13S20043   3.697   2.786   7.945  0.3000 -1.2126  2.3487
  176SAPI  C21420044   3.661   2.870   8.137  0.4400 -0.1917  0.5904
  176SAPI  H14R20045   3.639   2.968   8.182 -0.2901  1.2145 -2.5848
  176SAPI  C21520046   3.695   2.764   8.215  0.2578 -1.1940  0.2212
  176SAPI  H15R20047   3.707   2.785   8.322 -1.7832 -1.0261  0.4482
  176SAPI  C21620048   3.711   2.621   8.172 -0.2809  0.9034 -0.1575
  176SAPI  H16R20049   3.795   2.610   8.100  1.4744 -0.9392  2.0162
  176SAPI  H16S20050   3.620   2.575   8.129 -0.3922  1.6298 -0.7134
  176SAPI  C21720051   3.748   2.526   8.284  0.4236  0.0325 -0.4111
  176SAPI  H17R20052   3.755   2.420   8.251  0.3132 -0.1809  0.2270
  176SAPI  H17S20053   3.667   2.509   8.358  2.6870 -2.4751  1.7126
  176SAPI  C21820054   3.870   2.559   8.379  0.8188  0.0983  0.5713
  176SAPI  H18R20055   3.847   2.660   8.418 -2.4796 -0.5855  0.7132
  176SAPI  H18S20056   3.965   2.561   8.322 -0.4248  2.3235 -1.6356
  176SAPI  C21920057   3.881   2.465   8.497  0.2897 -0.1053  0.0087
  176SAPI  H19R20058   3.924   2.368   8.465 -2.0486 -1.3594  0.4460
  176SAPI  H19S20059   3.782   2.437   8.540  1.5868 -2.4543  1.7299
  176SAPI  C22020060   3.965   2.534   8.609  0.1881  0.0056  0.9610
  176SAPI  H20R20061   3.968   2.487   8.709  1.0502  1.0918  1.4771
  176SAPI  H20S20062   3.932   2.639   8.624  2.7901  0.5727  3.4840
  176SAPI  H20T20063   4.070   2.535   8.573 -0.9044  3.8062 -3.0210
  176SAPI   C3320064   3.057   1.934   7.117  0.2048 -0.3073 -0.3440
  176SAPI   H3X20065   2.949   1.957   7.134 -0.0282 -0.9882 -0.8327
  176SAPI   H3Y20066   3.109   2.032   7.117 -1.9279  0.9266 -2.2499
  176SAPI   C3420067   3.099   1.830   7.220  0.0544 -0.3168 -0.3049
  176SAPI   H4X20068   3.099   1.873   7.323 -0.4416  0.1811 -0.5107
  176SAPI   H4Y20069   3.202   1.797   7.196 -0.5070 -1.0018 -1.8516
  176SAPI   C3520070   3.011   1.698   7.216 -0.5667  0.6655 -0.3459
  176SAPI   H5X20071   3.033   1.638   7.125  0.7138  1.3039 -0.4767
  176SAPI   H5Y20072   2.905   1.726   7.200 -1.3323 -1.1919  1.0672
  176SAPI   C3620073   3.027   1.605   7.339 -0.2461 -0.0251 -0.4449
  176SAPI   H6X20074   3.136   1.584   7.341  0.3319  2.6466 -0.6808
  176SAPI   H6Y20075   2.966   1.514   7.324 -1.5487  0.6598  0.4754
  176SAPI   C3720076   2.982   1.665   7.465  0.8024 -0.3086 -0.7726
  176SAPI   H7X20077   2.875   1.694   7.457  0.2940 -1.8980 -0.0457
  176SAPI   H7Y20078   3.035   1.753   7.509  0.3145  0.0734 -0.9294
  176SAPI   C3820079   3.012   1.562   7.577 -0.1432 -0.5364 -0.3572
  176SAPI   H8X20080   3.122   1.556   7.592  0.0002  1.2729 -0.3954
  176SAPI   H8Y20081   2.988   1.460   7.540  0.5258 -1.0982  0.7154
  176SAPI   C3920082   2.940   1.582   7.709  1.1151 -0.0702 -0.2067
  176SAPI   H9X20083   2.830   1.577   7.695  1.1711 -0.7555 -0.4257
  176SAPI   H9Y20084   2.965   1.670   7.773  0.0315  0.0620  0.0491
  176SAPI  C31020085   2.970   1.472   7.813 -0.2990  0.8459  0.7335
  176SAPI  H10X20086   3.079   1.461   7.830  0.1500  2.3627 -0.8330
  176SAPI  H10Y20087   2.947   1.367   7.784  2.1158  0.6958 -0.9836
  176SAPI  C31120088   2.910   1.494   7.954 -0.2520  0.1299 -0.4596
  176SAPI  H11X20089   2.802   1.519   7.951 -0.6815 -1.3361  1.2415
  176SAPI  H11Y20090   2.948   1.589   7.999 -1.7127  0.6514 -0.2846
  176SAPI  C31220091   2.937   1.375   8.053 -0.6182  0.5356  0.0501
  176SAPI  H12X20092   3.034   1.322   8.044 -1.5072 -1.2973  0.7346
  176SAPI  H12Y20093   2.863   1.298   8.024  1.4287 -1.3424 -0.4982
  176SAPI  C31320094   2.907   1.410   8.204  0.3933  0.5622 -1.0886
  176SAPI  H13X20095   2.887   1.324   8.271 -0.5579  1.3213 -0.3468
  176SAPI  H13Y20096   2.809   1.464   8.213  0.5423  0.5582  0.9549
  176SAPI  C31420097   3.025   1.484   8.268  0.1904 -0.1015  0.1838
  176SAPI  H14X20098   3.038   1.583   8.219  1.3459 -0.7572 -0.9035
  176SAPI  H14Y20099   3.116   1.424   8.251 -0.5810 -1.3540  0.3235
  176SAPI  C31520100   3.000   1.522   8.414 -0.2439 -0.5275 -0.1326
  176SAPI  H15X20101   3.092   1.572   8.451 -0.3755 -2.0007  2.3913
  176SAPI  H15Y20102   3.008   1.432   8.478  3.4056  0.1932  0.6356
  176SAPI  C31620103   2.885   1.628   8.440 -0.2959  0.0214 -0.5348
  176SAPI  H16X20104   2.797   1.560   8.434  0.1260 -0.4274 -1.7189
  176SAPI  H16Y20105   2.883   1.702   8.357  0.8455  0.0835 -0.5114
  176SAPI  C31720106   2.898   1.701   8.581 -0.0180  1.0010  0.3966
  176SAPI  H17X20107   2.843   1.795   8.564 -1.2823  0.0111 -1.3781
  176SAPI  H17Y20108   3.001   1.740   8.599  0.3782  0.5242 -0.7062
  176SAPI  C31820109   2.843   1.613   8.697 -0.4093 -0.1078 -0.1702
  176SAPI  H18X20110   2.865   1.667   8.792 -2.0206  2.6539 -1.2604
  176SAPI  H18Y20111   2.889   1.512   8.705  1.5915  0.7705  0.1431
  176SAPI  H18Z20112   2.734   1.594   8.688 -0.5271  0.6858 -0.5023
  177SLPC     N20113   4.938   0.228  11.084 -0.5588  0.2767  0.5166
  177SLPC   C1320114   4.826   0.137  11.028  0.1485  0.4274 -0.1767
  177SLPC  H13A20115   4.736   0.133  11.088  1.0384  3.3537  1.5720
  177SLPC  H13B20116   4.799   0.171  10.929  0.3348 -0.5925 -0.5896
  177SLPC  H13C20117   4.864   0.036  11.027  1.8730  0.9902 -3.3721
  177SLPC   C1420118   5.056   0.213  10.996 -0.1268  0.0325 -0.3303
  177SLPC  H14A20119   5.111   0.120  11.007  0.5704  0.5973  1.4562
  177SLPC  H14B20120   5.025   0.228  10.894  3.1413  1.3360 -1.2555
  177SLPC  H14C20121   5.132   0.290  11.002  1.3954 -1.3293 -1.2864
  177SLPC   C1520122   4.976   0.184  11.227  0.5959 -0.3484  0.6310
  177SLPC  H15A20123   5.005   0.080  11.229  2.2810 -0.0185 -1.7897
  177SLPC  H15B20124   5.063   0.239  11.258  0.0957  0.1799  1.1077
  177SLPC  H15C20125   4.885   0.184  11.285 -0.9789  0.8847 -1.6751
  177SLPC   C1220126   4.896   0.375  11.084 -0.0026 -0.3694 -0.2797
  177SLPC  H12A20127   4.959   0.431  11.150 -0.3138 -1.5690  1.0960
  177SLPC  H12B20128   4.802   0.382  11.137 -0.6349 -2.9047 -0.9001
  177SLPC   C1120129   4.866   0.445  10.948 -0.7470  0.0084  0.5625
  177SLPC  H11A20130   4.949   0.410  10.882  0.4435  1.4473  1.2375
  177SLPC  H11B20131   4.865   0.552  10.976 -0.7274  0.1267  0.1150
  177SLPC     P20132   4.606   0.480  10.890 -0.3565  0.1807 -0.1667
  177SLPC   O1320133   4.487   0.399  10.904  1.4569 -0.5141 -0.1236
  177SLPC   O1420134   4.610   0.605  10.973  0.2708  0.2664  0.2326
  177SLPC   O1220135   4.740   0.395  10.917  0.2968  0.7840  0.2819
  177SLPC   O1120136   4.621   0.531  10.745  0.0921 -0.1333 -0.1257
  177SLPC    C120137   4.706   0.468  10.651 -0.0342 -0.5208 -0.5705
  177SLPC    HA20138   4.757   0.539  10.582  0.9573 -0.2202  0.4512
  177SLPC    HB20139   4.801   0.437  10.700  0.8637  1.5250 -0.9202
  177SLPC    C220140   4.633   0.372  10.561 -0.2131 -0.1492  0.1216
  177SLPC    HS20141   4.617   0.279  10.619 -2.3322 -0.9410 -1.5661
  177SLPC   O2120142   4.707   0.351  10.442  0.0724 -0.0334 -0.4735
  177SLPC   C2120143   4.805   0.259  10.455 -0.7186  0.2177 -0.2786
  177SLPC   O2220144   4.841   0.204  10.559 -0.1612  0.0879  0.3603
  177SLPC   C2220145   4.877   0.233  10.328 -0.0337  0.3596 -0.3586
  177SLPC   H2R20146   4.887   0.327  10.269 -2.2441  0.0511 -1.3526
  177SLPC   H2S20147   4.977   0.189  10.343  0.2794  0.6427 -1.4976
  177SLPC    C320148   4.488   0.413  10.522  0.3599 -0.0897  0.1836
  177SLPC    HX20149   4.434   0.409  10.619  1.2930 -0.7953  0.6976
  177SLPC    HY20150   4.451   0.332  10.456 -0.6868 -2.0117  2.9548
  177SLPC   O3120151   4.487   0.548  10.465  0.6275  0.2562  0.2724
  177SLPC   C3120152   4.361   0.576  10.415  0.0294 -0.3993 -0.0277
  177SLPC   O3220153   4.264   0.502  10.424 -0.2260 -0.2424 -0.1717
  177SLPC   C3220154   4.352   0.720  10.366 -0.4073 -0.2804 -0.1300
  177SLPC   H2X20155   4.452   0.753  10.332  0.2283  0.0428  1.9078
  177SLPC   H2Y20156   4.330   0.785  10.454 -1.3053  1.7425 -1.7643
  177SLPC   C2320157   4.793   0.140  10.239 -0.3681 -0.1024  0.4168
  177SLPC   H3R20158   4.695   0.189  10.223 -0.7107 -1.1317 -0.7795
  177SLPC   H3S20159   4.779   0.036  10.277  0.1272 -0.0634  0.7243
  177SLPC   C2420160   4.861   0.140  10.106 -0.0918 -0.0529 -0.0933
  177SLPC   H4R20161   4.954   0.080  10.105 -0.9877 -1.4991 -1.3232
  177SLPC   H4S20162   4.901   0.239  10.076  0.1558 -0.2022 -0.2566
  177SLPC   C2520163   4.772   0.080   9.995 -0.6282 -0.2585  0.6579
  177SLPC   H5R20164   4.677   0.137   9.983  0.0137  0.2452 -4.0199
  177SLPC   H5S20165   4.744  -0.026  10.014  0.8472 -0.7829  0.0662
  177SLPC   C2620166   4.851   0.085   9.865 -0.0277 -0.3864 -0.4067
  177SLPC   H6R20167   4.929   0.006   9.870 -0.5110 -0.8822 -0.7259
  177SLPC   H6S20168   4.896   0.187   9.865  0.6191 -0.6441  1.0074
  177SLPC   C2720169   4.767   0.053   9.736 -0.3817 -0.7676 -0.4722
  177SLPC   H7R20170   4.688   0.128   9.720 -1.6380 -1.4092  2.1592
  177SLPC   H7S20171   4.719  -0.047   9.738  1.2140 -1.5816  2.0003
  177SLPC   C2820172   4.856   0.067   9.617  0.3313  0.2357  0.3184
  177SLPC   H8R20173   4.920   0.158   9.620  0.9883 -0.0954 -1.8063
  177SLPC   H8S20174   4.786   0.088   9.532  0.9302 -0.9867 -0.5141
  177SLPC   C2920175   4.940  -0.052   9.578 -0.4297  0.4888 -0.1219
  177SLPC   H9R20176   4.988  -0.101   9.664 -0.4738  0.2085 -0.2540
  177SLPC  C21020177   4.962  -0.115   9.456 -0.2166 -0.7561 -0.4201
  177SLPC  H10R20178   5.023  -0.207   9.451  2.5808  0.9572  0.0780
  177SLPC  C21120179   4.904  -0.072   9.328 -0.3616 -0.1875  0.4514
  177SLPC  H11R20180   4.809  -0.129   9.325  0.0810 -1.1006  2.4064
  177SLPC  H11S20181   4.883   0.037   9.335  0.1443 -0.0876  0.4540
  177SLPC  C21220182   4.995  -0.108   9.215  0.1246 -0.0792  0.0910
  177SLPC  H12R20183   5.103  -0.110   9.237  0.2716 -0.1439 -0.6035
  177SLPC  C21320184   4.944  -0.145   9.096  0.2901 -0.3067  0.0966
  177SLPC  H13R20185   5.002  -0.191   9.014 -0.3442  2.1614 -1.8621
  177SLPC  C21420186   4.792  -0.151   9.063  0.2772  0.3385 -0.3217
  177SLPC  H14R20187   4.746  -0.050   9.070  2.2026  1.1893  0.7009
  177SLPC  H14S20188   4.727  -0.224   9.117  2.1057 -0.9198  0.2632
  177SLPC  C21520189   4.767  -0.179   8.914 -0.1184  0.2396  0.2228
  177SLPC  H15R20190   4.661  -0.148   8.898 -0.7293 -1.9052 -0.2236
  177SLPC  H15S20191   4.774  -0.288   8.893  2.4732 -0.4097  3.5816
  177SLPC  C21620192   4.858  -0.100   8.813 -0.5144  0.3550 -0.2622
  177SLPC  H16R20193   4.965  -0.131   8.821 -0.7393 -0.6360 -0.9002
  177SLPC  H16S20194   4.865   0.007   8.845 -1.8518  0.1689  0.7340
  177SLPC  C21720195   4.831  -0.109   8.662 -0.1071  0.2712  0.4021
  177SLPC  H17R20196   4.846  -0.214   8.629 -2.1099  0.4901 -1.4144
  177SLPC  H17S20197   4.909  -0.048   8.611 -0.4567  0.1157 -0.3338
  177SLPC  C21820198   4.687  -0.056   8.635 -0.2257  0.3167 -0.3884
  177SLPC  H18R20199   4.655  -0.051   8.529 -2.0321 -0.3511  0.0870
  177SLPC  H18S20200   4.682   0.047   8.676  1.9597 -0.1337  1.2209
  177SLPC  H18T20201   4.611  -0.120   8.686 -0.3853 -0.5007 -1.6050
  177SLPC   C3320202   4.232   0.755  10.279  0.0127 -0.7795  0.8630
  177SLPC   H3X20203   4.210   0.864  10.291 -0.9484 -0.6366 -1.5888
  177SLPC   H3Y20204   4.138   0.705  10.310 -0.2048 -0.1257  1.2889
  177SLPC   C3420205   4.256   0.747  10.124  0.4401 -0.0255 -0.6228
  177SLPC   H4X20206   4.165   0.781  10.071  0.4158 -0.9911 -1.2326
  177SLPC   H4Y20207   4.260   0.639  10.096  0.5797  0.1969 -1.4707
  177SLPC   C3520208   4.370   0.829  10.068 -0.7559 -0.6203 -0.1859
  177SLPC   H5X20209   4.465   0.817  10.125 -1.1425  2.4567  1.3052
  177SLPC   H5Y20210   4.347   0.937  10.074  1.1271 -0.2348  1.1117
  177SLPC   C3620211   4.404   0.790   9.931  0.5255 -0.3830  1.0488
  177SLPC   H6X20212   4.435   0.683   9.933 -0.1447 -0.6300 -0.3353
  177SLPC   H6Y20213   4.484   0.859   9.897  0.1218  0.9022  2.5937
  177SLPC   C3720214   4.291   0.821   9.831  0.2881  0.4816 -1.0266
  177SLPC   H7X20215   4.275   0.931   9.836 -0.4204  0.4969 -2.9098
  177SLPC   H7Y20216   4.201   0.763   9.861  0.6715  1.0877  1.5593
  177SLPC   C3820217   4.334   0.800   9.688  0.0842  0.6278 -0.4182
  177SLPC   H8X20218   4.378   0.698   9.685 -0.2290  0.4503  0.6106
  177SLPC   H8Y20219   4.417   0.868   9.655  1.9785 -1.0059  0.7878
  177SLPC   C3920220   4.224   0.795   9.588  0.1273 -0.2479 -0.3271
  177SLPC   H9X20221   4.164   0.889   9.580  0.5971  0.1826  1.0291
  177SLPC   H9Y20222   4.150   0.721   9.625 -1.0126  1.1876  0.3985
  177SLPC  C31020223   4.257   0.755   9.439  0.1070  0.4518 -0.2585
  177SLPC  H10X20224   4.311   0.658   9.431 -0.0580  0.4958 -2.3838
  177SLPC  H10Y20225   4.341   0.820   9.405 -1.0117  0.3262 -3.5252
  177SLPC  C31120226   4.141   0.763   9.339  0.3807  0.4122  0.7700
  177SLPC  H11X20227   4.115   0.870   9.338  0.2033  0.3651 -0.0816
  177SLPC  H11Y20228   4.051   0.710   9.378  0.5306 -0.1924  0.3025
  177SLPC  C31220229   4.177   0.713   9.196  0.1469 -0.1550 -0.5562
  177SLPC  H12X20230   4.204   0.607   9.177  3.4401  0.7011 -1.2272
  177SLPC  H12Y20231   4.276   0.757   9.171 -0.0583  0.7430  0.1249
  177SLPC  C31320232   4.074   0.754   9.091 -0.0509 -0.4632  0.7512
  177SLPC  H13X20233   4.121   0.733   8.993 -2.1863  0.1119 -0.4502
  177SLPC  H13Y20234   4.047   0.862   9.095  0.0343 -0.4661  1.9112
  177SLPC  C31420235   3.943   0.666   9.100  0.1592 -0.3951  0.2088
  177SLPC  H14X20236   3.917   0.666   9.208 -0.9033  1.6293  0.0018
  177SLPC  H14Y20237   3.955   0.563   9.061  1.0220  0.1904 -1.1717
  177SLPC  C31520238   3.826   0.725   9.015  0.0936  0.6543  0.2174
  177SLPC  H15X20239   3.852   0.716   8.907 -1.0009 -1.1777  0.0636
  177SLPC  H15Y20240   3.809   0.830   9.046 -0.3027  1.0306 -1.1920
  177SLPC  C31620241   3.692   0.658   9.031 -0.1062  0.8580 -0.2322
  177SLPC  H16X20242   3.633   0.684   8.940 -1.4636 -0.8404  0.1140
  177SLPC  H16Y20243   3.630   0.697   9.114 -1.9352  0.1907 -1.2092
  177SLPC  C31720244   3.676   0.502   9.029  0.3144 -0.0681 -0.0261
  177SLPC  H17X20245   3.780   0.463   9.031  0.0845 -0.6705  0.2485
  177SLPC  H17Y20246   3.628   0.465   8.936  0.2596 -0.6638  0.2349
  177SLPC  C31820247   3.595   0.457   9.156  0.9317  0.5375 -0.1675
  177SLPC  H18X20248   3.639   0.482   9.256 -0.5714 -1.4876  1.0821
  177SLPC  H18Y20249   3.580   0.347   9.152  2.1291  0.3772 -0.8474
  177SLPC  H18Z20250   3.491   0.492   9.144 -1.1219 -4.2284  1.2415
  178SLPC     N20251   5.377   2.337  11.208  0.0291  0.0566 -0.1122
  178SLPC   C1320252   5.349   2.474  11.274 -0.3107  0.8939 -0.9885
  178SLPC  H13A20253   5.258   2.482  11.331  0.6546  1.3084  0.5714
  178SLPC  H13B20254   5.420   2.486  11.355 -1.6323  0.9160  0.2177
  178SLPC  H13C20255   5.350   2.560  11.209  4.6961  0.7904 -1.4616
  178SLPC   C1420256   5.385   2.232  11.309  0.2940 -0.1029 -0.0285
  178SLPC  H14A20257   5.464   2.252  11.379  0.9274  0.6523 -0.9332
  178SLPC  H14B20258   5.295   2.227  11.368  0.2225 -0.1929 -0.1449
  178SLPC  H14C20259   5.399   2.132  11.270  1.0684 -1.2119  2.8635
  178SLPC   C1520260   5.506   2.338  11.136 -0.3227 -0.2303 -0.5079
  178SLPC  H15A20261   5.497   2.392  11.043 -1.3500  0.6311  0.0577
  178SLPC  H15B20262   5.584   2.390  11.189 -1.3566  2.6721 -1.6166
  178SLPC  H15C20263   5.531   2.235  11.115 -0.4635 -0.5820  0.9352
  178SLPC   C1220264   5.270   2.317  11.108  0.8969 -0.6426  0.3064
  178SLPC  H12A20265   5.286   2.396  11.036  0.8879 -0.6269  0.3219
  178SLPC  H12B20266   5.175   2.329  11.157 -0.7588 -2.5629 -2.2002
  178SLPC   C1120267   5.267   2.180  11.033 -0.8223 -0.2170  0.1114
  178SLPC  H11A20268   5.190   2.172  10.954  1.0447  0.4851 -1.8778
  178SLPC  H11B20269   5.245   2.102  11.109 -1.5733  0.2077  0.3478
  178SLPC     P20270   5.420   2.217  10.829  0.0832 -0.2956 -0.2057
  178SLPC   O1320271   5.381   2.354  10.832 -0.0249  0.4324 -0.3123
  178SLPC   O1420272   5.555   2.184  10.795 -0.2022  0.0414  0.2522
  178SLPC   O1220273   5.392   2.160  10.965 -0.9533 -0.2675  0.4818
  178SLPC   O1120274   5.320   2.143  10.731 -0.7825  0.5423  0.5591
  178SLPC    C120275   5.315   1.995  10.736  1.3374 -0.1801 -0.1003
  178SLPC    HA20276   5.397   1.948  10.793 -0.2225 -1.4983  1.1687
  178SLPC    HB20277   5.214   1.971  10.776  0.1430  1.3263 -1.9925
  178SLPC    C220278   5.324   1.943  10.592  0.3875  0.5543  0.3055
  178SLPC    HS20279   5.410   1.991  10.542  2.1525 -0.6466  2.0331
  178SLPC   O2120280   5.209   1.977  10.511  0.2242 -0.2146 -0.5851
  178SLPC   C2120281   5.213   2.092  10.440 -0.2345 -0.3612 -0.0156
  178SLPC   O2220282   5.313   2.162  10.417  0.1183 -0.4830  0.2286
  178SLPC   C2220283   5.080   2.122  10.373 -0.4455 -0.3282  0.3203
  178SLPC   H2R20284   5.004   2.149  10.450 -2.2527 -0.2764 -1.3943
  178SLPC   H2S20285   5.100   2.210  10.309 -1.4053  0.8551  1.5953
  178SLPC    C320286   5.355   1.791  10.590  0.0673  0.3415  0.2100
  178SLPC    HX20287   5.272   1.732  10.636 -1.0600  0.0191 -2.0688
  178SLPC    HY20288   5.445   1.788  10.655  0.1640 -0.7746  0.0492
  178SLPC   O3120289   5.393   1.729  10.461 -0.2624 -0.0110 -0.3489
  178SLPC   C3120290   5.303   1.642  10.408 -0.4097 -0.0107  0.0818
  178SLPC   O3220291   5.195   1.612  10.457  0.2825  0.2183  0.4245
  178SLPC   C3220292   5.342   1.618  10.266  0.5459  0.5576 -0.1322
  178SLPC   H2X20293   5.437   1.561  10.271  1.2144  1.7653  1.4833
  178SLPC   H2Y20294   5.366   1.719  10.227  0.6529  0.7658  0.4678
  178SLPC   C2320295   5.035   2.010  10.276  0.1128 -0.2176 -0.8368
  178SLPC   H3R20296   4.941   2.048  10.230 -0.0268 -1.6801 -1.8484
  178SLPC   H3S20297   5.005   1.919  10.332 -0.3757  0.4468  0.0006
  178SLPC   C2420298   5.119   1.986  10.155  0.2912 -0.0832 -0.9559
  178SLPC   H4R20299   5.075   1.893  10.112  1.0458 -2.4966  3.0378
  178SLPC   H4S20300   5.217   1.945  10.188 -1.0967 -1.4081  1.8524
  178SLPC   C2520301   5.143   2.100  10.056 -0.3727  0.0810 -0.0114
  178SLPC   H5R20302   5.232   2.156  10.091  0.8944 -1.9544  0.2387
  178SLPC   H5S20303   5.058   2.171  10.063 -0.4090  0.0509 -0.1371
  178SLPC   C2620304   5.174   2.045   9.918 -0.1275  0.5073 -0.1489
  178SLPC   H6R20305   5.167   2.123   9.839  1.4162 -0.8825 -1.7224
  178SLPC   H6S20306   5.095   1.972   9.892 -1.0476  0.9870  1.1399
  178SLPC   C2720307   5.314   1.979   9.908  0.0154  0.3349  0.2446
  178SLPC   H7R20308   5.313   1.889   9.973  0.0856 -0.4356 -0.8033
  178SLPC   H7S20309   5.390   2.047   9.953 -0.1152  0.0126  0.9751
  178SLPC   C2820310   5.350   1.948   9.765  0.0604  0.5739 -0.0532
  178SLPC   H8R20311   5.456   1.915   9.762  0.2468  1.1783 -0.2529
  178SLPC   H8S20312   5.350   2.042   9.705 -4.2072 -0.7705 -2.5605
  178SLPC   C2920313   5.255   1.844   9.701 -0.2965  0.2665 -0.0105
  178SLPC   H9R20314   5.225   1.771   9.777  1.3229  0.3340  0.7430
  178SLPC  C21020315   5.216   1.841   9.572  0.0488  0.2983 -0.5782
  178SLPC  H10R20316   5.148   1.760   9.541  0.6622 -0.7688  0.7847
  178SLPC  C21120317   5.268   1.936   9.469  0.1710  0.1773 -0.8586
  178SLPC  H11R20318   5.270   1.867   9.382 -0.1834 -1.0133  0.0569
  178SLPC  H11S20319   5.375   1.959   9.487  0.5557 -1.4151 -0.9500
  178SLPC  C21220320   5.182   2.057   9.462  0.1555 -0.4348  0.1661
  178SLPC  H12R20321   5.142   2.096   9.557 -1.9812  1.2778 -1.3285
  178SLPC  C21320322   5.140   2.125   9.355 -0.2284 -0.4567 -0.1804
  178SLPC  H13R20323   5.060   2.201   9.360  1.1028  0.9121  1.1259
  178SLPC  C21420324   5.173   2.071   9.215 -0.6730  0.6522 -0.4841
  178SLPC  H14R20325   5.093   2.106   9.147  0.0521  0.7699 -1.2894
  178SLPC  H14S20326   5.158   1.961   9.212 -2.8768  0.7487  2.4940
  178SLPC  C21520327   5.310   2.104   9.161  0.1384  0.0154 -0.5274
  178SLPC  H15R20328   5.391   2.070   9.229 -0.8284  0.4886  0.8953
  178SLPC  H15S20329   5.326   2.214   9.154  0.0024  0.1531  0.9209
  178SLPC  C21620330   5.342   2.050   9.018  0.3438  0.0652 -0.8635
  178SLPC  H16R20331   5.257   2.090   8.958 -0.0641 -0.4150 -0.6137
  178SLPC  H16S20332   5.343   1.939   9.022 -0.3689  0.0444 -1.0871
  178SLPC  C21720333   5.482   2.103   8.973 -0.4787 -0.0695 -0.0754
  178SLPC  H17R20334   5.558   2.086   9.052  0.1144  0.3837 -0.5352
  178SLPC  H17S20335   5.470   2.214   8.971 -1.4730 -0.1463  1.0835
  178SLPC  C21820336   5.515   2.064   8.825  0.0906  0.1144 -0.1454
  178SLPC  H18R20337   5.578   2.136   8.769 -0.7371  2.8709  2.1853
  178SLPC  H18S20338   5.417   2.056   8.773 -0.9177  0.5308  1.5904
  178SLPC  H18T20339   5.555   1.962   8.811 -0.7328 -0.1037 -1.0723
  178SLPC   C3320340   5.234   1.540  10.180 -0.2349 -0.5375  0.2691
  178SLPC   H3X20341   5.156   1.618  10.164  0.7429  0.7883  1.6908
  178SLPC   H3Y20342   5.201   1.446  10.228 -0.7569 -1.1728 -1.2437
  178SLPC   C3420343   5.286   1.513  10.039  0.7330  0.1231  0.1963
  178SLPC   H4X20344   5.365   1.589  10.018  2.3416 -1.4468  0.3115
  178SLPC   H4Y20345   5.205   1.517   9.963  0.2105  1.4356  0.8091
  178SLPC   C3520346   5.349   1.377  10.014 -0.6891 -0.1959  0.0349
  178SLPC   H5X20347   5.274   1.298  10.035  0.3625 -1.5493 -1.1246
  178SLPC   H5Y20348   5.437   1.351  10.078 -2.2575  0.8487  2.7941
  178SLPC   C3620349   5.405   1.356   9.878  0.2626 -0.4426 -0.0951
  178SLPC   H6X20350   5.508   1.397   9.871  0.1219  0.7044  2.9108
  178SLPC   H6Y20351   5.341   1.410   9.805 -0.2078  1.1376  1.4122
  178SLPC   C3720352   5.423   1.208   9.838  0.7941  0.4447 -0.7036
  178SLPC   H7X20353   5.322   1.162   9.849  1.4623 -0.4429  3.4811
  178SLPC   H7Y20354   5.483   1.153   9.913  0.6712  0.1954 -0.7870
  178SLPC   C3820355   5.472   1.194   9.694  0.2237  0.8212  0.3141
  178SLPC   H8X20356   5.574   1.238   9.688  0.3222  0.5842  0.2211
  178SLPC   H8Y20357   5.407   1.242   9.617 -0.2540 -0.4813 -0.1248
  178SLPC   C3920358   5.475   1.051   9.655 -0.2118  0.0369  0.1304
  178SLPC   H9X20359   5.374   1.006   9.648  0.5179 -1.5291 -1.2797
  178SLPC   H9Y20360   5.522   0.998   9.741  3.1507 -0.0246 -1.5712
  178SLPC  C31020361   5.548   1.027   9.523  0.4102  0.2731  0.2935
  178SLPC  H10X20362   5.537   0.917   9.510 -1.9082  0.1108  2.7582
  178SLPC  H10Y20363   5.656   1.051   9.534  0.1021  1.0962  1.7159
  178SLPC  C31120364   5.481   1.084   9.396 -0.2521  0.0303  0.3815
  178SLPC  H11X20365   5.463   1.192   9.412  1.8589  0.4603  0.2431
  178SLPC  H11Y20366   5.381   1.037   9.388  1.1800 -3.0623 -1.2285
  178SLPC  C31220367   5.552   1.065   9.267 -0.6915 -1.1399 -0.0609
  178SLPC  H12X20368   5.661   1.086   9.277 -0.4151 -1.0231 -2.5429
  178SLPC  H12Y20369   5.503   1.132   9.192  0.1686  2.1307  2.0707
  178SLPC  C31320370   5.537   0.920   9.222  0.0673  0.1478  0.0825
  178SLPC  H13X20371   5.428   0.899   9.214 -0.0219  0.5892  0.1327
  178SLPC  H13Y20372   5.589   0.848   9.289 -0.9428 -2.6669 -1.9922
  178SLPC  C31420373   5.603   0.902   9.081  0.1857  0.3284 -0.0784
  178SLPC  H14X20374   5.697   0.961   9.089  0.2251  0.0096  4.6605
  178SLPC  H14Y20375   5.539   0.945   9.001 -3.0082  1.0512  2.6508
  178SLPC  C31520376   5.631   0.762   9.037  0.1630 -0.0345  0.5497
  178SLPC  H15X20377   5.704   0.732   9.116 -0.4593 -2.3411  0.3111
  178SLPC  H15Y20378   5.548   0.689   9.034  0.0495  0.1224 -1.2887
  178SLPC  C31620379   5.689   0.756   8.901 -0.4909  0.2220  0.0902
  178SLPC  H16X20380   5.779   0.821   8.897 -1.3949  1.5397  0.4432
  178SLPC  H16Y20381   5.604   0.792   8.839 -0.0321 -0.9957 -1.2896
  178SLPC  C31720382   5.729   0.604   8.871  0.2391 -0.4819  0.1766
  178SLPC  H17X20383   5.653   0.540   8.922  0.0036  1.4780  2.4754
  178SLPC  H17Y20384   5.827   0.597   8.922 -0.0282  1.3989  1.0587
  178SLPC  C31820385   5.746   0.555   8.729 -0.5224  0.0018 -0.1236
  178SLPC  H18X20386   5.646   0.570   8.684 -2.1726 -0.0467  3.1984
  178SLPC  H18Y20387   5.761   0.445   8.727  1.6594  0.2225  0.7054
  178SLPC  H18Z20388   5.837   0.598   8.681 -1.1854  2.1032  0.3638
  179SLPC     N20389   1.384   6.140  11.075  0.1637  0.7127 -0.0283
  179SLPC   C1320390   1.273   6.126  10.983  0.5298 -0.3545 -0.2854
  179SLPC  H13A20391   1.267   6.188  10.895 -0.3116 -0.8823 -0.6107
  179SLPC  H13B20392   1.260   6.028  10.940 -3.4035  1.1784 -3.2056
  179SLPC  H13C20393   1.184   6.150  11.041  0.1632 -0.9006 -0.6159
  179SLPC   C1420394   1.354   6.060  11.197 -0.2696 -0.0941 -0.1706
  179SLPC  H14A20395   1.442   6.067  11.259  2.1083  4.3867 -3.4875
  179SLPC  H14B20396   1.267   6.084  11.257 -0.0059  1.1418 -0.2697
  179SLPC  H14C20397   1.333   5.956  11.174 -3.1258  0.0617  1.2683
  179SLPC   C1520398   1.398   6.281  11.113  0.3815 -0.0704  0.1585
  179SLPC  H15A20399   1.313   6.322  11.165  0.6970  0.1782  0.4840
  179SLPC  H15B20400   1.492   6.301  11.161  0.5400  0.1149 -0.2260
  179SLPC  H15C20401   1.407   6.336  11.020 -0.0074  0.5287  0.4632
  179SLPC   C1220402   1.516   6.086  11.009 -0.1883 -0.8407 -0.4149
  179SLPC  H12A20403   1.505   5.979  11.003 -3.6200 -0.6793  0.9951
  179SLPC  H12B20404   1.589   6.109  11.085 -2.6579  4.6199  0.7978
  179SLPC   C1120405   1.571   6.150  10.880  0.5253 -0.3984  0.4528
  179SLPC  H11A20406   1.668   6.106  10.848 -0.7668 -3.2306  0.0586
  179SLPC  H11B20407   1.596   6.256  10.898  0.6649 -0.4715  0.6946
  179SLPC     P20408   1.447   6.023  10.680 -0.0660  0.0569  0.0556
  179SLPC   O1320409   1.576   6.000  10.618 -0.1688  0.0710  0.4020
  179SLPC   O1420410   1.376   5.914  10.749  0.1842  0.7109  0.1873
  179SLPC   O1220411   1.473   6.143  10.777 -0.1436 -0.1752 -0.6062
  179SLPC   O1120412   1.347   6.090  10.583  0.0812 -0.0922  0.2026
  179SLPC    C120413   1.334   6.232  10.555  0.6840 -0.1593  0.1726
  179SLPC    HA20414   1.247   6.279  10.605  3.1054  4.3689  0.6431
  179SLPC    HB20415   1.423   6.285  10.596  0.3773  0.0202  0.6160
  179SLPC    C220416   1.328   6.249  10.406 -0.9570 -1.0380  0.0079
  179SLPC    HS20417   1.342   6.357  10.386 -0.0600 -0.9800  0.8925
  179SLPC   O2120418   1.207   6.193  10.352  0.0995  0.4879  0.1334
  179SLPC   C2120419   1.113   6.277  10.353  0.4974 -0.2186 -0.0728
  179SLPC   O2220420   1.120   6.395  10.368 -0.8557 -0.1096 -0.0932
  179SLPC   C2220421   0.978   6.198  10.327 -0.5391 -0.4596 -0.0307
  179SLPC   H2R20422   1.005   6.101  10.280  0.4505 -1.3806  2.2865
  179SLPC   H2S20423   0.948   6.174  10.431  0.6564  0.0318  0.4484
  179SLPC    C320424   1.455   6.178  10.351  0.4282 -0.2471  0.1434
  179SLPC    HX20425   1.470   6.075  10.389  0.7324  0.2568  1.4260
  179SLPC    HY20426   1.540   6.237  10.391  0.1626 -0.8888  1.7347
  179SLPC   O3120427   1.461   6.176  10.210 -0.6368 -0.2909 -0.2449
  179SLPC   C3120428   1.403   6.065  10.153 -0.1587 -0.0278 -0.4517
  179SLPC   O3220429   1.348   5.977  10.213 -0.6405 -0.2013  0.2331
  179SLPC   C3220430   1.403   6.086  10.004  0.3303  0.0320  0.1115
  179SLPC   H2X20431   1.504   6.080   9.957  0.7698 -0.5745  1.1065
  179SLPC   H2Y20432   1.353   6.185   9.990 -2.0629 -0.9436  1.2031
  179SLPC   C2320433   0.873   6.284  10.259 -0.1218 -0.2424  0.0475
  179SLPC   H3R20434   0.873   6.385  10.305  1.1824 -0.0820 -0.2544
  179SLPC   H3S20435   0.773   6.237  10.269 -1.9315  3.1119 -0.5759
  179SLPC   C2420436   0.905   6.303  10.113  0.0824  0.0952  0.1274
  179SLPC   H4R20437   1.005   6.352  10.109  1.0706 -1.8524 -0.0764
  179SLPC   H4S20438   0.831   6.377  10.074  0.4371  1.6277  2.1853
  179SLPC   C2520439   0.903   6.176  10.025  0.3518 -0.3788 -0.1384
  179SLPC   H5R20440   0.802   6.131  10.017  0.8085 -1.3661 -0.5214
  179SLPC   H5S20441   0.962   6.095  10.075 -3.4258 -3.0962  0.3980
  179SLPC   C2620442   0.946   6.203   9.883 -0.5450  0.1539 -0.2870
  179SLPC   H6R20443   1.045   6.253   9.888 -1.1334  1.2589  2.7672
  179SLPC   H6S20444   0.875   6.281   9.848 -0.0032  1.9545  2.2926
  179SLPC   C2720445   0.948   6.089   9.780 -0.9448 -0.1832  0.4949
  179SLPC   H7R20446   0.981   6.000   9.837  1.0038 -0.4153 -0.8965
  179SLPC   H7S20447   1.022   6.107   9.699 -1.6766 -1.7188 -0.5560
  179SLPC   C2820448   0.819   6.086   9.696 -0.0634 -0.2745  0.7044
  179SLPC   H8R20449   0.749   6.101   9.781  0.2899 -1.0398  1.1444
  179SLPC   H8S20450   0.790   5.988   9.651  2.0493 -1.6166  2.0544
  179SLPC   C2920451   0.797   6.194   9.598  1.0862  0.0623 -0.0200
  179SLPC   H9R20452   0.800   6.293   9.647 -1.3961 -0.5419  1.5354
  179SLPC  C21020453   0.739   6.183   9.476  0.0321  0.1578  0.6363
  179SLPC  H10R20454   0.757   6.268   9.409  0.2745 -1.5770 -1.6384
  179SLPC  C21120455   0.706   6.050   9.405  0.0821 -0.2875  0.0476
  179SLPC  H11R20456   0.602   6.016   9.426  0.1449 -0.2111  0.4963
  179SLPC  H11S20457   0.759   5.962   9.450 -0.3600 -0.5026  0.1563
  179SLPC  C21220458   0.730   6.049   9.257 -0.6582 -0.1227  0.4909
  179SLPC  H12R20459   0.796   6.133   9.228 -0.3702 -0.0159  1.4200
  179SLPC  C21320460   0.666   5.969   9.167 -0.2642  0.0853  0.4686
  179SLPC  H13R20461   0.688   5.979   9.060 -2.8173 -0.0742 -0.1171
  179SLPC  C21420462   0.554   5.873   9.185 -0.3148  0.2620 -0.5348
  179SLPC  H14R20463   0.460   5.932   9.194 -0.1503  0.2376  2.6974
  179SLPC  H14S20464   0.575   5.825   9.283  0.8168 -4.0691 -2.6343
  179SLPC  C21520465   0.546   5.762   9.071 -0.0814 -0.2676 -0.3975
  179SLPC  H15R20466   0.479   5.678   9.101 -1.0470  0.2040 -1.1661
  179SLPC  H15S20467   0.641   5.708   9.055 -1.5514 -3.2594  0.2810
  179SLPC  C21620468   0.488   5.815   8.935 -0.5377  0.7139 -0.2503
  179SLPC  H16R20469   0.557   5.868   8.865 -0.6355  0.8157 -0.2692
  179SLPC  H16S20470   0.394   5.868   8.960 -1.4306 -1.4315  1.2604
  179SLPC  C21720471   0.430   5.698   8.840 -0.0537  0.3174  0.5104
  179SLPC  H17R20472   0.351   5.646   8.897 -1.3092 -0.1784 -1.5664
  179SLPC  H17S20473   0.521   5.637   8.819 -0.7131  0.2220 -2.5113
  179SLPC  C21820474   0.379   5.752   8.712 -0.1024 -0.4097 -0.0142
  179SLPC  H18R20475   0.291   5.816   8.730 -0.8587 -0.8897 -1.8031
  179SLPC  H18S20476   0.356   5.671   8.640 -2.7479  0.6371 -0.4505
  179SLPC  H18T20477   0.461   5.812   8.667 -0.3328 -0.6528 -0.7743
  179SLPC   C3320478   1.327   5.976   9.926 -0.1926 -0.4809 -0.1877
  179SLPC   H3X20479   1.228   5.948   9.967 -0.3991 -1.1897 -1.1244
  179SLPC   H3Y20480   1.383   5.880   9.925  0.5904 -0.0300 -0.5592
  179SLPC   C3420481   1.303   6.019   9.781 -0.3849 -0.0884 -0.0083
  179SLPC   H4X20482   1.399   6.046   9.734  0.4071 -3.2318 -0.4468
  179SLPC   H4Y20483   1.227   6.099   9.789 -0.8598 -0.6751  2.1495
  179SLPC   C3520484   1.243   5.903   9.704  0.9297 -0.2084 -0.0336
  179SLPC   H5X20485   1.147   5.872   9.750 -1.0713  1.4682 -2.7595
  179SLPC   H5Y20486   1.316   5.819   9.707 -0.3723 -1.3813 -0.6448
  179SLPC   C3620487   1.220   5.942   9.564  0.1486 -0.5745  0.3056
  179SLPC   H6X20488   1.319   5.960   9.517 -0.6991  1.4302 -0.8879
  179SLPC   H6Y20489   1.169   6.041   9.569  1.0583  0.1775 -2.8227
  179SLPC   C3720490   1.143   5.834   9.489 -0.6530  0.3956 -0.0473
  179SLPC   H7X20491   1.091   5.780   9.572  3.2104 -0.9994  1.7064
  179SLPC   H7Y20492   1.210   5.752   9.454 -0.6669  0.0416  0.7239
  179SLPC   C3820493   1.048   5.883   9.374 -0.5466  0.6351 -0.1497
  179SLPC   H8X20494   0.997   5.979   9.398 -0.7602  0.8477 -1.4073
  179SLPC   H8Y20495   0.970   5.806   9.352 -0.1130 -0.1853  1.0623
  179SLPC   C3920496   1.125   5.889   9.247  0.0852  0.7252  0.1820
  179SLPC   H9X20497   1.166   5.794   9.206 -1.2317  1.2567 -2.6236
  179SLPC   H9Y20498   1.210   5.957   9.269 -1.4279  2.1896  1.8247
  179SLPC  C31020499   1.055   5.967   9.127  0.4267  0.0529 -0.1447
  179SLPC  H10X20500   1.073   6.075   9.149 -0.2845  0.1386  0.0371
  179SLPC  H10Y20501   0.948   5.949   9.151  0.7241 -0.4715  0.8267
  179SLPC  C31120502   1.110   5.941   8.995  0.3643  0.8516  0.0607
  179SLPC  H11X20503   1.220   5.953   8.999  0.6807 -1.9950  2.5911
  179SLPC  H11Y20504   1.073   6.025   8.932  1.5692  2.1492  1.0193
  179SLPC  C31220505   1.076   5.796   8.951 -0.5101 -0.3457  0.4715
  179SLPC  H12X20506   1.122   5.722   9.020 -1.0288 -1.7544 -0.6511
  179SLPC  H12Y20507   1.129   5.787   8.854  0.5735 -0.8030  1.0857
  179SLPC  C31320508   0.924   5.772   8.932 -0.3355 -0.4569  0.7505
  179SLPC  H13X20509   0.905   5.869   8.880  1.3806 -0.7230 -0.4650
  179SLPC  H13Y20510   0.870   5.773   9.029 -1.3960 -1.9723  0.2048
  179SLPC  C31420511   0.872   5.644   8.861 -0.4112 -0.6128  0.5986
  179SLPC  H14X20512   0.783   5.616   8.921 -0.2530 -2.1491  0.1447
  179SLPC  H14Y20513   0.948   5.565   8.879 -1.6864 -1.8889  0.4886
  179SLPC  C31520514   0.840   5.662   8.711 -0.4369  0.0008  0.3593
  179SLPC  H15X20515   0.777   5.753   8.704 -1.0371 -0.4061  0.3636
  179SLPC  H15Y20516   0.773   5.581   8.676  1.3280 -0.1631 -3.0816
  179SLPC  C31620517   0.967   5.680   8.630 -0.3730 -1.5229  0.5795
  179SLPC  H16X20518   1.028   5.757   8.681 -2.9554 -0.5692  2.4082
  179SLPC  H16Y20519   0.937   5.727   8.534 -2.4759 -0.6128  1.6325
  179SLPC  C31720520   1.057   5.561   8.613  0.2237 -0.1928  0.2637
  179SLPC  H17X20521   0.999   5.471   8.580 -1.0729  0.3550  0.9753
  179SLPC  H17Y20522   1.106   5.536   8.709  2.2330  0.3136 -0.5908
  179SLPC  C31820523   1.169   5.588   8.514 -0.4200  0.0501  0.3453
  179SLPC  H18X20524   1.245   5.656   8.557  1.0478 -2.1507  1.3944
  179SLPC  H18Y20525   1.113   5.626   8.426  1.3447 -2.2210 -1.8802
  179SLPC  H18Z20526   1.209   5.490   8.483 -0.0675 -0.0756  1.1829
  180SLPC     N20527   1.704   4.643  10.778 -0.5593  0.2740 -0.5426
  180SLPC   C1320528   1.569   4.620  10.727  0.1175 -0.6103 -0.3605
  180SLPC  H13A20529   1.488   4.648  10.793 -0.2059  1.5199 -1.5735
  180SLPC  H13B20530   1.555   4.675  10.635  0.6546 -0.2815 -0.2532
  180SLPC  H13C20531   1.545   4.516  10.710 -2.4545 -0.2176  0.4471
  180SLPC   C1420532   1.717   4.573  10.908  0.5371  0.1835 -0.0381
  180SLPC  H14A20533   1.628   4.589  10.966  0.7890  0.9584  0.1388
  180SLPC  H14B20534   1.721   4.466  10.893  0.7096  0.2299 -0.3353
  180SLPC  H14C20535   1.805   4.610  10.960 -0.4968  4.0642 -0.7574
  180SLPC   C1520536   1.730   4.786  10.798 -0.0003  0.2757 -0.0848
  180SLPC  H15A20537   1.719   4.843  10.707 -1.6223 -0.3356 -0.2990
  180SLPC  H15B20538   1.651   4.832  10.855 -0.0806  1.6791 -1.2783
  180SLPC  H15C20539   1.828   4.797  10.842 -1.3637 -0.7552  3.6050
  180SLPC   C1220540   1.794   4.585  10.682  0.3035 -0.2223 -0.0441
  180SLPC  H12A20541   1.897   4.606  10.707  0.3313  2.6546 -2.1095
  180SLPC  H12B20542   1.773   4.650  10.598  0.0883 -1.5137 -1.0122
  180SLPC   C1120543   1.775   4.433  10.640 -0.3213 -0.3390 -0.3532
  180SLPC  H11A20544   1.865   4.424  10.575  0.3434  2.4823  0.0158
  180SLPC  H11B20545   1.690   4.425  10.568  0.1838 -1.9437 -0.8053
  180SLPC     P20546   1.668   4.233  10.762  0.1327 -0.2073 -0.0845
  180SLPC   O1320547   1.729   4.112  10.822 -0.0919  0.3666  0.2660
  180SLPC   O1420548   1.551   4.281  10.829  0.3580 -0.0131  0.3635
  180SLPC   O1220549   1.779   4.340  10.753 -0.1041  0.0154  0.0650
  180SLPC   O1120550   1.634   4.201  10.613  0.0166  0.1226  0.2945
  180SLPC    C120551   1.571   4.078  10.587 -0.8498 -0.3669 -0.4397
  180SLPC    HA20552   1.642   3.993  10.600 -0.8567 -0.0267  2.4491
  180SLPC    HB20553   1.491   4.051  10.659  0.5389 -0.7249  1.0430
  180SLPC    C220554   1.497   4.078  10.449 -0.5932 -1.0214  0.2890
  180SLPC    HS20555   1.428   3.991  10.439 -1.0383 -1.0074  2.6590
  180SLPC   O2120556   1.593   4.091  10.344 -0.2784  0.0622  0.0502
  180SLPC   C2120557   1.647   3.980  10.311  0.1782 -0.5055  0.7477
  180SLPC   O2220558   1.617   3.875  10.364  0.6474  0.1554  0.0470
  180SLPC   C2220559   1.752   3.992  10.189  0.3585  0.4986 -0.5329
  180SLPC   H2R20560   1.706   4.042  10.101  1.0448  0.0256 -1.1715
  180SLPC   H2S20561   1.839   4.046  10.232  1.1221 -0.5535 -0.7066
  180SLPC    C320562   1.406   4.209  10.447 -0.4012  0.5990  0.1579
  180SLPC    HX20563   1.473   4.296  10.461  0.1586  0.2710 -0.4789
  180SLPC    HY20564   1.332   4.210  10.530 -0.3019  1.8827  0.2515
  180SLPC   O3120565   1.336   4.225  10.320 -0.5508 -0.4204 -0.0057
  180SLPC   C3120566   1.310   4.348  10.278  0.2767 -0.0720  0.0504
  180SLPC   O3220567   1.349   4.447  10.334 -0.1156 -0.2475 -0.5060
  180SLPC   C3220568   1.252   4.345  10.133 -0.3071 -0.6223 -0.5475
  180SLPC   H2X20569   1.144   4.321  10.140 -0.7623  1.4521  0.3053
  180SLPC   H2Y20570   1.298   4.263  10.074 -0.4577 -1.0663 -0.0543
  180SLPC   C2320571   1.801   3.853  10.131  0.0468 -0.5816 -0.7921
  180SLPC   H3R20572   1.704   3.813  10.097 -0.1782 -0.1948 -0.6196
  180SLPC   H3S20573   1.855   3.795  10.209  0.1027  0.0147 -0.3806
  180SLPC   C2420574   1.907   3.873  10.018  0.1028 -0.3315  0.7866
  180SLPC   H4R20575   2.004   3.909  10.057  0.4863 -0.9810  0.4567
  180SLPC   H4S20576   1.864   3.941   9.942  0.0202 -1.0605  0.1686
  180SLPC   C2520577   1.935   3.744   9.950  0.5114  0.1293 -0.2794
  180SLPC   H5R20578   1.854   3.669   9.961  2.0334 -1.6139 -0.4324
  180SLPC   H5S20579   2.017   3.686   9.998  1.1912  1.7548  0.6131
  180SLPC   C2620580   1.976   3.748   9.800 -0.0136 -0.2247  0.5317
  180SLPC   H6R20581   1.983   3.644   9.764  3.1419 -0.0707  0.4235
  180SLPC   H6S20582   2.073   3.799   9.784 -0.3678  0.4172  0.3501
  180SLPC   C2720583   1.863   3.812   9.721 -0.0557 -0.2883 -0.5293
  180SLPC   H7R20584   1.860   3.923   9.725  0.2581 -0.2816 -0.4774
  180SLPC   H7S20585   1.762   3.779   9.754 -0.0054  0.6390  0.5972
  180SLPC   C2820586   1.887   3.799   9.569  0.0466 -0.0697  0.2384
  180SLPC   H8R20587   1.800   3.838   9.511  0.5027  1.2874  0.4251
  180SLPC   H8S20588   1.891   3.689   9.554  1.2935  0.0504 -0.4883
  180SLPC   C2920589   2.020   3.840   9.517 -0.8820  0.0479  0.7441
  180SLPC   H9R20590   2.112   3.813   9.571 -0.4276  0.8793  0.3937
  180SLPC  C21020591   2.036   3.879   9.391 -0.4751  1.4896 -0.6548
  180SLPC  H10R20592   2.137   3.911   9.364  0.4774 -0.6171  0.2044
  180SLPC  C21120593   1.933   3.909   9.287 -0.0318  0.9298 -0.3077
  180SLPC  H11R20594   1.970   4.005   9.244  0.5809  0.7359 -0.2249
  180SLPC  H11S20595   1.841   3.934   9.344  0.0841 -1.3657  1.0019
  180SLPC  C21220596   1.923   3.805   9.181 -0.3574  0.2830 -0.0756
  180SLPC  H12R20597   2.015   3.747   9.164 -0.0600  0.7428 -0.0471
  180SLPC  C21320598   1.811   3.785   9.103 -0.0858  0.0150 -0.3085
  180SLPC  H13R20599   1.821   3.707   9.027  0.4553 -0.6778  0.4543
  180SLPC  C21420600   1.680   3.840   9.118 -0.4980 -0.2313  0.1069
  180SLPC  H14R20601   1.659   3.870   9.013  2.6024  2.3477  0.0376
  180SLPC  H14S20602   1.684   3.936   9.175 -0.4979  0.4331 -0.9719
  180SLPC  C21520603   1.567   3.737   9.154 -0.1908 -0.2664  0.0107
  180SLPC  H15R20604   1.584   3.704   9.259 -1.7317  1.1234  0.7488
  180SLPC  H15S20605   1.583   3.660   9.077 -0.1411  1.1599 -1.4628
  180SLPC  C21620606   1.423   3.784   9.133  0.2638 -0.2494 -0.2252
  180SLPC  H16R20607   1.400   3.882   9.180 -0.6836 -0.9913  0.9316
  180SLPC  H16S20608   1.347   3.710   9.164  2.3103 -1.2509  2.8927
  180SLPC  C21720609   1.388   3.811   8.982  0.5425  0.7716 -0.6880
  180SLPC  H17R20610   1.435   3.730   8.922 -0.3292 -0.1914 -0.0985
  180SLPC  H17S20611   1.439   3.907   8.956 -0.7244  2.9216  3.6936
  180SLPC  C21820612   1.241   3.826   8.966  0.5848 -0.7668 -0.1150
  180SLPC  H18R20613   1.183   3.733   8.983 -1.1908  0.3007 -0.0237
  180SLPC  H18S20614   1.218   3.852   8.860 -0.0792  0.3578  0.2902
  180SLPC  H18T20615   1.204   3.903   9.037 -0.1667 -1.0856 -0.1564
  180SLPC   C3320616   1.265   4.482  10.054 -0.1665 -0.3139 -0.0034
  180SLPC   H3X20617   1.374   4.500  10.036 -0.5002 -1.9012 -4.8814
  180SLPC   H3Y20618   1.216   4.566  10.108 -2.3011 -0.6133 -1.3821
  180SLPC   C3420619   1.190   4.472   9.924 -0.2091 -0.1873  0.1219
  180SLPC   H4X20620   1.085   4.448   9.952  0.2175 -0.2944  1.7662
  180SLPC   H4Y20621   1.225   4.384   9.867 -0.5451 -0.7470  0.7658
  180SLPC   C3520622   1.203   4.591   9.835 -0.3803 -0.7065  0.4451
  180SLPC   H5X20623   1.220   4.681   9.898 -1.0629 -1.2392  1.4127
  180SLPC   H5Y20624   1.110   4.604   9.776  1.4905 -0.9463 -2.7887
  180SLPC   C3620625   1.322   4.585   9.726  0.3239  0.0626  0.5891
  180SLPC   H6X20626   1.300   4.653   9.641  0.6138 -0.5526  0.0205
  180SLPC   H6Y20627   1.337   4.485   9.681 -1.1125 -0.7127  1.7377
  180SLPC   C3720628   1.455   4.624   9.788  0.3065  0.3966  0.6185
  180SLPC   H7X20629   1.472   4.547   9.867 -0.0640 -1.2798 -0.8783
  180SLPC   H7Y20630   1.460   4.727   9.830  0.0870  0.0322  1.5655
  180SLPC   C3820631   1.576   4.613   9.691 -0.4692  0.3224  0.4781
  180SLPC   H8X20632   1.588   4.525   9.624 -0.1289  1.0058 -0.3752
  180SLPC   H8Y20633   1.661   4.633   9.759 -2.3630  1.9875  2.5009
  180SLPC   C3920634   1.596   4.732   9.595 -0.3945 -0.7646 -0.2143
  180SLPC   H9X20635   1.510   4.750   9.527 -0.5694  1.8947  0.6094
  180SLPC   H9Y20636   1.683   4.708   9.531 -0.9527 -0.8215 -0.9644
  180SLPC  C31020637   1.628   4.869   9.673  0.0656  0.1918  0.9111
  180SLPC  H10X20638   1.720   4.850   9.732  1.9597 -0.6784 -2.0909
  180SLPC  H10Y20639   1.542   4.897   9.738  0.8898 -0.1143  2.1856
  180SLPC  C31120640   1.637   4.983   9.576 -0.0781 -0.4699 -0.9471
  180SLPC  H11X20641   1.664   5.077   9.629  1.2977 -0.7181 -1.1603
  180SLPC  H11Y20642   1.542   4.988   9.520 -0.3795  0.5029 -0.3639
  180SLPC  C31220643   1.758   4.969   9.477 -0.8372  0.9187 -0.0181
  180SLPC  H12X20644   1.749   4.876   9.417  1.3153 -0.3732  1.5506
  180SLPC  H12Y20645   1.851   4.963   9.537 -0.7286 -5.1296 -0.2081
  180SLPC  C31320646   1.766   5.092   9.391 -0.3526 -0.2423  0.0589
  180SLPC  H13X20647   1.811   5.186   9.431  1.7607 -0.8954 -0.6815
  180SLPC  H13Y20648   1.662   5.127   9.372 -0.0684  0.9401  0.5645
  180SLPC  C31420649   1.831   5.059   9.254 -0.5547  0.4232  0.3801
  180SLPC  H14X20650   1.768   4.981   9.207 -3.3133  2.1100  1.0159
  180SLPC  H14Y20651   1.937   5.032   9.271  0.3390  2.5548 -1.4233
  180SLPC  C31520652   1.823   5.183   9.158  0.0488 -0.0862 -0.0722
  180SLPC  H15X20653   1.909   5.246   9.188  0.6334 -0.8951 -0.0035
  180SLPC  H15Y20654   1.730   5.243   9.171  0.1769  0.0010  0.4884
  180SLPC  C31620655   1.843   5.161   9.009 -0.3744  0.2712 -0.1666
  180SLPC  H16X20656   1.945   5.124   8.985 -1.2984 -1.3096 -1.9769
  180SLPC  H16Y20657   1.827   5.256   8.955 -0.5645  0.8482  0.8790
  180SLPC  C31720658   1.750   5.058   8.944 -0.5439  0.3107  0.3339
  180SLPC  H17X20659   1.779   4.960   8.988  0.1375  0.7535  0.8890
  180SLPC  H17Y20660   1.768   5.036   8.836  1.1149 -1.2038  0.8694
  180SLPC  C31820661   1.601   5.089   8.966 -0.2614 -0.0086  0.7918
  180SLPC  H18X20662   1.526   5.007   8.953  0.5526 -0.5445 -0.8913
  180SLPC  H18Y20663   1.565   5.177   8.907 -2.7969 -0.2923  1.7680
  180SLPC  H18Z20664   1.587   5.125   9.070  0.1840  0.5077  0.6756
  181SLPC     N20665   6.372   0.099  11.345  0.2191  0.0127 -0.2038
  181SLPC   C1320666   6.310   0.201  11.443 -0.4371  0.3385  0.1069
  181SLPC  H13A20667   6.219   0.237  11.397 -0.6519 -0.7562 -0.3732
  181SLPC  H13B20668   6.288   0.165  11.543 -0.2580  2.1254  0.8304
  181SLPC  H13C20669   6.374   0.288  11.448  1.3963 -0.9587  0.2399
  181SLPC   C1420670   6.267  -0.003  11.326 -0.3765 -0.0499  0.0176
  181SLPC  H14A20671   6.181   0.035  11.274  0.3048 -1.7968 -2.5510
  181SLPC  H14B20672   6.305  -0.070  11.251  2.8748  2.8260 -1.1784
  181SLPC  H14C20673   6.231  -0.052  11.415 -1.5695  0.8819  0.0744
  181SLPC   C1520674   6.491   0.037  11.415 -0.5795 -0.2408 -0.7256
  181SLPC  H15A20675   6.539   0.113  11.474 -0.2035 -1.5614  0.7520
  181SLPC  H15B20676   6.456  -0.043  11.479  0.2234  0.3774  0.5261
  181SLPC  H15C20677   6.557  -0.013  11.345  1.7163 -0.9017  1.7515
  181SLPC   C1220678   6.409   0.171  11.221 -0.3053  0.0613  0.4988
  181SLPC  H12A20679   6.456   0.101  11.154 -0.2512 -1.4646  2.0460
  181SLPC  H12B20680   6.480   0.250  11.241 -0.7849  1.4986 -2.7947
  181SLPC   C1120681   6.296   0.238  11.136  0.8414  0.1337  0.7069
  181SLPC  H11A20682   6.328   0.313  11.061 -1.0525  0.1713 -0.1338
  181SLPC  H11B20683   6.228   0.294  11.203  0.3825 -1.5433  1.7143
  181SLPC     P20684   6.227   0.076  10.933  0.1049 -0.3391 -0.0963
  181SLPC   O1320685   6.367   0.074  10.884  0.0531 -0.5481  0.0239
  181SLPC   O1420686   6.157  -0.055  10.926 -0.0646 -0.3435  0.5644
  181SLPC   O1220687   6.212   0.138  11.078  0.0659 -0.8219  0.0854
  181SLPC   O1120688   6.141   0.177  10.845  0.2333 -0.5680 -0.0611
  181SLPC    C120689   6.005   0.209  10.880 -0.3971 -0.1038 -0.1723
  181SLPC    HA20690   5.942   0.127  10.839  0.9018 -0.9263 -0.5765
  181SLPC    HB20691   5.986   0.208  10.990  3.7717 -0.1834  0.7097
  181SLPC    C220692   5.968   0.348  10.821  0.3463 -0.3221  0.4089
  181SLPC    HS20693   5.862   0.371  10.842  0.5275 -0.5780  1.6656
  181SLPC   O2120694   5.995   0.369  10.684  0.1496 -0.2557  0.2934
  181SLPC   C2120695   5.898   0.308  10.609  0.0781  0.4847  0.2348
  181SLPC   O2220696   5.801   0.247  10.655 -0.0340 -0.6928  0.3060
  181SLPC   C2220697   5.932   0.336  10.466 -0.2977 -0.3936  0.7545
  181SLPC   H2R20698   5.970   0.440  10.467  0.1909 -0.5743  1.2173
  181SLPC   H2S20699   6.020   0.276  10.435 -0.7267 -0.8978  0.4959
  181SLPC    C320700   6.051   0.454  10.896 -0.2813  0.2491  0.4254
  181SLPC    HX20701   6.156   0.417  10.885  0.0070  1.5602 -1.7462
  181SLPC    HY20702   6.006   0.451  10.998  1.0233 -0.3448  1.0124
  181SLPC   O3120703   6.049   0.584  10.841 -0.2179 -0.4997 -0.3446
  181SLPC   C3120704   5.940   0.652  10.828 -0.5997  0.5855 -0.1501
  181SLPC   O3220705   5.828   0.616  10.860  0.1742  0.7288  0.3436
  181SLPC   C3220706   5.981   0.782  10.754 -0.1180 -0.2147  0.4031
  181SLPC   H2X20707   6.085   0.805  10.785 -0.3720  2.6408 -0.5875
  181SLPC   H2Y20708   5.908   0.857  10.790 -1.5061 -1.7203  0.8388
  181SLPC   C2320709   5.819   0.310  10.368 -0.7473 -0.1669  1.0192
  181SLPC   H3R20710   5.732   0.375  10.391 -1.9566 -0.6989 -1.6918
  181SLPC   H3S20711   5.790   0.203  10.376  1.4792 -1.3526 -3.4731
  181SLPC   C2420712   5.864   0.338  10.223  0.6342  0.1044  0.9676
  181SLPC   H4R20713   5.971   0.365  10.209  0.5166 -0.7740 -2.9679
  181SLPC   H4S20714   5.799   0.419  10.181  0.7405 -0.6765 -0.8080
  181SLPC   C2520715   5.856   0.214  10.133 -0.3056 -0.3711  0.3101
  181SLPC   H5R20716   5.762   0.159  10.150 -0.8167 -0.0051 -1.1615
  181SLPC   H5S20717   5.947   0.157  10.162 -0.5866 -1.8026 -1.4706
  181SLPC   C2620718   5.856   0.227   9.976 -0.1334 -0.1013  0.3294
  181SLPC   H6R20719   5.942   0.292   9.949 -1.0455  1.8460  1.9163
  181SLPC   H6S20720   5.760   0.271   9.942 -0.1974  0.3332  1.0778
  181SLPC   C2720721   5.877   0.088   9.912  0.1711 -0.4984  0.6514
  181SLPC   H7R20722   5.803   0.074   9.830  1.1939 -1.5124 -0.1194
  181SLPC   H7S20723   5.859   0.003   9.982 -0.0909 -0.9063  0.1011
  181SLPC   C2820724   6.017   0.058   9.843  0.7485  0.2042  0.3098
  181SLPC   H8R20725   6.020   0.115   9.748 -0.5849  0.6639  0.5211
  181SLPC   H8S20726   6.002  -0.050   9.822 -2.0616  0.5440  0.1895
  181SLPC   C2920727   6.135   0.086   9.928 -0.0411  0.0651 -0.0301
  181SLPC   H9R20728   6.123   0.028  10.020  0.6286  2.0176  1.3465
  181SLPC  C21020729   6.229   0.175   9.925 -0.6741 -1.0185 -0.4535
  181SLPC  H10R20730   6.313   0.179   9.996  0.0665 -0.3415 -1.3483
  181SLPC  C21120731   6.249   0.278   9.815  0.4393 -0.3052 -0.4806
  181SLPC  H11R20732   6.158   0.341   9.803 -0.4437 -1.0821  1.6730
  181SLPC  H11S20733   6.261   0.211   9.727 -1.6950 -1.6933  0.2128
  181SLPC  C21220734   6.357   0.381   9.845 -0.0061 -0.0117  0.4612
  181SLPC  H12R20735   6.363   0.395   9.954 -2.5816 -2.7248  1.1038
  181SLPC  C21320736   6.457   0.427   9.761 -0.6167  0.1107 -0.3823
  181SLPC  H13R20737   6.534   0.488   9.811  1.5359 -3.5997  1.1740
  181SLPC  C21420738   6.481   0.387   9.612 -0.2989  0.0382 -0.2439
  181SLPC  H14R20739   6.402   0.317   9.576 -1.5902  1.5538 -0.4689
  181SLPC  H14S20740   6.578   0.335   9.596 -0.2617  0.0101  0.0745
  181SLPC  C21520741   6.465   0.522   9.535 -0.0396 -0.0749  0.0954
  181SLPC  H15R20742   6.363   0.558   9.561  1.1172  2.4738  1.4953
  181SLPC  H15S20743   6.474   0.490   9.429  0.2712 -0.3579  0.2047
  181SLPC  C21620744   6.564   0.638   9.565  0.1672 -0.5258  0.5829
  181SLPC  H16R20745   6.529   0.685   9.659 -2.3531  1.1547 -1.0568
  181SLPC  H16S20746   6.555   0.714   9.484 -1.9211 -0.6764  0.6178
  181SLPC  C21720747   6.709   0.588   9.576 -0.8041  0.5557 -0.1479
  181SLPC  H17R20748   6.722   0.511   9.655  0.2672  0.6480 -0.2176
  181SLPC  H17S20749   6.755   0.678   9.621 -0.4722  0.4740 -0.3158
  181SLPC  C21820750   6.767   0.549   9.434 -0.1615  0.2425 -0.4873
  181SLPC  H18R20751   6.874   0.520   9.448  0.1349  1.1842 -0.7290
  181SLPC  H18S20752   6.760   0.644   9.376 -0.4512 -0.6098 -1.8746
  181SLPC  H18T20753   6.713   0.475   9.373  2.2033 -0.7436 -1.4923
  181SLPC   C3320754   5.978   0.763  10.599 -0.7957  0.2519  0.5748
  181SLPC   H3X20755   6.060   0.699  10.559 -2.1492 -1.2991  0.1648
  181SLPC   H3Y20756   5.989   0.863  10.553 -1.2653  0.8297  1.6907
  181SLPC   C3420757   5.851   0.701  10.545  0.1687 -0.7045  0.3500
  181SLPC   H4X20758   5.812   0.607  10.591 -1.6439  0.1925  0.7603
  181SLPC   H4Y20759   5.874   0.666  10.443  1.1616 -1.3031  0.7645
  181SLPC   C3520760   5.737   0.799  10.537  0.1437 -0.3133  0.1802
  181SLPC   H5X20761   5.774   0.892  10.489 -2.8056  1.1127  0.4615
  181SLPC   H5Y20762   5.708   0.830  10.639 -1.3671 -1.1225  0.0212
  181SLPC   C3620763   5.611   0.746  10.468 -0.2114  0.8188 -0.2382
  181SLPC   H6X20764   5.527   0.814  10.493  1.1001  1.7362  1.9831
  181SLPC   H6Y20765   5.591   0.642  10.501  0.4766  1.1832  1.3891
  181SLPC   C3720766   5.622   0.755  10.312  0.5539  0.2709 -0.2613
  181SLPC   H7X20767   5.705   0.684  10.292  1.5453  1.3360 -0.0329
  181SLPC   H7Y20768   5.654   0.854  10.273 -0.2452 -0.3917 -2.7798
  181SLPC   C3820769   5.492   0.709  10.238  0.0902 -0.3470 -0.1768
  181SLPC   H8X20770   5.408   0.775  10.266  2.3029  2.3930  0.4184
  181SLPC   H8Y20771   5.474   0.601  10.260  0.7157 -0.7031 -1.3005
  181SLPC   C3920772   5.492   0.721  10.084 -0.4634  0.4358  0.2555
  181SLPC   H9X20773   5.540   0.820  10.067 -0.0123  0.2607  0.4844
  181SLPC   H9Y20774   5.387   0.715  10.049  0.4500 -2.1519 -2.5605
  181SLPC  C31020775   5.563   0.613  10.003  0.1709 -0.1607 -0.4279
  181SLPC  H10X20776   5.516   0.513  10.005 -0.1027 -0.0343 -0.4094
  181SLPC  H10Y20777   5.662   0.603  10.053 -1.2346 -0.0044  2.6625
  181SLPC  C31120778   5.571   0.656   9.856  0.1331 -0.1737  0.1051
  181SLPC  H11X20779   5.646   0.735   9.838  3.2988 -2.9785 -0.1059
  181SLPC  H11Y20780   5.470   0.693   9.828 -0.5005 -0.1381  2.2593
  181SLPC  C31220781   5.614   0.550   9.757  0.1123 -0.0604  0.0249
  181SLPC  H12X20782   5.564   0.455   9.787  1.5625 -0.8714 -0.0155
  181SLPC  H12Y20783   5.719   0.523   9.782  0.0907 -1.4050 -1.1779
  181SLPC  C31320784   5.595   0.567   9.604  0.5707  0.3958  0.2577
  181SLPC  H13X20785   5.653   0.654   9.569 -2.6378  2.2703 -0.8162
  181SLPC  H13Y20786   5.490   0.598   9.586 -0.3895 -2.7628 -0.2606
  181SLPC  C31420787   5.630   0.456   9.506 -0.9384 -0.3619 -0.3207
  181SLPC  H14X20788   5.586   0.362   9.546  0.0370  0.0967  1.9441
  181SLPC  H14Y20789   5.739   0.440   9.515 -1.0320  0.2706  2.9099
  181SLPC  C31520790   5.594   0.496   9.358 -0.1778 -0.1021  0.5135
  181SLPC  H15X20791   5.630   0.598   9.333 -1.8616  0.2182 -0.8111
  181SLPC  H15Y20792   5.483   0.502   9.360 -0.3922 -2.8806  1.1580
  181SLPC  C31620793   5.642   0.388   9.260  0.0810  0.6351  0.0882
  181SLPC  H16X20794   5.564   0.368   9.183  0.5800 -0.2156 -0.2120
  181SLPC  H16Y20795   5.654   0.298   9.323  1.1091  1.3459  0.9321
  181SLPC  C31720796   5.774   0.427   9.193  0.0664 -0.7886 -0.0551
  181SLPC  H17X20797   5.853   0.455   9.266 -1.2832  2.3426  0.3765
  181SLPC  H17Y20798   5.745   0.529   9.157 -2.6032 -1.0929  1.0228
  181SLPC  C31820799   5.812   0.346   9.071 -1.1965 -0.1678  0.0626
  181SLPC  H18X20800   5.912   0.374   9.032 -1.5201  1.1476  0.1389
  181SLPC  H18Y20801   5.735   0.365   8.994  1.3665 -0.3938 -2.7608
  181SLPC  H18Z20802   5.815   0.237   9.094  0.4348 -0.2087 -0.2208
  182SLPC     N20803   2.375   2.438  11.188 -0.4091  0.6986  0.1823
  182SLPC   C1320804   2.514   2.450  11.240  0.0491 -0.0652 -0.9333
  182SLPC  H13A20805   2.572   2.359  11.245 -0.3799 -0.2742  0.9048
  182SLPC  H13B20806   2.573   2.525  11.191 -3.1811  0.5261 -4.4185
  182SLPC  H13C20807   2.496   2.484  11.341  0.0408 -1.9055 -0.2747
  182SLPC   C1420808   2.312   2.570  11.186  0.5282 -1.1727 -0.1043
  182SLPC  H14A20809   2.212   2.563  11.144  1.6889 -2.5216 -2.9110
  182SLPC  H14B20810   2.294   2.623  11.279 -2.1033 -1.1788 -0.5173
  182SLPC  H14C20811   2.366   2.644  11.130 -2.9765  1.3092 -0.5444
  182SLPC   C1520812   2.295   2.339  11.268  0.5933  0.5012 -0.1539
  182SLPC  H15A20813   2.354   2.251  11.286  0.4739  0.4122 -0.1954
  182SLPC  H15B20814   2.284   2.381  11.367 -1.2128 -0.7608  0.2351
  182SLPC  H15C20815   2.202   2.303  11.226  0.7327  0.4819 -0.4470
  182SLPC   C1220816   2.384   2.370  11.048 -0.7498 -0.2555 -0.7149
  182SLPC  H12A20817   2.284   2.352  11.012 -1.1703  1.3053 -0.3758
  182SLPC  H12B20818   2.426   2.273  11.070 -2.1414 -0.7460 -0.1224
  182SLPC   C1120819   2.462   2.438  10.925 -0.6171 -0.0786 -0.1337
  182SLPC  H11A20820   2.434   2.382  10.833 -0.3414 -0.4508  0.0111
  182SLPC  H11B20821   2.572   2.432  10.935 -0.4311  0.6848 -1.5246
  182SLPC     P20822   2.285   2.615  10.848  0.1260 -0.4365 -0.1428
  182SLPC   O1320823   2.177   2.541  10.915 -0.2230  0.5562 -0.1614
  182SLPC   O1420824   2.266   2.762  10.846 -0.6568 -0.1187 -0.4384
  182SLPC   O1220825   2.430   2.573  10.907 -0.5326  0.5471  0.1928
  182SLPC   O1120826   2.299   2.559  10.703 -0.0588 -0.2326 -0.2271
  182SLPC    C120827   2.403   2.609  10.616  0.8121 -0.7128 -0.0868
  182SLPC    HA20828   2.381   2.711  10.580  1.6021 -0.0421  1.2648
  182SLPC    HB20829   2.501   2.620  10.666  1.5591  1.8550 -1.9623
  182SLPC    C220830   2.428   2.515  10.497  0.2893 -0.2759 -0.3616
  182SLPC    HS20831   2.530   2.530  10.455  0.2225 -0.7208 -0.6841
  182SLPC   O2120832   2.322   2.536  10.400  0.2372  0.3156  0.1508
  182SLPC   C2120833   2.347   2.623  10.308 -0.3655 -0.1184  0.0877
  182SLPC   O2220834   2.449   2.685  10.294 -0.9155 -0.3628 -0.6101
  182SLPC   C2220835   2.221   2.631  10.227  0.3730 -0.8546  0.9574
  182SLPC   H2R20836   2.175   2.531  10.209 -2.0960  0.1091  1.5444
  182SLPC   H2S20837   2.146   2.688  10.286 -0.0773 -0.9719  0.5069
  182SLPC    C320838   2.427   2.374  10.541  0.0666 -0.1070  0.0878
  182SLPC    HX20839   2.323   2.351  10.576 -0.8832  0.1762 -2.3567
  182SLPC    HY20840   2.495   2.353  10.627  0.0826 -2.4561 -0.4249
  182SLPC   O3120841   2.454   2.270  10.438  0.6768  0.0088 -0.3669
  182SLPC   C3120842   2.574   2.248  10.400 -0.0281 -0.1032 -0.4787
  182SLPC   O3220843   2.673   2.300  10.453 -0.0285  0.1800 -0.6956
  182SLPC   C3220844   2.571   2.163  10.276 -0.4638  0.1441  0.1027
  182SLPC   H2X20845   2.462   2.152  10.255 -0.7057  0.4434  1.1601
  182SLPC   H2Y20846   2.614   2.064  10.301  0.2066  0.5787  0.6917
  182SLPC   C2320847   2.227   2.712  10.090 -0.4670  0.4796 -0.2976
  182SLPC   H3R20848   2.273   2.810  10.114 -1.2951  1.6182 -2.9856
  182SLPC   H3S20849   2.121   2.727  10.058 -0.9924 -0.4372  0.9094
  182SLPC   C2420850   2.289   2.641   9.977 -1.1367 -0.1119 -0.3517
  182SLPC   H4R20851   2.233   2.548   9.954  0.6905 -1.4880  0.4963
  182SLPC   H4S20852   2.395   2.619  10.003 -1.2277 -0.5351 -0.3410
  182SLPC   C2520853   2.288   2.725   9.848 -0.0995 -0.5122 -0.1388
  182SLPC   H5R20854   2.386   2.776   9.842  0.0318 -0.8970 -1.6852
  182SLPC   H5S20855   2.194   2.784   9.847  0.4722  0.4519  0.7815
  182SLPC   C2620856   2.291   2.630   9.721  0.0942 -0.1983  0.2571
  182SLPC   H6R20857   2.195   2.575   9.722 -0.5053  0.7826 -1.1090
  182SLPC   H6S20858   2.375   2.557   9.730 -0.0363 -0.2410  1.2439
  182SLPC   C2720859   2.305   2.710   9.588 -0.3963 -1.3700  0.2651
  182SLPC   H7R20860   2.403   2.762   9.594 -1.1980  0.1352  0.8501
  182SLPC   H7S20861   2.235   2.797   9.587 -1.4745 -2.2210 -0.3162
  182SLPC   C2820862   2.316   2.619   9.464  0.1325  0.1872  0.0076
  182SLPC   H8R20863   2.395   2.545   9.487 -0.4613 -0.7847 -1.0021
  182SLPC   H8S20864   2.359   2.675   9.378 -1.6140  1.5227 -0.0632
  182SLPC   C2920865   2.178   2.561   9.416 -0.2715 -0.0865  0.1367
  182SLPC   H9R20866   2.101   2.637   9.399  0.8868  0.3935 -4.2516
  182SLPC  C21020867   2.150   2.434   9.409  0.8010  0.2898  0.2783
  182SLPC  H10R20868   2.046   2.414   9.381  0.6115  0.2744  0.9821
  182SLPC  C21120869   2.243   2.318   9.447 -0.3689 -0.5573  0.0984
  182SLPC  H11R20870   2.277   2.325   9.553 -0.5991 -1.1388  0.2156
  182SLPC  H11S20871   2.338   2.329   9.391 -2.0151  0.3279 -2.6966
  182SLPC  C21220872   2.174   2.184   9.435  0.1376  0.0416  0.3117
  182SLPC  H12R20873   2.066   2.196   9.457  0.2310  0.2786  0.6472
  182SLPC  C21320874   2.226   2.076   9.373 -0.2940 -0.3296  0.8345
  182SLPC  H13R20875   2.161   1.990   9.355 -3.1263  1.8575 -0.0572
  182SLPC  C21420876   2.364   2.075   9.310  0.1133  0.2237  0.7231
  182SLPC  H14R20877   2.415   1.977   9.298 -0.0709  0.2938 -0.8943
  182SLPC  H14S20878   2.430   2.140   9.371  0.0468 -0.5667  1.6618
  182SLPC  C21520879   2.360   2.119   9.157 -0.3540 -0.0913  0.5839
  182SLPC  H15R20880   2.462   2.143   9.122 -1.1320  0.0337 -1.7339
  182SLPC  H15S20881   2.306   2.216   9.145  2.4207  1.4599 -0.4700
  182SLPC  C21620882   2.299   2.012   9.066  0.0191 -0.0934  0.0259
  182SLPC  H16R20883   2.249   2.053   8.976 -2.2295 -1.3380  0.6331
  182SLPC  H16S20884   2.212   1.961   9.111  0.3172 -0.5670  0.0653
  182SLPC  C21720885   2.396   1.904   9.023 -0.0378 -0.0163 -0.0061
  182SLPC  H17R20886   2.432   1.848   9.112  0.8770  1.2808  0.4705
  182SLPC  H17S20887   2.486   1.949   8.976  0.3396 -2.5152 -1.9097
  182SLPC  C21820888   2.349   1.802   8.917  0.3316 -0.0842 -0.0660
  182SLPC  H18R20889   2.429   1.726   8.902 -0.7809 -1.6274  1.3970
  182SLPC  H18S20890   2.332   1.860   8.824 -1.1721  1.5768  1.1882
  182SLPC  H18T20891   2.257   1.754   8.956 -0.6735  2.2968  0.6548
  182SLPC   C3320892   2.643   2.223  10.155 -0.6395  0.5609 -0.0269
  182SLPC   H3X20893   2.621   2.165  10.063  0.2371  0.2673 -0.0633
  182SLPC   H3Y20894   2.753   2.209  10.162 -0.6821 -1.3445 -2.1148
  182SLPC   C3420895   2.609   2.364  10.119  0.2061  0.0505  0.3301
  182SLPC   H4X20896   2.669   2.431  10.186 -1.1985 -0.6343  2.3658
  182SLPC   H4Y20897   2.504   2.384  10.148  0.4652  1.2208  0.5187
  182SLPC   C3520898   2.632   2.399   9.971 -0.4169 -0.4923  0.5990
  182SLPC   H5X20899   2.592   2.498   9.941 -0.4684 -1.5904 -3.4532
  182SLPC   H5Y20900   2.572   2.330   9.909 -2.4064  1.4456  0.2076
  182SLPC   C3620901   2.784   2.401   9.938  0.5237  0.0144  0.3333
  182SLPC   H6X20902   2.824   2.299   9.954 -0.9687 -0.6106  0.2714
  182SLPC   H6Y20903   2.829   2.466  10.016 -1.3667  1.1701  0.5152
  182SLPC   C3720904   2.827   2.457   9.803 -0.0369  0.3079  0.8190
  182SLPC   H7X20905   2.934   2.427   9.793 -0.3633 -0.9050  0.7444
  182SLPC   H7Y20906   2.833   2.568   9.807 -0.9550  0.5503 -2.0794
  182SLPC   C3820907   2.766   2.391   9.683  0.0986  0.0687 -0.0402
  182SLPC   H8X20908   2.655   2.399   9.684 -0.0259 -1.0843 -1.3884
  182SLPC   H8Y20909   2.782   2.281   9.692 -1.1815 -0.1762 -0.5492
  182SLPC   C3920910   2.816   2.455   9.555  0.1717 -0.1985  0.5651
  182SLPC   H9X20911   2.926   2.442   9.553  0.0004 -1.9006 -1.1151
  182SLPC   H9Y20912   2.806   2.562   9.582  4.1777  0.3880  0.2552
  182SLPC  C31020913   2.751   2.411   9.423  0.5513 -1.1317  0.7236
  182SLPC  H10X20914   2.784   2.485   9.347 -0.2917 -0.3555  1.0954
  182SLPC  H10Y20915   2.640   2.406   9.434  0.4310  0.9409  0.9667
  182SLPC  C31120916   2.806   2.277   9.375 -0.1267 -0.2838  0.0370
  182SLPC  H11X20917   2.793   2.204   9.457  0.7982  1.8019  2.1702
  182SLPC  H11Y20918   2.915   2.288   9.353 -0.2571 -0.2744 -0.6319
  182SLPC  C31220919   2.753   2.215   9.244 -0.1192 -0.1492 -0.1595
  182SLPC  H12X20920   2.654   2.174   9.275  1.0685 -1.2894  2.3752
  182SLPC  H12Y20921   2.819   2.129   9.220 -0.9791 -0.4622 -1.5224
  182SLPC  C31320922   2.744   2.301   9.119  0.5745 -0.4370 -0.2488
  182SLPC  H13X20923   2.840   2.356   9.108 -0.9081  2.2263 -0.8574
  182SLPC  H13Y20924   2.658   2.371   9.130  0.0785 -1.2906  1.7438
  182SLPC  C31420925   2.725   2.202   8.996 -0.1502 -0.3047  0.9712
  182SLPC  H14X20926   2.626   2.151   9.001 -0.1579 -0.2248  1.7355
  182SLPC  H14Y20927   2.807   2.128   8.980  1.9365  2.0098  0.3395
  182SLPC  C31520928   2.722   2.285   8.861  0.0152  0.0871 -0.1792
  182SLPC  H15X20929   2.824   2.312   8.828 -0.1993  1.0792 -0.0524
  182SLPC  H15Y20930   2.660   2.377   8.863 -2.7304 -1.4984 -3.0727
  182SLPC  C31620931   2.638   2.211   8.756 -0.0356  0.5549  0.1984
  182SLPC  H16X20932   2.530   2.216   8.778 -0.0111  1.2997  0.1902
  182SLPC  H16Y20933   2.669   2.105   8.745  1.5332  1.1364 -1.5127
  182SLPC  C31720934   2.635   2.277   8.611  0.5184  0.6072  0.2034
  182SLPC  H17X20935   2.611   2.385   8.620 -0.2832  0.4729 -0.2834
  182SLPC  H17Y20936   2.554   2.228   8.553 -1.9262  1.7004  2.4239
  182SLPC  C31820937   2.757   2.286   8.537  0.3431  0.7775  0.8242
  182SLPC  H18X20938   2.813   2.190   8.538  2.2568  1.8331  1.7960
  182SLPC  H18Y20939   2.826   2.358   8.586  0.6858  1.4320 -0.5803
  182SLPC  H18Z20940   2.747   2.314   8.430 -0.4981  0.9796  0.9474
  183SLPC     N20941   4.418   2.106  11.299 -0.0520  0.9483 -0.0758
  183SLPC   C1320942   4.569   2.125  11.306 -0.4532 -0.5903 -0.1049
  183SLPC  H13A20943   4.617   2.067  11.383 -0.1033  0.6944  0.6801
  183SLPC  H13B20944   4.614   2.098  11.212  0.0992 -0.7554  0.2067
  183SLPC  H13C20945   4.593   2.229  11.321  3.3027 -0.9783 -2.2255
  183SLPC   C1420946   4.362   2.196  11.191 -1.0280 -0.5025 -0.6726
  183SLPC  H14A20947   4.388   2.156  11.095  0.1538 -0.4040 -0.4091
  183SLPC  H14B20948   4.254   2.203  11.200 -1.0357  1.1993 -1.7510
  183SLPC  H14C20949   4.414   2.289  11.205 -0.9509 -0.4828 -1.0969
  183SLPC   C1520950   4.364   2.144  11.434  0.1757 -0.5478 -0.3832
  183SLPC  H15A20951   4.383   2.249  11.454  1.4700 -0.6305 -1.0747
  183SLPC  H15B20952   4.257   2.128  11.437  0.3651 -1.7797  2.3687
  183SLPC  H15C20953   4.411   2.085  11.511  0.9394  2.5333  1.7055
  183SLPC   C1220954   4.389   1.951  11.264  0.5593 -1.0522 -0.5103
  183SLPC  H12A20955   4.281   1.945  11.272  0.3018  1.0229 -1.7471
  183SLPC  H12B20956   4.436   1.891  11.340 -0.3832  0.4486  1.3594
  183SLPC   C1120957   4.432   1.902  11.125  0.0468 -0.5611  0.1500
  183SLPC  H11A20958   4.431   1.791  11.130 -1.0284 -0.5008  2.2989
  183SLPC  H11B20959   4.538   1.937  11.122 -0.0653 -0.1827  0.5119
  183SLPC     P20960   4.275   1.869  10.911  0.3011 -0.0371 -0.0892
  183SLPC   O1320961   4.178   1.785  10.989  0.2024  0.3831  0.0965
  183SLPC   O1420962   4.215   1.961  10.814  0.6773 -0.3995 -0.0172
  183SLPC   O1220963   4.362   1.957  11.017  0.3286  0.3758  0.0026
  183SLPC   O1120964   4.382   1.779  10.848 -0.3106  0.4035 -0.0986
  183SLPC    C120965   4.512   1.809  10.804  0.2643  0.2491 -0.1381
  183SLPC    HA20966   4.556   1.884  10.873 -1.4744  1.1410  0.0761
  183SLPC    HB20967   4.582   1.724  10.791  1.5082  1.1443  0.5502
  183SLPC    C220968   4.507   1.876  10.664 -0.2484 -0.8671 -0.2271
  183SLPC    HS20969   4.468   1.978  10.681  1.0264 -0.6711  1.8973
  183SLPC   O2120970   4.432   1.787  10.573 -0.1843 -0.5925 -0.4302
  183SLPC   C2120971   4.400   1.841  10.460 -0.2937  0.4850  0.4946
  183SLPC   O2220972   4.367   1.959  10.445  0.0485  0.3457  0.2136
  183SLPC   C2220973   4.373   1.731  10.352 -0.2938 -0.1880  0.8207
  183SLPC   H2R20974   4.464   1.669  10.337  0.1057  0.9176 -1.7604
  183SLPC   H2S20975   4.301   1.657  10.393  1.6372 -1.5448  1.9055
  183SLPC    C320976   4.657   1.907  10.607 -0.7831 -0.1354 -0.1331
  183SLPC    HX20977   4.700   1.805  10.605  1.4377  0.7613 -0.1951
  183SLPC    HY20978   4.714   1.957  10.687 -2.9293  2.9924 -0.3786
  183SLPC   O3120979   4.665   1.971  10.478 -0.2706  0.1910  0.4547
  183SLPC   C3120980   4.653   2.102  10.478  0.0858  0.9162  0.9030
  183SLPC   O3220981   4.636   2.168  10.578  0.5853  0.1106 -0.2468
  183SLPC   C3220982   4.674   2.154  10.326  0.6969  0.1680 -0.2965
  183SLPC   H2X20983   4.619   2.090  10.253  0.1056  1.4499 -1.0003
  183SLPC   H2Y20984   4.784   2.153  10.315  0.9401 -2.5137  1.2912
  183SLPC   C2320985   4.315   1.795  10.219  0.3894 -0.1759 -0.0215
  183SLPC   H3R20986   4.376   1.881  10.184 -1.2504  1.5160  1.0998
  183SLPC   H3S20987   4.217   1.832  10.256 -0.0898  1.9546 -3.0963
  183SLPC   C2420988   4.295   1.706  10.099  0.4186 -0.1358 -0.5393
  183SLPC   H4R20989   4.199   1.733  10.051  0.5702  0.8110 -0.3381
  183SLPC   H4S20990   4.294   1.600  10.131 -0.1078 -0.2940 -1.0713
  183SLPC   C2520991   4.400   1.725   9.995  0.3022 -0.2345  0.4153
  183SLPC   H5R20992   4.498   1.726  10.047  2.2611  1.6215 -2.9625
  183SLPC   H5S20993   4.392   1.828   9.955 -0.1886  1.5533  4.5854
  183SLPC   C2620994   4.381   1.623   9.882  0.1077 -0.9586 -0.1768
  183SLPC   H6R20995   4.289   1.636   9.820 -0.4609 -2.2584  0.3708
  183SLPC   H6S20996   4.364   1.520   9.919 -1.4007 -1.1200 -1.2166
  183SLPC   C2720997   4.491   1.640   9.782 -0.5556  0.5108  0.0451
  183SLPC   H7R20998   4.590   1.615   9.827  0.7805  1.4340 -2.2032
  183SLPC   H7S20999   4.498   1.746   9.749  1.1415  0.7607  1.0766
  183SLPC   C2821000   4.480   1.548   9.658  0.2135  0.2759 -0.2228
  183SLPC   H8R21001   4.560   1.581   9.589  0.1952 -1.6083 -1.2270
  183SLPC   H8S21002   4.380   1.574   9.617 -1.0880 -1.5221  1.6164
  183SLPC   C2921003   4.483   1.397   9.674 -0.3071 -0.3766  0.6840
  183SLPC   H9R21004   4.581   1.356   9.702  0.8871  1.0953 -1.1021
  183SLPC  C21021005   4.381   1.312   9.677 -0.4283  0.8653 -0.0405
  183SLPC  H10R21006   4.405   1.204   9.673  1.3265  1.2472 -0.8392
  183SLPC  C21121007   4.234   1.345   9.654  0.5041  0.1923 -0.7373
  183SLPC  H11R21008   4.232   1.435   9.589 -0.5346  1.6684  1.2254
  183SLPC  H11S21009   4.198   1.381   9.753  0.3480  1.0082 -1.0779
  183SLPC  C21221010   4.151   1.223   9.605  0.1429  0.6113  0.4067
  183SLPC  H12R21011   4.161   1.132   9.666  1.6179 -0.6593 -1.5897
  183SLPC  C21321012   4.064   1.216   9.495 -0.1332  0.6792  0.0658
  183SLPC  H13R21013   4.022   1.118   9.468  1.3937  0.2059 -0.7142
  183SLPC  C21421014   4.023   1.321   9.388  0.8395  0.6260 -0.5246
  183SLPC  H14R21015   4.051   1.425   9.417  1.5219  0.3570 -0.1955
  183SLPC  H14S21016   3.922   1.292   9.354  0.3121 -1.1063  2.2831
  183SLPC  C21521017   4.107   1.302   9.261 -0.2058  0.2307  0.3189
  183SLPC  H15R21018   4.213   1.281   9.290 -0.4537 -0.9703  0.4203
  183SLPC  H15S21019   4.106   1.391   9.195  0.9722  0.0425  0.0216
  183SLPC  C21621020   4.060   1.183   9.170 -0.1384  0.0649  0.2628
  183SLPC  H16R21021   3.959   1.205   9.128  0.6365  1.7020 -0.8383
  183SLPC  H16S21022   4.045   1.093   9.234  1.0649 -0.2758  0.0842
  183SLPC  C21721023   4.140   1.146   9.044 -0.3690 -0.2679  0.3126
  183SLPC  H17R21024   4.158   1.239   8.987 -1.0213 -0.8729 -0.9222
  183SLPC  H17S21025   4.076   1.085   8.977 -0.8548  1.2066 -0.6135
  183SLPC  C21821026   4.262   1.062   9.071  0.6279  0.3645 -0.1417
  183SLPC  H18R21027   4.241   0.972   9.132 -2.5509 -0.0087 -1.5687
  183SLPC  H18S21028   4.337   1.124   9.125 -1.6214  1.8543  1.4853
  183SLPC  H18T21029   4.311   1.016   8.983  1.4740 -0.5427  0.7795
  183SLPC   C3321030   4.631   2.300  10.301 -0.3730  0.0857 -0.2354
  183SLPC   H3X21031   4.672   2.353  10.390 -1.3093 -0.8383  0.8007
  183SLPC   H3Y21032   4.522   2.319  10.292 -0.2381  1.6997  1.0671
  183SLPC   C3421033   4.701   2.356  10.173 -0.1694 -0.7484 -0.2572
  183SLPC   H4X21034   4.811   2.344  10.179  0.1445  1.0726 -1.4753
  183SLPC   H4Y21035   4.697   2.465  10.151 -0.1930 -0.3768  1.4384
  183SLPC   C3521036   4.652   2.295  10.048  0.7556 -0.1167  0.9292
  183SLPC   H5X21037   4.604   2.377   9.990  1.3636  0.6899  1.5385
  183SLPC   H5Y21038   4.580   2.217  10.081 -0.1848  0.1705 -0.3721
  183SLPC   C3621039   4.756   2.230   9.954 -0.3200  0.1705 -0.2522
  183SLPC   H6X21040   4.823   2.169  10.017 -0.3974 -0.5121 -0.8199
  183SLPC   H6Y21041   4.814   2.323   9.937  0.8109 -0.0432  2.1453
  183SLPC   C3721042   4.695   2.162   9.833 -0.1187 -0.0267 -0.3942
  183SLPC   H7X21043   4.609   2.222   9.797 -1.2858 -1.3929  0.0258
  183SLPC   H7Y21044   4.652   2.068   9.873 -1.0240  1.0565  1.2872
  183SLPC   C3821045   4.796   2.121   9.726 -0.2330  0.4331 -0.5467
  183SLPC   H8X21046   4.886   2.079   9.775  0.0525 -2.1515 -3.0584
  183SLPC   H8Y21047   4.817   2.215   9.671  0.5278  1.7444  1.8426
  183SLPC   C3921048   4.738   2.009   9.630  0.1595 -0.9918  0.0535
  183SLPC   H9X21049   4.669   2.067   9.565  3.3278 -1.2510 -3.9530
  183SLPC   H9Y21050   4.687   1.931   9.690 -0.2116 -1.0749 -0.3632
  183SLPC  C31021051   4.844   1.928   9.538  0.7230 -0.1888  0.1677
  183SLPC  H10X21052   4.922   1.882   9.603 -0.6192 -1.2603  1.0672
  183SLPC  H10Y21053   4.881   2.009   9.471 -0.4676 -0.1098 -0.4224
  183SLPC  C31121054   4.777   1.819   9.448 -0.1908  0.1598 -0.9332
  183SLPC  H11X21055   4.684   1.874   9.419  0.5949  1.4335 -1.1378
  183SLPC  H11Y21056   4.756   1.727   9.507  0.0398 -0.2551 -1.4928
  183SLPC  C31221057   4.858   1.780   9.323  0.2820 -0.0779  1.1214
  183SLPC  H12X21058   4.823   1.677   9.301  0.8445 -0.5662  2.3898
  183SLPC  H12Y21059   4.959   1.753   9.363 -0.6283 -4.0901  1.1594
  183SLPC  C31321060   4.858   1.889   9.210 -0.0796 -0.6046 -0.6309
  183SLPC  H13X21061   4.919   1.978   9.239 -1.3952  0.6455 -1.5141
  183SLPC  H13Y21062   4.750   1.915   9.200 -0.2910 -1.9154 -2.0896
  183SLPC  C31421063   4.894   1.854   9.063 -0.8656 -0.5972 -0.5762
  183SLPC  H14X21064   4.999   1.824   9.043 -0.6618 -0.4893  0.3080
  183SLPC  H14Y21065   4.871   1.942   8.999  0.7710 -0.3674 -0.9114
  183SLPC  C31521066   4.797   1.740   9.023  0.2663  0.6091  0.6159
  183SLPC  H15X21067   4.690   1.766   9.037 -0.5019 -1.6515 -0.5181
  183SLPC  H15Y21068   4.823   1.656   9.090  1.1207 -0.4591 -0.9762
  183SLPC  C31621069   4.824   1.697   8.876 -0.6930 -0.4954  0.5192
  183SLPC  H16X21070   4.932   1.672   8.862 -0.2582  1.6647 -0.5188
  183SLPC  H16Y21071   4.799   1.780   8.806  0.6148 -1.0227 -0.6312
  183SLPC  C31721072   4.744   1.581   8.823  0.1487  0.4061 -1.2976
  183SLPC  H17X21073   4.639   1.600   8.854 -0.2857 -3.0521 -0.2019
  183SLPC  H17Y21074   4.780   1.497   8.886  2.6808  1.9713 -0.4900
  183SLPC  C31821075   4.758   1.533   8.680  0.6387 -0.4493 -0.8839
  183SLPC  H18X21076   4.866   1.527   8.655  0.3552 -0.5278 -2.1392
  183SLPC  H18Y21077   4.717   1.603   8.604 -0.6845  0.5347  0.6559
  183SLPC  H18Z21078   4.713   1.432   8.669  1.2627 -1.0133  1.1826
  184SLPC     N21079   6.801   6.134  10.892  0.3085  0.1802 -0.3235
  184SLPC   C1321080   6.715   6.045  10.815  0.6228 -0.0329  0.2338
  184SLPC  H13A21081   6.704   6.081  10.714 -0.3091  0.1337  0.3823
  184SLPC  H13B21082   6.762   5.948  10.819  1.3178  0.3329  1.8794
  184SLPC  H13C21083   6.614   6.048  10.854  1.3503  1.1912  2.1149
  184SLPC   C1421084   6.930   6.155  10.821  0.0786  0.8104 -0.6849
  184SLPC  H14A21085   6.911   6.211  10.731  2.1444  0.1019 -1.6334
  184SLPC  H14B21086   7.009   6.200  10.880 -1.4288  1.8729  0.5751
  184SLPC  H14C21087   6.968   6.064  10.776 -0.7765 -0.0048  0.2084
  184SLPC   C1521088   6.834   6.064  11.026 -0.2481  0.3936 -0.2503
  184SLPC  H15A21089   6.742   6.056  11.083 -1.6277 -0.1357 -2.4459
  184SLPC  H15B21090   6.874   5.966  11.006 -0.9894 -0.2692  1.3072
  184SLPC  H15C21091   6.910   6.113  11.085 -0.9533 -0.8516  1.8102
  184SLPC   C1221092   6.740   6.266  10.932  0.1556 -0.1783  0.0356
  184SLPC  H12A21093   6.799   6.323  11.002  0.0049  0.1856 -0.1308
  184SLPC  H12B21094   6.648   6.241  10.983  0.6125 -1.6995  0.1738
  184SLPC   C1121095   6.698   6.368  10.823  0.4713 -0.4917  0.0959
  184SLPC  H11A21096   6.782   6.392  10.755  1.6654 -2.7073  0.6743
  184SLPC  H11B21097   6.680   6.457  10.886  2.0168 -1.3646  1.8802
  184SLPC     P21098   6.429   6.326  10.811  0.5381 -0.4101 -0.4104
  184SLPC   O1321099   6.339   6.239  10.734  0.0022 -0.0749  0.2322
  184SLPC   O1421100   6.433   6.301  10.955 -0.0758 -0.2833 -0.4706
  184SLPC   O1221101   6.577   6.331  10.753 -0.1532 -0.1196 -0.0518
  184SLPC   O1121102   6.391   6.482  10.784  0.1286 -0.5886 -0.0361
  184SLPC    C121103   6.429   6.525  10.651 -0.1231  0.1922 -0.8714
  184SLPC    HA21104   6.538   6.545  10.655  0.1047 -0.9194 -1.1675
  184SLPC    HB21105   6.410   6.445  10.576 -1.0640  0.0509 -0.4997
  184SLPC    C221106   6.352   6.649  10.598 -0.0074 -0.0960 -0.1892
  184SLPC    HS21107   6.357   6.726  10.679  1.0238 -0.7205  0.3745
  184SLPC   O2121108   6.217   6.611  10.557 -0.0618 -1.0217 -0.6534
  184SLPC   C2121109   6.130   6.715  10.559 -0.7300  0.7040  0.3063
  184SLPC   O2221110   6.165   6.829  10.580  0.5331 -0.6441  0.2599
  184SLPC   C2221111   5.995   6.661  10.508 -0.5191 -0.4078  0.1327
  184SLPC   H2R21112   6.021   6.586  10.431 -1.2012 -0.3303 -0.1823
  184SLPC   H2S21113   5.945   6.606  10.591  0.7886 -2.5113 -0.4048
  184SLPC    C321114   6.429   6.706  10.473  0.2642  0.0415  0.4056
  184SLPC    HX21115   6.537   6.723  10.496 -0.1604  2.7623  0.7376
  184SLPC    HY21116   6.385   6.803  10.442  2.2109  0.7339 -0.3936
  184SLPC   O3121117   6.419   6.613  10.364  0.3455 -0.0885 -0.2966
  184SLPC   C3121118   6.332   6.640  10.270 -0.2240  0.5968 -0.6028
  184SLPC   O3221119   6.265   6.740  10.264 -0.0620 -0.2376  0.1329
  184SLPC   C3221120   6.354   6.540  10.160  0.3459 -0.1993  0.1936
  184SLPC   H2X21121   6.441   6.473  10.182 -0.0125 -0.7547 -0.0578
  184SLPC   H2Y21122   6.385   6.602  10.074 -2.2870  0.3409 -0.4462
  184SLPC   C2321123   5.896   6.775  10.456 -0.1632  0.7611  0.2204
  184SLPC   H3R21124   5.921   6.799  10.351 -1.1123 -2.2011 -0.7907
  184SLPC   H3S21125   5.914   6.866  10.517 -0.1998  0.4159  0.7569
  184SLPC   C2421126   5.747   6.738  10.462  1.2731 -0.5902 -0.0337
  184SLPC   H4R21127   5.688   6.833  10.464  1.0553 -0.7286  1.4141
  184SLPC   H4S21128   5.731   6.714  10.569 -0.4510  2.6892  0.6064
  184SLPC   C2521129   5.692   6.636  10.363  0.3213 -0.6507 -0.4579
  184SLPC   H5R21130   5.588   6.601  10.378 -0.4311  1.3460 -0.7136
  184SLPC   H5S21131   5.754   6.544  10.369  0.9642 -0.2487 -0.8128
  184SLPC   C2621132   5.684   6.681  10.214 -0.8240 -0.3802 -0.1146
  184SLPC   H6R21133   5.784   6.715  10.181 -0.9921  1.2544  0.9483
  184SLPC   H6S21134   5.605   6.753  10.185 -0.6882 -0.4507 -0.6642
  184SLPC   C2721135   5.664   6.557  10.117  0.0015  0.1787  0.1598
  184SLPC   H7R21136   5.569   6.508  10.145  0.2110  0.6262  1.7496
  184SLPC   H7S21137   5.733   6.474  10.142 -1.3132 -0.8693  0.4265
  184SLPC   C2821138   5.665   6.600   9.972 -0.2647  0.1272  0.4884
  184SLPC   H8R21139   5.762   6.649   9.947 -0.5154 -0.0867 -1.0252
  184SLPC   H8S21140   5.588   6.679   9.958 -1.1623 -0.8342 -0.1528
  184SLPC   C2921141   5.630   6.497   9.874 -0.7721 -0.1535  0.1568
  184SLPC   H9R21142   5.561   6.418   9.906  0.1295 -1.8140 -1.7712
  184SLPC  C21021143   5.687   6.498   9.750  0.6606 -0.9366 -0.1008
  184SLPC  H10R21144   5.666   6.420   9.675  2.2498  0.2333 -1.8531
  184SLPC  C21121145   5.782   6.616   9.697  0.6225  0.1533 -0.5389
  184SLPC  H11R21146   5.875   6.606   9.758 -0.1423 -1.5750  0.3998
  184SLPC  H11S21147   5.752   6.719   9.726  0.3264 -0.1810  0.4021
  184SLPC  C21221148   5.811   6.602   9.552 -0.0672 -0.6392  0.2290
  184SLPC  H12R21149   5.773   6.508   9.509  0.3004 -1.3051  1.3086
  184SLPC  C21321150   5.854   6.700   9.474 -0.3457  0.5342  0.7984
  184SLPC  H13R21151   5.865   6.685   9.365 -2.0832  0.2982  0.6313
  184SLPC  C21421152   5.900   6.843   9.506  0.3482  1.2106 -0.6079
  184SLPC  H14R21153   5.971   6.833   9.590 -0.9730 -1.1002  0.3274
  184SLPC  H14S21154   5.809   6.899   9.538 -0.3829  0.2447 -0.9538
  184SLPC  C21521155   5.967   6.926   9.389 -0.0324  0.3859 -0.4100
  184SLPC  H15R21156   5.914   6.937   9.292  2.8199  0.9259 -2.0393
  184SLPC  H15S21157   6.067   6.879   9.376 -0.0472 -0.4009  1.8205
  184SLPC  C21621158   5.985   7.070   9.433 -0.1380 -0.6040 -0.5598
  184SLPC  H16R21159   6.018   7.064   9.539 -0.3833  1.1660 -0.3518
  184SLPC  H16S21160   5.881   7.108   9.445  0.7810  1.5960  1.0585
  184SLPC  C21721161   6.081   7.166   9.350 -0.5409  0.4940 -0.2540
  184SLPC  H17R21162   6.033   7.173   9.249  0.0137 -0.3491 -0.5852
  184SLPC  H17S21163   6.179   7.115   9.338 -0.6049  0.3331 -0.0972
  184SLPC  C21821164   6.101   7.299   9.413  0.6531  0.4728 -0.7746
  184SLPC  H18R21165   6.133   7.279   9.518 -0.8114  0.7778 -0.2445
  184SLPC  H18S21166   6.000   7.344   9.423  0.4240  0.0559 -1.1601
  184SLPC  H18T21167   6.170   7.368   9.361  2.1276  3.3817  4.3258
  184SLPC   C3321168   6.222   6.460  10.121  0.2751 -0.0254 -0.3162
  184SLPC   H3X21169   6.150   6.461  10.206 -0.1017 -0.3725 -0.6262
  184SLPC   H3Y21170   6.249   6.354  10.099 -0.4572 -1.1719  3.4435
  184SLPC   C3421171   6.159   6.531  10.004  0.9312 -0.3724  0.2531
  184SLPC   H4X21172   6.157   6.641  10.019  1.5751 -0.3921  0.5208
  184SLPC   H4Y21173   6.054   6.496  10.002  1.0510 -0.7103 -1.0372
  184SLPC   C3521174   6.228   6.483   9.875 -0.5158 -0.5638  0.8243
  184SLPC   H5X21175   6.203   6.375   9.863 -0.3646 -0.3210 -2.7893
  184SLPC   H5Y21176   6.339   6.487   9.883 -0.4866  0.4745  0.1605
  184SLPC   C3621177   6.183   6.545   9.741 -0.2024 -0.7589  0.0604
  184SLPC   H6X21178   6.205   6.654   9.734 -0.5924 -0.7943 -3.3874
  184SLPC   H6Y21179   6.073   6.534   9.742 -0.2142 -0.6318  0.2586
  184SLPC   C3721180   6.234   6.462   9.624  1.5331  0.5579  0.0817
  184SLPC   H7X21181   6.191   6.360   9.630  1.3613  0.5374 -1.1774
  184SLPC   H7Y21182   6.345   6.457   9.628  1.5842  0.9560 -0.6083
  184SLPC   C3821183   6.208   6.538   9.492  0.2523 -0.1375  0.2465
  184SLPC   H8X21184   6.248   6.641   9.505 -1.1182  0.6102 -1.0560
  184SLPC   H8Y21185   6.097   6.532   9.487  0.3616 -1.5774 -1.5058
  184SLPC   C3921186   6.267   6.473   9.365 -0.1579 -0.2144  0.2932
  184SLPC   H9X21187   6.212   6.379   9.346 -1.6223  0.8462 -1.0504
  184SLPC   H9Y21188   6.370   6.440   9.388 -1.0767 -4.0832 -0.4720
  184SLPC  C31021189   6.254   6.562   9.241 -0.4367  0.0181 -0.5443
  184SLPC  H10X21190   6.314   6.525   9.155 -0.7680 -1.9883  0.0324
  184SLPC  H10Y21191   6.293   6.663   9.265  2.7010 -0.8961 -1.2583
  184SLPC  C31121192   6.106   6.578   9.197 -0.2279 -0.2153 -0.9193
  184SLPC  H11X21193   6.041   6.616   9.278 -2.3630 -1.0372 -2.1633
  184SLPC  H11Y21194   6.067   6.477   9.171 -1.4120  0.2153 -0.8884
  184SLPC  C31221195   6.093   6.664   9.078  0.7570  0.1277 -0.1227
  184SLPC  H12X21196   6.174   6.651   9.003 -1.0413  0.4861 -2.2206
  184SLPC  H12Y21197   6.107   6.766   9.119  1.1386 -0.3978  1.0903
  184SLPC  C31321198   5.966   6.665   8.992 -0.2345 -0.0867 -0.0798
  184SLPC  H13X21199   5.890   6.720   9.052  0.8166 -0.3166  1.5212
  184SLPC  H13Y21200   5.935   6.560   8.973  0.6831  0.0099 -2.4094
  184SLPC  C31421201   5.994   6.724   8.853 -0.5185 -0.5008 -0.0892
  184SLPC  H14X21202   6.056   6.661   8.785  2.0803  1.4855  0.3237
  184SLPC  H14Y21203   6.058   6.810   8.880  3.2107 -3.0389 -0.1470
  184SLPC  C31521204   5.861   6.778   8.786  0.3012 -0.4295 -0.6324
  184SLPC  H15X21205   5.889   6.825   8.689 -0.1178 -0.6273 -0.8585
  184SLPC  H15Y21206   5.811   6.863   8.837  1.5405  0.7263 -1.2789
  184SLPC  C31621207   5.756   6.675   8.763 -0.2055  0.0064  0.3935
  184SLPC  H16X21208   5.689   6.655   8.848  0.7020 -1.1416  0.8687
  184SLPC  H16Y21209   5.805   6.577   8.746  0.1583  0.2045  0.2930
  184SLPC  C31721210   5.674   6.711   8.636  0.2288 -1.0698  0.0020
  184SLPC  H17X21211   5.744   6.738   8.554 -0.4073 -0.6288 -0.3953
  184SLPC  H17Y21212   5.622   6.809   8.647  0.2116 -0.9627 -0.9718
  184SLPC  C31821213   5.564   6.610   8.603 -0.6372  0.1667  0.0627
  184SLPC  H18X21214   5.480   6.628   8.674 -0.6539  1.0525 -0.1726
  184SLPC  H18Y21215   5.602   6.506   8.606  0.2993  0.4677 -0.7498
  184SLPC  H18Z21216   5.535   6.642   8.501  2.8595 -1.0965 -1.4810
  185SLPC     N21217   4.588   2.219   6.297 -0.6506  0.3435  0.1781
  185SLPC   C1321218   4.480   2.127   6.240 -0.5204  0.2904  0.0595
  185SLPC  H13A21219   4.489   2.133   6.133  0.8579  0.0561  0.1478
  185SLPC  H13B21220   4.502   2.023   6.255  0.5262  0.4303 -0.4047
  185SLPC  H13C21221   4.383   2.159   6.274 -1.1697  0.0459 -1.5103
  185SLPC   C1421222   4.731   2.176   6.246  0.4332 -0.6268  0.4844
  185SLPC  H14A21223   4.800   2.243   6.296 -1.3794  2.2590 -0.6347
  185SLPC  H14B21224   4.752   2.075   6.278  0.9829  0.1387  2.7750
  185SLPC  H14C21225   4.739   2.189   6.139 -1.7492  0.6239  0.4145
  185SLPC   C1521226   4.577   2.218   6.444  0.6136 -0.2362  0.3899
  185SLPC  H15A21227   4.594   2.116   6.478  1.0495 -0.1496  0.4494
  185SLPC  H15B21228   4.649   2.286   6.488  0.5111 -0.3945  0.8114
  185SLPC  H15C21229   4.477   2.249   6.470  0.6833  0.1511  0.2006
  185SLPC   C1221230   4.561   2.363   6.243 -0.6557 -0.2401 -0.1258
  185SLPC  H12A21231   4.569   2.356   6.135  0.9133  2.2199 -0.2489
  185SLPC  H12B21232   4.640   2.433   6.263 -0.9986  1.0182 -2.7244
  185SLPC   C1121233   4.417   2.425   6.280  0.1844  0.3666  0.7354
  185SLPC  H11A21234   4.334   2.351   6.289  0.2583 -0.1732 -2.0745
  185SLPC  H11B21235   4.391   2.490   6.193 -1.4259 -1.7122 -0.4430
  185SLPC     P21236   4.527   2.609   6.432 -0.1055 -0.1643 -0.4156
  185SLPC   O1321237   4.668   2.555   6.428  0.2401 -0.1788 -0.8962
  185SLPC   O1421238   4.489   2.711   6.337  0.3129 -0.3859 -0.0959
  185SLPC   O1221239   4.429   2.491   6.402  0.4504 -0.8811  0.0409
  185SLPC   O1121240   4.488   2.660   6.579  0.3434 -0.1118  0.3003
  185SLPC    C121241   4.437   2.554   6.668 -1.0168  0.5448  0.2366
  185SLPC    HA21242   4.333   2.530   6.637 -0.5866  0.9528 -1.6659
  185SLPC    HB21243   4.496   2.460   6.659  0.9583  1.8984 -1.8975
  185SLPC    C221244   4.447   2.587   6.823  0.2792  0.6406  0.4223
  185SLPC    HS21245   4.388   2.680   6.830 -0.9196  0.0921 -1.6398
  185SLPC   O2121246   4.579   2.598   6.871  0.4932 -0.3092  0.3199
  185SLPC   C2121247   4.630   2.718   6.854 -0.0168  0.3005 -0.1611
  185SLPC   O2221248   4.576   2.817   6.805 -0.3622  0.1620 -0.0784
  185SLPC   C2221249   4.771   2.717   6.917  0.3160  0.0466 -0.3767
  185SLPC   H2R21250   4.802   2.637   6.987  0.1409  0.8861  0.6907
  185SLPC   H2S21251   4.835   2.695   6.829  0.3762  0.8610 -0.5437
  185SLPC    C321252   4.370   2.483   6.915 -0.1290 -0.4088 -0.0813
  185SLPC    HX21253   4.401   2.385   6.874 -1.3065 -1.1714  0.7962
  185SLPC    HY21254   4.261   2.499   6.901  0.0623  0.7796 -0.3650
  185SLPC   O3121255   4.426   2.487   7.047 -0.1342 -0.4255 -0.5163
  185SLPC   C3121256   4.349   2.561   7.128  0.5853  0.2518 -0.4374
  185SLPC   O3221257   4.258   2.629   7.091 -0.0104  0.0179  0.0794
  185SLPC   C3221258   4.415   2.573   7.266  0.4145  0.2107 -0.4875
  185SLPC   H2X21259   4.486   2.658   7.263  0.0377  0.5434 -0.0088
  185SLPC   H2Y21260   4.471   2.480   7.294  0.3542  0.3045 -0.0524
  185SLPC   C2321261   4.809   2.864   6.960  0.0202 -0.6834 -0.3681
  185SLPC   H3R21262   4.808   2.940   6.879  2.4506 -0.9075 -0.6825
  185SLPC   H3S21263   4.919   2.867   6.972 -0.2034  2.0539  2.0555
  185SLPC   C2421264   4.731   2.922   7.077 -0.4928  0.6063 -0.8673
  185SLPC   H4R21265   4.623   2.901   7.068 -0.1597 -2.4504  0.8698
  185SLPC   H4S21266   4.746   3.032   7.083 -2.9591  0.9316  3.0006
  185SLPC   C2521267   4.769   2.864   7.213  0.6109  1.0086  0.6026
  185SLPC   H5R21268   4.879   2.860   7.227  0.7928 -3.9180 -0.3803
  185SLPC   H5S21269   4.727   2.761   7.207 -2.3075  2.1150  0.5975
  185SLPC   C2621270   4.715   2.943   7.332  0.4140  0.0755 -0.8222
  185SLPC   H6R21271   4.612   2.978   7.309 -0.1081 -0.6490  0.3337
  185SLPC   H6S21272   4.773   3.036   7.351  0.2680 -0.3060  1.8591
  185SLPC   C2721273   4.702   2.853   7.458  0.4586  0.5559  0.3620
  185SLPC   H7R21274   4.791   2.788   7.469 -0.5001 -0.8129  0.2997
  185SLPC   H7S21275   4.609   2.796   7.437  0.7451  1.1120 -2.7872
  185SLPC   C2821276   4.698   2.934   7.587  0.0257  0.6174 -0.1844
  185SLPC   H8R21277   4.621   3.014   7.578  0.2284  1.0657  1.7296
  185SLPC   H8S21278   4.794   2.988   7.599  0.0181  0.8822 -1.1612
  185SLPC   C2921279   4.669   2.845   7.703 -0.7632  0.1003 -0.3458
  185SLPC   H9R21280   4.590   2.769   7.699 -1.2324  0.1799  3.4956
  185SLPC  C21021281   4.714   2.857   7.830 -1.0828  1.2284  0.3342
  185SLPC  H10R21282   4.705   2.772   7.900  0.8428 -0.5951 -1.4650
  185SLPC  C21121283   4.808   2.967   7.876 -0.2105 -0.0156 -0.6310
  185SLPC  H11R21284   4.809   3.054   7.807 -2.4388 -0.8061 -1.7654
  185SLPC  H11S21285   4.912   2.927   7.876 -0.0393  0.4175  0.1474
  185SLPC  C21221286   4.771   3.018   8.010 -0.4325  0.2835 -0.3781
  185SLPC  H12R21287   4.724   3.118   8.011 -1.0103  0.0167 -0.9011
  185SLPC  C21321288   4.786   2.966   8.135 -0.8731 -0.0320  0.3753
  185SLPC  H13R21289   4.755   3.027   8.221 -1.7426  0.2868 -0.1539
  185SLPC  C21421290   4.846   2.830   8.172 -0.4859 -0.5812 -0.2354
  185SLPC  H14R21291   4.917   2.797   8.094  2.1960  1.1916  1.2794
  185SLPC  H14S21292   4.760   2.759   8.175  0.1354 -1.3687 -0.8819
  185SLPC  C21521293   4.929   2.807   8.300  0.1128 -0.0552  0.1599
  185SLPC  H15R21294   4.996   2.893   8.323  0.3119 -0.1049 -0.2256
  185SLPC  H15S21295   5.003   2.726   8.284  0.7577  0.7716 -1.1136
  185SLPC  C21621296   4.848   2.785   8.429  0.1158  0.4418  0.6092
  185SLPC  H16R21297   4.795   2.687   8.429  1.3431 -0.2630 -0.9652
  185SLPC  H16S21298   4.771   2.865   8.437 -0.0221  0.4390 -0.5017
  185SLPC  C21721299   4.946   2.793   8.549 -0.0465  0.1492 -0.0245
  185SLPC  H17R21300   5.004   2.885   8.571 -1.5729  0.9248  0.9823
  185SLPC  H17S21301   5.017   2.710   8.531  2.8895  2.3155  0.8625
  185SLPC  C21821302   4.867   2.775   8.677 -0.1490 -0.0113 -0.0958
  185SLPC  H18R21303   4.797   2.860   8.693  0.7062  0.6943 -0.0210
  185SLPC  H18S21304   4.941   2.766   8.760 -0.1392 -0.7024 -0.1805
  185SLPC  H18T21305   4.811   2.679   8.673  0.4098 -0.4383  1.3443
  185SLPC   C3321306   4.313   2.613   7.381  0.1357 -0.0820 -0.1598
  185SLPC   H3X21307   4.220   2.558   7.355 -0.3834 -0.1414  1.6815
  185SLPC   H3Y21308   4.281   2.718   7.364 -3.7171 -1.1119 -0.1719
  185SLPC   C3421309   4.358   2.583   7.527 -0.1937  0.0210  1.1878
  185SLPC   H4X21310   4.450   2.639   7.552  0.9048 -0.7751 -0.8243
  185SLPC   H4Y21311   4.370   2.475   7.546  1.6867  0.2932  1.7572
  185SLPC   C3521312   4.252   2.637   7.626  0.1165  0.0262 -0.1234
  185SLPC   H5X21313   4.148   2.599   7.613 -0.5610  0.9010  2.1546
  185SLPC   H5Y21314   4.249   2.745   7.603  0.1864 -0.0216 -0.3592
  185SLPC   C3621315   4.292   2.631   7.774 -0.0671  0.0380 -0.5995
  185SLPC   H6X21316   4.224   2.698   7.831  2.0254 -0.3849  2.7186
  185SLPC   H6Y21317   4.392   2.669   7.803  0.9969 -1.7658 -1.7338
  185SLPC   C3721318   4.268   2.496   7.844  0.0839  0.0735 -1.0520
  185SLPC   H7X21319   4.358   2.433   7.827  0.7305  0.8980 -0.7466
  185SLPC   H7Y21320   4.182   2.443   7.798  0.5811 -1.9933  0.2645
  185SLPC   C3821321   4.230   2.519   7.989  0.1034  0.1028 -0.0917
  185SLPC   H8X21322   4.207   2.422   8.039  0.0897  0.9562  1.6166
  185SLPC   H8Y21323   4.132   2.571   7.991 -0.9247 -1.6693 -1.3091
  185SLPC   C3921324   4.331   2.590   8.083 -0.9000  0.4609  0.7716
  185SLPC   H9X21325   4.353   2.695   8.052 -0.9504  0.2380 -0.0417
  185SLPC   H9Y21326   4.425   2.541   8.048 -0.9762 -0.3300  1.6755
  185SLPC  C31021327   4.295   2.576   8.232  0.1761  0.9790  0.0174
  185SLPC  H10X21328   4.268   2.468   8.242 -0.9558  1.2091 -0.4584
  185SLPC  H10Y21329   4.198   2.627   8.249 -0.0004  1.0932 -1.2751
  185SLPC  C31121330   4.404   2.605   8.338 -0.4200 -0.1426  0.2219
  185SLPC  H11X21331   4.432   2.712   8.330 -1.0315  0.0494  0.5736
  185SLPC  H11Y21332   4.495   2.544   8.318  0.1489  0.2958  1.3768
  185SLPC  C31221333   4.334   2.592   8.469  0.0129 -0.5226  0.4806
  185SLPC  H12X21334   4.293   2.490   8.486 -0.5612 -0.3173  0.3244
  185SLPC  H12Y21335   4.252   2.666   8.481  2.0752  1.8874  0.5669
  185SLPC  C31321336   4.424   2.631   8.579  0.4154 -0.7290  0.7497
  185SLPC  H13X21337   4.429   2.742   8.574  0.1117 -0.7033  0.9887
  185SLPC  H13Y21338   4.523   2.584   8.562 -0.1562 -1.4412 -0.7556
  185SLPC  C31421339   4.383   2.588   8.718 -0.4386 -0.0750 -0.0752
  185SLPC  H14X21340   4.375   2.479   8.739 -3.4714 -0.0168 -0.4147
  185SLPC  H14Y21341   4.276   2.615   8.731 -0.8295 -1.3608 -0.4555
  185SLPC  C31521342   4.475   2.662   8.827 -0.1745  0.1004  0.4918
  185SLPC  H15X21343   4.462   2.771   8.806 -0.2908  0.2228  1.1837
  185SLPC  H15Y21344   4.578   2.630   8.803 -0.5778 -0.9657  0.1409
  185SLPC  C31621345   4.434   2.621   8.966 -0.1268  0.2856 -0.1791
  185SLPC  H16X21346   4.327   2.638   8.989 -0.1262 -0.1960  0.2201
  185SLPC  H16Y21347   4.494   2.684   9.035 -0.2862 -0.3380  0.5492
  185SLPC  C31721348   4.472   2.476   9.006 -0.7874 -0.0430  0.3609
  185SLPC  H17X21349   4.582   2.474   8.989 -0.9173 -0.4993 -0.5109
  185SLPC  H17Y21350   4.420   2.396   8.950 -0.7424 -0.6824  1.2163
  185SLPC  C31821351   4.451   2.461   9.160 -0.2461 -0.7697  0.0157
  185SLPC  H18X21352   4.342   2.458   9.180 -0.3873  0.9464 -0.3446
  185SLPC  H18Y21353   4.496   2.543   9.220  1.4862 -1.3603 -0.4072
  185SLPC  H18Z21354   4.494   2.362   9.188  0.9777 -0.0325  0.8384
  186SLPC     N21355   0.106   0.550   6.130  0.4377 -0.2974 -0.1840
  186SLPC   C1321356   0.116   0.624   6.260 -0.8799 -0.1788  0.3279
  186SLPC  H13A21357   0.040   0.589   6.327 -0.0344  0.6326  1.7620
  186SLPC  H13B21358   0.211   0.608   6.309 -0.9630 -2.0360 -0.0693
  186SLPC  H13C21359   0.115   0.731   6.246  0.6149 -0.3157 -1.2580
  186SLPC   C1421360   0.227   0.569   6.045  0.7738 -0.3458 -0.0935
  186SLPC  H14A21361   0.216   0.515   5.953 -0.2678 -2.0571  0.9938
  186SLPC  H14B21362   0.244   0.671   6.011  0.2488 -0.6627 -1.3522
  186SLPC  H14C21363   0.313   0.531   6.098  0.3308 -0.9356  0.2098
  186SLPC   C1521364  -0.012   0.594   6.054  0.3480  0.1002  0.5589
  186SLPC  H15A21365  -0.102   0.611   6.110 -0.4906  3.2997 -1.4351
  186SLPC  H15B21366   0.003   0.696   6.020  1.4850 -0.7333 -1.6857
  186SLPC  H15C21367  -0.032   0.533   5.967 -2.5164 -0.3775  1.4696
  186SLPC   C1221368   0.099   0.395   6.165 -0.2598 -0.2992  0.2092
  186SLPC  H12A21369   0.189   0.373   6.221  1.1028  2.7909 -0.5300
  186SLPC  H12B21370   0.105   0.337   6.074  1.5389 -1.3502  0.9308
  186SLPC   C1121371  -0.030   0.338   6.232 -0.3682  0.4312 -0.2167
  186SLPC  H11A21372  -0.037   0.404   6.322  2.8628 -0.3103  0.6863
  186SLPC  H11B21373  -0.009   0.233   6.260 -2.6136 -0.7440 -2.5673
  186SLPC     P21374  -0.287   0.328   6.208  0.0669  0.0637  0.0576
  186SLPC   O1321375  -0.320   0.463   6.253  0.2699 -0.0692  0.7441
  186SLPC   O1421376  -0.373   0.257   6.107 -0.1171 -0.3115 -0.2740
  186SLPC   O1221377  -0.144   0.339   6.149 -0.0501  0.0238  0.6162
  186SLPC   O1121378  -0.278   0.245   6.340  0.6040  0.0801  0.5706
  186SLPC    C121379  -0.371   0.144   6.373 -0.2744 -0.3568  0.7273
  186SLPC    HA21380  -0.473   0.183   6.392 -1.0355 -2.9931  2.5659
  186SLPC    HB21381  -0.372   0.062   6.297 -1.6917 -0.3029  0.6628
  186SLPC    C221382  -0.332   0.087   6.505 -0.2231  0.3031 -0.0427
  186SLPC    HS21383  -0.387  -0.008   6.523 -0.8385  0.4699 -0.9762
  186SLPC   O2121384  -0.363   0.185   6.606 -0.1482 -0.5061  0.4005
  186SLPC   C2121385  -0.389   0.137   6.723  0.1886  0.4396 -0.5337
  186SLPC   O2221386  -0.421   0.021   6.751 -0.0952 -0.3728  0.0914
  186SLPC   C2221387  -0.373   0.235   6.832 -0.7018  0.3495  0.1190
  186SLPC   H2R21388  -0.309   0.318   6.796 -2.0802  1.9386  1.1984
  186SLPC   H2S21389  -0.474   0.273   6.857 -1.3793  0.7730 -2.9133
  186SLPC    C321390  -0.178   0.056   6.517 -0.1553  0.0775 -0.5622
  186SLPC    HX21391  -0.135   0.159   6.518 -1.8287  0.8229  0.1744
  186SLPC    HY21392  -0.128  -0.001   6.436  2.4970  1.8101 -0.2802
  186SLPC   O3121393  -0.151   0.002   6.645  0.8430 -0.2306 -0.3818
  186SLPC   C3121394  -0.176  -0.127   6.660  0.1288  0.2515  0.5524
  186SLPC   O3221395  -0.194  -0.209   6.572  0.3786 -0.4801  0.1886
  186SLPC   C3221396  -0.166  -0.157   6.808  1.3980  0.1148  0.1787
  186SLPC   H2X21397  -0.177  -0.267   6.820 -1.0428  0.2490 -0.2774
  186SLPC   H2Y21398  -0.243  -0.098   6.862  0.4073  0.7187 -1.7842
  186SLPC   C2321399  -0.306   0.181   6.961  0.6612  0.5535 -0.5355
  186SLPC   H3R21400  -0.219   0.117   6.931  0.2578 -0.2826  0.0493
  186SLPC   H3S21401  -0.371   0.118   7.024 -0.2683  0.5446 -1.4721
  186SLPC   C2421402  -0.252   0.293   7.041  0.0505 -0.3915  0.0609
  186SLPC   H4R21403  -0.329   0.372   7.060 -1.8030 -2.5414  2.1257
  186SLPC   H4S21404  -0.179   0.358   6.987  0.1998  0.4202  1.2098
  186SLPC   C2521405  -0.198   0.253   7.180 -0.1191  0.1124 -0.1999
  186SLPC   H5R21406  -0.098   0.207   7.165 -2.0763 -4.5152 -0.6023
  186SLPC   H5S21407  -0.255   0.172   7.230  2.7103 -1.1678  1.1672
  186SLPC   C2621408  -0.186   0.373   7.274 -0.6329 -0.1509 -0.1802
  186SLPC   H6R21409  -0.240   0.456   7.225  3.0011  2.9601  0.6545
  186SLPC   H6S21410  -0.086   0.418   7.285 -0.7489  0.5046 -1.6117
  186SLPC   C2721411  -0.239   0.336   7.411 -0.2980 -0.4814 -0.5080
  186SLPC   H7R21412  -0.336   0.285   7.390 -0.6174 -0.3596  0.6046
  186SLPC   H7S21413  -0.245   0.435   7.461  0.6791 -0.1084 -1.0983
  186SLPC   C2821414  -0.151   0.238   7.491  0.2248 -0.5074 -0.1107
  186SLPC   H8R21415  -0.055   0.290   7.510  0.2126 -0.3648 -0.4260
  186SLPC   H8S21416  -0.123   0.159   7.420  1.3079  0.3432 -0.6531
  186SLPC   C2921417  -0.197   0.170   7.613  0.6047 -0.1460  0.4138
  186SLPC   H9R21418  -0.235   0.068   7.597 -0.2202 -0.0240  1.4945
  186SLPC  C21021419  -0.179   0.221   7.739  0.1698 -0.0976  0.9340
  186SLPC  H10R21420  -0.212   0.168   7.829 -2.6533  1.3395  0.8554
  186SLPC  C21121421  -0.123   0.353   7.775 -0.5753  0.5589  0.8072
  186SLPC  H11R21422  -0.179   0.402   7.858  0.0250  4.6834 -0.9699
  186SLPC  H11S21423  -0.138   0.424   7.691 -1.8725 -1.9022 -1.1866
  186SLPC  C21221424   0.019   0.327   7.815 -0.0491 -0.2998 -0.2207
  186SLPC  H12R21425   0.088   0.322   7.730 -0.2099  1.1052 -0.4516
  186SLPC  C21321426   0.056   0.273   7.932  0.0987 -0.6857  0.0294
  186SLPC  H13R21427   0.162   0.246   7.941  0.1935 -0.0726  0.8757
  186SLPC  C21421428  -0.017   0.238   8.056 -0.0713  0.6097 -0.2937
  186SLPC  H14R21429  -0.115   0.193   8.031 -0.2465  1.3921 -1.0505
  186SLPC  H14S21430  -0.038   0.328   8.117 -2.0539 -0.6230  0.9640
  186SLPC  C21521431   0.064   0.130   8.136 -0.2632  0.2474 -0.1261
  186SLPC  H15R21432   0.169   0.163   8.147 -0.5870  1.4877 -0.5545
  186SLPC  H15S21433   0.073   0.032   8.084  0.3672 -0.0608  0.5295
  186SLPC  C21621434   0.016   0.114   8.284  0.1531 -0.5070 -0.5397
  186SLPC  H16R21435  -0.086   0.072   8.285 -0.2122  0.3675 -0.4923
  186SLPC  H16S21436   0.005   0.216   8.328  2.1931 -1.0441  1.4514
  186SLPC  C21721437   0.115   0.035   8.370 -0.1592  0.0822 -0.1150
  186SLPC  H17R21438   0.203   0.099   8.393  0.4247 -0.1208 -1.6882
  186SLPC  H17S21439   0.153  -0.054   8.315  0.9083  0.4430  0.0158
  186SLPC  C21821440   0.058  -0.011   8.508  0.3213 -0.2550  0.4585
  186SLPC  H18R21441   0.118  -0.088   8.562  0.6096  0.1238  0.6819
  186SLPC  H18S21442  -0.035  -0.066   8.480  1.1124 -0.7271 -1.4175
  186SLPC  H18T21443   0.030   0.071   8.576 -2.2458 -1.2706  0.7567
  186SLPC   C3321444  -0.022  -0.121   6.865 -0.0935  0.4698  0.2550
  186SLPC   H3X21445  -0.005  -0.012   6.879 -0.1906  0.3405  1.4634
  186SLPC   H3Y21446   0.041  -0.159   6.782 -2.5293 -2.2112 -0.5252
  186SLPC   C3421447  -0.008  -0.218   6.979 -0.2244 -0.5608 -1.0356
  186SLPC   H4X21448   0.100  -0.227   7.004 -1.1884  1.1972  5.7002
  186SLPC   H4Y21449  -0.042  -0.316   6.941 -1.9882  0.5947 -2.6577
  186SLPC   C3521450  -0.091  -0.191   7.105 -0.5810 -0.3723 -0.2248
  186SLPC   H5X21451  -0.110  -0.295   7.140  1.3180 -0.5984  0.2018
  186SLPC   H5Y21452  -0.191  -0.147   7.082 -0.8999 -0.2175  1.3268
  186SLPC   C3621453  -0.018  -0.100   7.202  0.6379  0.8474  0.5063
  186SLPC   H6X21454  -0.083  -0.015   7.233  0.1505  0.3324  0.9287
  186SLPC   H6Y21455   0.072  -0.060   7.151 -0.3670 -0.2196 -2.3312
  186SLPC   C3721456   0.046  -0.167   7.329 -0.2472 -0.0329  0.3643
  186SLPC   H7X21457   0.138  -0.222   7.301 -0.8567 -1.1252  0.4484
  186SLPC   H7Y21458  -0.023  -0.245   7.367 -0.6443 -1.0690 -2.2571
  186SLPC   C3821459   0.073  -0.062   7.444 -0.6470 -0.3082  0.6896
  186SLPC   H8X21460  -0.024  -0.047   7.497 -0.4907  2.2605  0.3815
  186SLPC   H8Y21461   0.114   0.032   7.400  0.0111 -0.4613  0.9611
  186SLPC   C3921462   0.171  -0.127   7.536 -0.2559 -0.8471  0.3707
  186SLPC   H9X21463   0.273  -0.138   7.494  1.1459  1.4937  2.7830
  186SLPC   H9Y21464   0.130  -0.228   7.558  0.4661 -1.7485 -2.0844
  186SLPC  C31021465   0.206  -0.052   7.667 -0.1986 -0.8900 -0.2474
  186SLPC  H10X21466   0.143  -0.081   7.754 -0.8276 -0.5579 -0.5785
  186SLPC  H10Y21467   0.183   0.057   7.662  0.3605 -0.3990  3.9969
  186SLPC  C31121468   0.354  -0.076   7.711 -0.1556  0.1292  0.1710
  186SLPC  H11X21469   0.415  -0.050   7.622 -1.3604 -1.4366 -1.1661
  186SLPC  H11Y21470   0.376  -0.184   7.718  0.1357  0.1816  0.1238
  186SLPC  C31221471   0.402   0.006   7.831  0.4980  0.4981  0.2244
  186SLPC  H12X21472   0.337  -0.008   7.920 -0.3112 -0.8852 -0.5304
  186SLPC  H12Y21473   0.379   0.111   7.806 -2.0263  0.1358  0.7104
  186SLPC  C31321474   0.542  -0.031   7.866  0.0372  0.2135 -0.3608
  186SLPC  H13X21475   0.607   0.013   7.787 -1.7724 -1.8131 -3.1408
  186SLPC  H13Y21476   0.556  -0.141   7.860 -0.6035  0.0732  0.4790
  186SLPC  C31421477   0.584   0.016   8.004  0.4533 -0.0674  0.2308
  186SLPC  H14X21478   0.513  -0.012   8.085 -1.6272 -1.3304 -1.8819
  186SLPC  H14Y21479   0.594   0.126   8.009 -1.8925  0.2231 -0.0729
  186SLPC  C31521480   0.725  -0.035   8.040 -0.5022  0.9531  0.3141
  186SLPC  H15X21481   0.714  -0.145   8.030 -0.4807  1.0080 -0.3635
  186SLPC  H15Y21482   0.744  -0.003   8.145 -1.3644 -0.3379  0.8846
  186SLPC  C31621483   0.836   0.001   7.955 -0.7617 -0.5461  0.0586
  186SLPC  H16X21484   0.850  -0.063   7.865  0.4533  1.6547 -1.4170
  186SLPC  H16Y21485   0.927  -0.011   8.017  0.4525  0.0609 -1.5381
  186SLPC  C31721486   0.822   0.143   7.893 -0.1849 -0.4785 -0.2512
  186SLPC  H17X21487   0.806   0.204   7.984  1.8227 -0.7088  0.3213
  186SLPC  H17Y21488   0.738   0.154   7.822 -1.6500 -1.2915  1.2885
  186SLPC  C31821489   0.958   0.195   7.839 -0.0425 -0.2960  0.0499
  186SLPC  H18X21490   0.955   0.306   7.837 -0.5080 -0.2394 -3.5880
  186SLPC  H18Y21491   0.968   0.155   7.735  1.5929 -2.0758  0.8347
  186SLPC  H18Z21492   1.045   0.157   7.897  0.2020 -0.2360 -0.2750
  187SLPC     N21493   5.293   3.301   6.062  0.9387 -0.2307  0.7590
  187SLPC   C1321494   5.338   3.260   5.923 -0.2794  0.6435 -0.0112
  187SLPC  H13A21495   5.312   3.156   5.905  0.6776  0.2578  0.7080
  187SLPC  H13B21496   5.297   3.327   5.849 -1.5965  2.0869  1.9221
  187SLPC  H13C21497   5.444   3.266   5.902 -0.4761  0.2010 -1.2118
  187SLPC   C1421498   5.144   3.287   6.060 -0.4894 -0.2260  0.7293
  187SLPC  H14A21499   5.123   3.181   6.062  3.2414 -1.1249 -0.6849
  187SLPC  H14B21500   5.093   3.333   6.144  0.5329  1.8420  0.2731
  187SLPC  H14C21501   5.109   3.336   5.971  2.4018  0.6479 -0.0240
  187SLPC   C1521502   5.324   3.444   6.083  0.0887  0.3287  0.7941
  187SLPC  H15A21503   5.300   3.480   6.182  1.5327  0.8703  0.9590
  187SLPC  H15B21504   5.431   3.455   6.077  0.4378 -2.7121  0.1107
  187SLPC  H15C21505   5.271   3.516   6.021 -0.1913 -0.0661  0.5679
  187SLPC   C1221506   5.346   3.208   6.162 -0.7208  0.9187  0.2823
  187SLPC  H12A21507   5.296   3.113   6.158  1.1149 -0.0881  0.0658
  187SLPC  H12B21508   5.322   3.240   6.262 -1.9378 -2.2063  1.0953
  187SLPC   C1121509   5.504   3.184   6.153  0.5441  0.8662  0.5611
  187SLPC  H11A21510   5.557   3.281   6.143  2.1285 -0.0597 -0.6220
  187SLPC  H11B21511   5.517   3.113   6.068  2.6757 -0.2737  1.7621
  187SLPC     P21512   5.573   3.182   6.407 -0.3438 -0.1404 -0.2316
  187SLPC   O1321513   5.722   3.201   6.402  0.1623 -0.1135  0.7134
  187SLPC   O1421514   5.479   3.295   6.431  0.1224 -0.2944  0.0573
  187SLPC   O1221515   5.532   3.110   6.275  0.0009  0.3825 -0.1352
  187SLPC   O1121516   5.539   3.077   6.519  0.3107 -0.2601  0.1593
  187SLPC    C121517   5.419   2.998   6.504 -0.5654 -0.1460 -0.6234
  187SLPC    HA21518   5.325   3.057   6.513 -0.3010  0.4327 -1.4766
  187SLPC    HB21519   5.406   2.947   6.406 -2.9307  0.4516 -0.6694
  187SLPC    C221520   5.415   2.897   6.627  0.7747  0.6334 -0.0069
  187SLPC    HS21521   5.332   2.823   6.622  0.5353  0.8501  0.6350
  187SLPC   O2121522   5.416   2.962   6.751  0.8683 -0.6151 -0.3417
  187SLPC   C2121523   5.316   3.045   6.775  0.3660  0.6590  0.2695
  187SLPC   O2221524   5.204   3.038   6.722  0.1301  0.3093 -0.2234
  187SLPC   C2221525   5.352   3.144   6.885 -0.6027  0.2221  0.1153
  187SLPC   H2R21526   5.427   3.219   6.852 -1.2560  0.4595 -0.8818
  187SLPC   H2S21527   5.266   3.209   6.909 -0.5455  0.4582 -0.2989
  187SLPC    C321528   5.532   2.799   6.631 -0.0221 -0.8865  0.3414
  187SLPC    HX21529   5.623   2.862   6.619 -0.6175  0.0700  0.7383
  187SLPC    HY21530   5.517   2.730   6.545 -1.9747  0.7666 -0.7285
  187SLPC   O3121531   5.532   2.723   6.747 -0.0740  0.5778  0.3353
  187SLPC   C3121532   5.628   2.751   6.837  0.5769 -0.3034 -0.1711
  187SLPC   O3221533   5.711   2.840   6.832 -0.4515  0.4917 -0.0167
  187SLPC   C3221534   5.618   2.663   6.959 -0.6122  0.8869 -0.7518
  187SLPC   H2X21535   5.569   2.568   6.929  0.6067 -0.2951  0.8140
  187SLPC   H2Y21536   5.548   2.711   7.032 -3.4154 -2.4721 -1.0007
  187SLPC   C2321537   5.399   3.071   7.014 -0.0466 -0.0950  0.5522
  187SLPC   H3R21538   5.496   3.020   6.995  1.2397  2.8350 -1.4104
  187SLPC   H3S21539   5.319   2.996   7.032  0.1037 -0.8241 -1.5218
  187SLPC   C2421540   5.412   3.159   7.134  0.1220 -0.0637 -0.3024
  187SLPC   H4R21541   5.313   3.197   7.167 -0.1434 -0.0139 -1.1262
  187SLPC   H4S21542   5.467   3.253   7.110 -0.6922  0.5078  0.0254
  187SLPC   C2521543   5.491   3.093   7.256 -0.0494  0.8272 -0.6653
  187SLPC   H5R21544   5.429   3.002   7.271  0.1381  0.2444 -2.9505
  187SLPC   H5S21545   5.489   3.173   7.332  0.3418  0.5226 -0.3291
  187SLPC   C2621546   5.642   3.051   7.225 -0.3334  0.2617  0.6590
  187SLPC   H6R21547   5.699   3.123   7.161  1.2443 -1.0907  0.4734
  187SLPC   H6S21548   5.635   2.956   7.168 -1.6696  0.2166  0.8716
  187SLPC   C2721549   5.735   3.033   7.353 -0.4319  0.0497  0.7720
  187SLPC   H7R21550   5.768   3.139   7.355  3.0739 -0.8440 -1.6050
  187SLPC   H7S21551   5.826   2.972   7.337 -0.1186  0.1660  1.9749
  187SLPC   C2821552   5.665   2.978   7.482 -0.7883 -0.3671  0.4622
  187SLPC   H8R21553   5.561   3.018   7.493 -0.9562 -0.7379  0.2210
  187SLPC   H8S21554   5.730   3.010   7.566  2.7810 -0.9125 -1.8914
  187SLPC   C2921555   5.676   2.823   7.476  0.7627 -0.1566  0.0671
  187SLPC   H9R21556   5.617   2.787   7.390  1.2373  0.2310 -0.4298
  187SLPC  C21021557   5.738   2.730   7.554 -0.2833  0.0856  0.2600
  187SLPC  H10R21558   5.719   2.624   7.531 -0.7298 -0.4977  3.0392
  187SLPC  C21121559   5.818   2.754   7.681  0.1508  0.4021 -0.2321
  187SLPC  H11R21560   5.871   2.852   7.681 -1.9398  1.6225 -1.9444
  187SLPC  H11S21561   5.895   2.673   7.686  0.1866  0.2697 -2.1231
  187SLPC  C21221562   5.727   2.754   7.799 -0.2833  0.0272 -0.3509
  187SLPC  H12R21563   5.622   2.778   7.779  0.0683  1.4278 -0.5890
  187SLPC  C21321564   5.767   2.740   7.927  0.6931 -0.2522  0.6110
  187SLPC  H13R21565   5.699   2.747   8.014 -0.6290 -2.1382 -0.1961
  187SLPC  C21421566   5.907   2.726   7.969 -0.8873 -0.1193 -0.2899
  187SLPC  H14R21567   5.964   2.684   7.884 -0.6713 -0.1172 -0.1496
  187SLPC  H14S21568   5.908   2.648   8.048  0.4572  0.0725 -0.0872
  187SLPC  C21521569   5.979   2.848   8.020  0.6149  0.2502 -0.0885
  187SLPC  H15R21570   5.939   2.926   7.952 -0.0405  0.9610  1.0760
  187SLPC  H15S21571   6.087   2.841   7.995  0.4780 -0.2743 -0.5333
  187SLPC  C21621572   5.954   2.882   8.165  0.5785 -0.4156 -0.1467
  187SLPC  H16R21573   6.019   2.811   8.220  0.1961 -1.8159 -1.4317
  187SLPC  H16S21574   5.847   2.851   8.172 -0.2043  1.1235 -3.2585
  187SLPC  C21721575   5.973   3.032   8.202 -0.5397 -0.0261  0.3922
  187SLPC  H17R21576   5.908   3.098   8.141  0.8132  0.9732 -0.0017
  187SLPC  H17S21577   6.071   3.067   8.166 -0.0801 -1.9691 -0.3969
  187SLPC  C21821578   5.953   3.056   8.354 -0.4500 -0.0249 -0.3462
  187SLPC  H18R21579   5.975   3.162   8.381 -0.6537 -0.5129  1.9361
  187SLPC  H18S21580   6.015   2.980   8.406  0.3780 -0.7436 -2.3027
  187SLPC  H18T21581   5.848   3.035   8.382 -0.0037  0.0199  1.5026
  187SLPC   C3321582   5.757   2.625   7.024 -0.1480  0.4624  0.2915
  187SLPC   H3X21583   5.815   2.715   7.055 -0.2225 -0.3608  3.0584
  187SLPC   H3Y21584   5.834   2.577   6.961  1.1352  0.9833  1.4191
  187SLPC   C3421585   5.727   2.547   7.153  0.7016 -0.4794  0.1069
  187SLPC   H4X21586   5.681   2.448   7.128 -0.6170 -0.1072  0.9271
  187SLPC   H4Y21587   5.645   2.604   7.201  2.0217  2.4359 -0.8886
  187SLPC   C3521588   5.842   2.523   7.246  0.0001 -0.2090 -0.0682
  187SLPC   H5X21589   5.881   2.615   7.295 -0.9989  1.0536 -1.5309
  187SLPC   H5Y21590   5.916   2.487   7.172 -1.7551  1.0109 -2.5879
  187SLPC   C3621591   5.815   2.432   7.365 -0.1279 -0.0259  0.0243
  187SLPC   H6X21592   5.799   2.327   7.330  1.0644 -0.1241 -0.2512
  187SLPC   H6Y21593   5.729   2.464   7.428  2.0712  0.2819  3.0500
  187SLPC   C3721594   5.935   2.426   7.459 -0.1081 -0.1392 -0.1601
  187SLPC   H7X21595   6.024   2.380   7.411  0.0387  1.2591 -1.2911
  187SLPC   H7Y21596   5.970   2.527   7.486  1.4450 -0.2945 -1.4686
  187SLPC   C3821597   5.899   2.366   7.599  0.0618  0.5687  0.1337
  187SLPC   H8X21598   5.876   2.258   7.585 -1.1293  0.7645  0.5041
  187SLPC   H8Y21599   5.803   2.405   7.639 -0.3694 -1.5371  1.3175
  187SLPC   C3921600   6.003   2.387   7.709 -0.1279  0.7939 -0.5905
  187SLPC   H9X21601   6.026   2.494   7.691  0.2043  0.6757 -0.9132
  187SLPC   H9Y21602   6.099   2.332   7.694  0.6730  2.5913 -2.7005
  187SLPC  C31021603   5.949   2.380   7.851  0.2692 -1.4151  0.5764
  187SLPC  H10X21604   5.908   2.277   7.864 -1.5754 -0.7851  0.1713
  187SLPC  H10Y21605   5.861   2.446   7.867  1.5056 -0.1395  2.6338
  187SLPC  C31121606   6.067   2.408   7.947  0.1998 -0.8136 -0.1076
  187SLPC  H11X21607   6.093   2.516   7.946  1.4820 -1.1027 -0.3458
  187SLPC  H11Y21608   6.159   2.352   7.919  2.5569  1.4306  2.5806
  187SLPC  C31221609   6.044   2.356   8.089  0.3449 -0.4571  0.3548
  187SLPC  H12X21610   5.947   2.404   8.115  2.1506  1.6708  3.9282
  187SLPC  H12Y21611   6.128   2.383   8.156  2.8413 -2.0098 -1.9539
  187SLPC  C31321612   6.027   2.202   8.096 -0.0269 -0.4430 -0.6041
  187SLPC  H13X21613   6.094   2.151   8.023  0.7500 -2.1610  1.1897
  187SLPC  H13Y21614   5.923   2.179   8.066 -0.4477 -2.2612  1.9058
  187SLPC  C31421615   6.051   2.133   8.240 -0.2584 -0.0927 -0.2499
  187SLPC  H14X21616   6.152   2.157   8.280 -1.1742  1.3055  1.3577
  187SLPC  H14Y21617   6.046   2.023   8.227 -0.8417  0.0676 -1.4682
  187SLPC  C31521618   5.932   2.180   8.334 -0.1043  0.0584  0.1707
  187SLPC  H15X21619   5.912   2.114   8.421 -2.4637  3.6184  2.5892
  187SLPC  H15Y21620   5.837   2.179   8.277 -0.9732  2.0767  1.4883
  187SLPC  C31621621   5.950   2.315   8.413  0.1197  0.0995  0.3165
  187SLPC  H16X21622   6.000   2.397   8.359  0.7809 -1.0619 -0.8821
  187SLPC  H16Y21623   6.021   2.285   8.494  1.3069  1.1087 -0.3205
  187SLPC  C31721624   5.817   2.362   8.476 -0.1440  0.5306 -0.3930
  187SLPC  H17X21625   5.835   2.408   8.575 -2.9290 -0.1722  0.5390
  187SLPC  H17Y21626   5.742   2.280   8.487 -1.2070  1.6347  0.9723
  187SLPC  C31821627   5.762   2.467   8.381 -0.0897  0.0608 -0.5333
  187SLPC  H18X21628   5.813   2.565   8.381  0.3962 -0.1853  0.0357
  187SLPC  H18Y21629   5.656   2.495   8.400 -0.4713 -1.0550 -0.9272
  187SLPC  H18Z21630   5.767   2.427   8.278 -1.6811  0.0251 -0.6299
  188SLPC     N21631   1.506   4.068   6.187 -0.2280  0.0493  0.0808
  188SLPC   C1321632   1.392   3.989   6.237 -0.0432 -0.3573  0.9194
  188SLPC  H13A21633   1.416   3.948   6.334  2.0259 -0.0523  0.5824
  188SLPC  H13B21634   1.300   4.045   6.233  0.0821 -0.1626  0.7141
  188SLPC  H13C21635   1.364   3.917   6.162  1.4154  2.6562 -2.8628
  188SLPC   C1421636   1.464   4.140   6.063 -0.4251  0.1715  0.1289
  188SLPC  H14A21637   1.448   4.080   5.975  2.0459  0.5022 -0.6325
  188SLPC  H14B21638   1.374   4.196   6.083 -0.6856  0.2155 -1.1086
  188SLPC  H14C21639   1.537   4.216   6.037  1.7889 -1.5810  0.9076
  188SLPC   C1521640   1.614   3.969   6.150 -0.4200  0.0637  0.1789
  188SLPC  H15A21641   1.663   3.915   6.230 -0.6329  1.9147  1.6361
  188SLPC  H15B21642   1.574   3.900   6.077  3.0065 -0.4683 -1.4115
  188SLPC  H15C21643   1.693   4.020   6.096  0.3537 -2.4617 -1.2637
  188SLPC   C1221644   1.562   4.160   6.293  0.1310 -0.7584  0.0184
  188SLPC  H12A21645   1.561   4.115   6.392 -1.0164  0.1875  0.4514
  188SLPC  H12B21646   1.500   4.246   6.313  0.7254 -0.0909 -0.9154
  188SLPC   C1121647   1.705   4.203   6.258 -0.6680 -0.3960 -0.6326
  188SLPC  H11A21648   1.695   4.263   6.166 -4.0931 -0.3041 -0.2967
  188SLPC  H11B21649   1.780   4.121   6.248 -0.4207 -0.6994  2.6125
  188SLPC     P21650   1.804   4.424   6.382 -0.3933  0.5399 -0.6522
  188SLPC   O1321651   1.931   4.431   6.308  0.0341  0.1024  0.1994
  188SLPC   O1421652   1.702   4.517   6.338 -0.0430 -0.5127 -0.0521
  188SLPC   O1221653   1.745   4.281   6.369 -0.8933  0.2769  0.1328
  188SLPC   O1121654   1.832   4.432   6.531  0.1842 -0.0555 -0.4109
  188SLPC    C121655   1.855   4.313   6.609 -0.3033  0.0005  0.2083
  188SLPC    HA21656   1.897   4.231   6.548  2.7579  1.3361  0.3370
  188SLPC    HB21657   1.939   4.338   6.677 -1.0645  0.9209  0.8350
  188SLPC    C221658   1.732   4.259   6.694 -0.1606  0.2230  0.4865
  188SLPC    HS21659   1.640   4.302   6.648  0.2741  0.3237 -0.3114
  188SLPC   O2121660   1.745   4.308   6.828 -0.0272 -0.4491  0.2351
  188SLPC   C2121661   1.627   4.307   6.892 -0.1879 -0.1741 -0.3193
  188SLPC   O2221662   1.512   4.310   6.846  0.0286  0.4731 -0.2542
  188SLPC   C2221663   1.655   4.308   7.043 -0.1834  0.0114  0.0879
  188SLPC   H2R21664   1.755   4.267   7.069 -1.0987 -0.7379  2.8612
  188SLPC   H2S21665   1.661   4.417   7.063 -0.0014 -0.2343  1.5004
  188SLPC    C321666   1.723   4.105   6.685  0.2460  0.8134  0.1267
  188SLPC    HX21667   1.818   4.072   6.733 -0.4521 -1.4092  0.1129
  188SLPC    HY21668   1.730   4.067   6.581  1.2257 -2.2855  1.1993
  188SLPC   O3121669   1.617   4.036   6.758 -0.2610 -0.2927  0.6964
  188SLPC   C3121670   1.510   4.026   6.685  0.1115 -0.6251 -1.0764
  188SLPC   O3221671   1.480   4.090   6.587  0.2028  0.0895  0.3554
  188SLPC   C3221672   1.424   3.917   6.748 -0.8412 -0.2122  0.0664
  188SLPC   H2X21673   1.488   3.826   6.752  0.5581  0.7660  2.5592
  188SLPC   H2Y21674   1.333   3.890   6.690 -1.9341  0.5098  1.3926
  188SLPC   C2321675   1.542   4.231   7.123 -0.1152  0.5784 -0.7815
  188SLPC   H3R21676   1.566   4.123   7.130  0.3567  0.7246 -0.0854
  188SLPC   H3S21677   1.437   4.236   7.086 -0.7463 -0.3431  0.7911
  188SLPC   C2421678   1.546   4.272   7.270  0.6554  0.0240  0.1401
  188SLPC   H4R21679   1.463   4.218   7.321  1.4530 -2.8248 -1.3411
  188SLPC   H4S21680   1.524   4.381   7.267 -1.2809 -0.2949  0.8886
  188SLPC   C2521681   1.681   4.261   7.349  0.2362  0.7355  0.3293
  188SLPC   H5R21682   1.754   4.343   7.328  0.7373 -0.2352 -2.0115
  188SLPC   H5S21683   1.729   4.167   7.316 -1.5917 -0.7290  1.6601
  188SLPC   C2621684   1.646   4.250   7.503  0.0136  0.3266  0.2392
  188SLPC   H6R21685   1.579   4.162   7.518  0.0788  0.5151  1.9145
  188SLPC   H6S21686   1.581   4.339   7.522 -0.3575 -0.3453  2.4061
  188SLPC   C2721687   1.767   4.268   7.595  0.1899  0.3036  0.6183
  188SLPC   H7R21688   1.811   4.363   7.560 -0.9945  0.3870 -0.7354
  188SLPC   H7S21689   1.841   4.186   7.586  1.5855  1.5105  0.7461
  188SLPC   C2821690   1.719   4.278   7.744 -0.1059  0.2257 -0.5320
  188SLPC   H8R21691   1.625   4.337   7.756  0.3025  0.7461  0.2153
  188SLPC   H8S21692   1.793   4.325   7.812 -0.1204  0.6940 -0.8364
  188SLPC   C2921693   1.706   4.137   7.805  0.2205  0.1027 -0.2082
  188SLPC   H9R21694   1.600   4.106   7.804  0.5812 -1.2092 -0.5801
  188SLPC  C21021695   1.799   4.060   7.870  0.4509 -0.4396  0.6302
  188SLPC  H10R21696   1.770   3.965   7.916  1.5692 -2.6214 -2.8140
  188SLPC  C21121697   1.939   4.105   7.903 -0.0122  0.2984  0.3608
  188SLPC  H11R21698   1.939   4.118   8.013 -0.6566  0.7521  0.3170
  188SLPC  H11S21699   1.974   4.201   7.859  2.3367 -1.4912 -1.9791
  188SLPC  C21221700   2.047   4.006   7.855 -0.2400 -0.2417  0.4732
  188SLPC  H12R21701   2.013   3.919   7.797  1.2743 -0.0060 -0.8286
  188SLPC  C21321702   2.182   4.009   7.879  0.3195  0.5680 -0.5888
  188SLPC  H13R21703   2.243   3.926   7.841  0.1523  0.1492  0.0415
  188SLPC  C21421704   2.243   4.105   7.971 -0.0172 -0.4802 -0.1184
  188SLPC  H14R21705   2.193   4.204   7.967  2.9444  1.0967 -2.7595
  188SLPC  H14S21706   2.341   4.134   7.927  0.3895 -1.1915  0.3141
  188SLPC  C21521707   2.267   4.051   8.111  0.6612 -0.1972 -0.7217
  188SLPC  H15R21708   2.350   3.977   8.106  0.1350 -1.1450  2.5287
  188SLPC  H15S21709   2.181   3.992   8.151  0.5448  1.0797  1.0289
  188SLPC  C21621710   2.306   4.151   8.220  0.6760 -0.0604  0.3811
  188SLPC  H16R21711   2.219   4.218   8.233  0.2956  0.0479 -2.1197
  188SLPC  H16S21712   2.382   4.215   8.172 -2.7824  2.1074 -2.8015
  188SLPC  C21721713   2.343   4.084   8.349 -0.1618  0.1818 -0.0875
  188SLPC  H17R21714   2.395   4.158   8.413  2.1473  0.7101 -2.4072
  188SLPC  H17S21715   2.419   4.010   8.315 -0.2433  1.5422 -3.6052
  188SLPC  C21821716   2.229   4.005   8.416 -0.8634  0.5052 -0.8008
  188SLPC  H18R21717   2.220   3.907   8.365  0.7307 -1.1499  1.8755
  188SLPC  H18S21718   2.132   4.058   8.407 -0.4572  1.3474 -0.4207
  188SLPC  H18T21719   2.253   3.982   8.522 -0.3953  0.5497 -0.8929
  188SLPC   C3321720   1.385   3.933   6.895 -0.5914 -0.0870  0.4863
  188SLPC   H3X21721   1.320   4.023   6.893  1.0722  1.2128  1.6461
  188SLPC   H3Y21722   1.474   3.956   6.957 -0.6648  2.6888 -0.2903
  188SLPC   C3421723   1.311   3.819   6.959  0.6455 -0.1732  0.2757
  188SLPC   H4X21724   1.371   3.728   6.981  2.3900  0.7688 -0.4209
  188SLPC   H4Y21725   1.235   3.786   6.885  0.4016  0.9798 -0.0092
  188SLPC   C3521726   1.248   3.846   7.101 -0.5445  0.0399 -0.1613
  188SLPC   H5X21727   1.144   3.807   7.099 -0.6647  0.3721 -0.3979
  188SLPC   H5Y21728   1.239   3.953   7.131  1.9516 -0.0586  1.2560
  188SLPC   C3621729   1.326   3.769   7.212 -0.5159 -0.0387  0.5507
  188SLPC   H6X21730   1.435   3.785   7.202 -0.5144  0.2880  1.0179
  188SLPC   H6Y21731   1.298   3.663   7.195 -1.1269  0.2996 -0.6393
  188SLPC   C3721732   1.283   3.801   7.355  0.0524 -0.4009 -0.1525
  188SLPC   H7X21733   1.317   3.718   7.421  1.0001 -2.1344 -2.6525
  188SLPC   H7Y21734   1.173   3.787   7.364  0.0019  0.1090  0.0524
  188SLPC   C3821735   1.332   3.938   7.404  0.7918 -0.4197 -0.0559
  188SLPC   H8X21736   1.291   4.005   7.326  0.6411 -3.4586 -2.7841
  188SLPC   H8Y21737   1.442   3.942   7.385  0.9087 -1.5008  0.2873
  188SLPC   C3921738   1.295   3.981   7.550 -0.0218 -1.0780 -0.8138
  188SLPC   H9X21739   1.193   4.024   7.537  0.6062  0.5797 -0.5261
  188SLPC   H9Y21740   1.358   4.066   7.583  0.5369 -1.8833  0.2533
  188SLPC  C31021741   1.301   3.875   7.654 -0.0698 -0.2486 -0.3541
  188SLPC  H10X21742   1.394   3.817   7.635 -0.5601 -0.3942 -2.5510
  188SLPC  H10Y21743   1.205   3.821   7.645 -0.1082 -0.4551  1.0908
  188SLPC  C31121744   1.310   3.932   7.799  1.1261 -0.0661  0.6211
  188SLPC  H11X21745   1.219   3.994   7.808  2.0242  1.3021  0.5663
  188SLPC  H11Y21746   1.401   3.995   7.807  1.9305 -1.0330 -0.5981
  188SLPC  C31221747   1.290   3.819   7.903 -0.3934 -0.1823  0.2453
  188SLPC  H12X21748   1.356   3.731   7.887  1.5242  0.8513  2.0583
  188SLPC  H12Y21749   1.190   3.772   7.887 -0.3870 -0.3442  0.6551
  188SLPC  C31321750   1.304   3.868   8.050 -0.2376 -0.5792 -0.3865
  188SLPC  H13X21751   1.236   3.952   8.076  2.5569  1.1242  2.0927
  188SLPC  H13Y21752   1.406   3.909   8.063 -0.5107  0.0310 -0.1217
  188SLPC  C31421753   1.268   3.764   8.153  0.0322  0.0583  0.3423
  188SLPC  H14X21754   1.326   3.672   8.132  0.1361  0.0980  0.4537
  188SLPC  H14Y21755   1.160   3.737   8.149  0.0366  0.1696 -0.8602
  188SLPC  C31521756   1.313   3.827   8.291  0.6818  0.1896  0.1532
  188SLPC  H15X21757   1.248   3.913   8.320 -0.1483 -0.7327  1.1100
  188SLPC  H15Y21758   1.418   3.861   8.287  1.0471 -0.8198  0.8100
  188SLPC  C31621759   1.309   3.715   8.390  0.2500  0.4925  0.6215
  188SLPC  H16X21760   1.348   3.617   8.355 -1.7242 -0.5874  1.2870
  188SLPC  H16Y21761   1.201   3.698   8.408 -0.1182  1.8277 -0.1377
  188SLPC  C31721762   1.372   3.748   8.523 -0.3425  0.9024  0.6422
  188SLPC  H17X21763   1.340   3.847   8.562 -0.3131  1.9704 -1.8715
  188SLPC  H17Y21764   1.482   3.752   8.517 -0.2256 -1.7472 -0.1684
  188SLPC  C31821765   1.341   3.640   8.630 -0.3855  0.0023  0.1409
  188SLPC  H18X21766   1.349   3.536   8.590 -3.2415  0.9028 -3.2426
  188SLPC  H18Y21767   1.235   3.645   8.664 -1.5202  0.5036 -3.1302
  188SLPC  H18Z21768   1.418   3.661   8.708  0.7424  2.3651 -1.5063
  189SLPC     N21769   2.337   4.657   6.243  0.3406  0.5518  0.4703
  189SLPC   C1321770   2.215   4.584   6.210 -0.1860  0.2949 -0.1627
  189SLPC  H13A21771   2.144   4.646   6.158  1.6012  0.7495 -2.2056
  189SLPC  H13B21772   2.234   4.498   6.146 -1.7649  0.7974 -1.3994
  189SLPC  H13C21773   2.174   4.551   6.304  2.2167  0.0431  0.8560
  189SLPC   C1421774   2.313   4.777   6.319  0.4010 -0.6252 -0.3528
  189SLPC  H14A21775   2.397   4.844   6.325  1.1489 -1.5245 -0.4535
  189SLPC  H14B21776   2.233   4.834   6.274 -1.8399 -0.1547  3.6517
  189SLPC  H14C21777   2.257   4.772   6.412  1.9131 -0.9422  0.5816
  189SLPC   C1521778   2.414   4.685   6.116  0.4014  0.7096  0.1493
  189SLPC  H15A21779   2.509   4.735   6.129 -0.3647  2.5296 -0.8407
  189SLPC  H15B21780   2.430   4.595   6.059 -2.7247 -0.4452  0.8917
  189SLPC  H15C21781   2.352   4.746   6.052  1.3283  1.0565 -0.4427
  189SLPC   C1221782   2.443   4.576   6.310 -0.5277  0.1042 -0.6057
  189SLPC  H12A21783   2.415   4.562   6.413  2.5198 -1.3045  0.1645
  189SLPC  H12B21784   2.533   4.636   6.309  2.1336 -3.4745 -0.6342
  189SLPC   C1121785   2.478   4.439   6.246  0.2493 -0.9135 -0.2071
  189SLPC  H11A21786   2.505   4.450   6.139 -0.1668 -1.3118 -0.3586
  189SLPC  H11B21787   2.398   4.363   6.253  2.1827 -2.9407  1.5615
  189SLPC     P21788   2.739   4.436   6.320  0.0331 -0.4176 -0.4857
  189SLPC   O1321789   2.812   4.351   6.414  0.0884 -0.1556  0.2981
  189SLPC   O1421790   2.785   4.430   6.182 -0.5176 -0.7108  0.4691
  189SLPC   O1221791   2.587   4.387   6.318  1.0111 -0.0340 -0.1255
  189SLPC   O1121792   2.726   4.586   6.367  0.0155  0.6713  0.4586
  189SLPC    C121793   2.810   4.649   6.464  0.3925 -0.3835  0.0698
  189SLPC    HA21794   2.915   4.616   6.455  0.8477  1.1296 -0.6221
  189SLPC    HB21795   2.813   4.759   6.444  1.6664 -0.2976  0.6368
  189SLPC    C221796   2.758   4.621   6.607  0.1993 -0.3366  0.3654
  189SLPC    HS21797   2.781   4.515   6.628  3.0524  0.2583  0.6830
  189SLPC   O2121798   2.615   4.656   6.616 -0.4931 -0.2320  0.3206
  189SLPC   C2121799   2.525   4.562   6.648  0.0491 -0.4113 -0.1425
  189SLPC   O2221800   2.551   4.444   6.630  0.1963 -0.3925  0.1923
  189SLPC   C2221801   2.398   4.618   6.698  0.3899  0.8486 -0.9848
  189SLPC   H2R21802   2.343   4.657   6.609  0.9563  1.3700 -1.1102
  189SLPC   H2S21803   2.346   4.532   6.744 -0.8388  1.0018 -2.0288
  189SLPC    C321804   2.835   4.708   6.714  0.0322  0.0398 -0.2616
  189SLPC    HX21805   2.807   4.812   6.689  0.6172 -0.0812 -1.4673
  189SLPC    HY21806   2.938   4.686   6.679 -0.3660  0.9552 -2.1205
  189SLPC   O3121807   2.796   4.668   6.851  0.1581  0.1793 -0.5194
  189SLPC   C3121808   2.880   4.581   6.916  0.4344 -0.3594 -0.5742
  189SLPC   O3221809   2.985   4.545   6.869 -0.0004 -0.2424 -0.4772
  189SLPC   C3221810   2.839   4.565   7.063  0.6427  0.2987  0.2426
  189SLPC   H2X21811   2.745   4.506   7.060  0.4457  0.6313 -0.2181
  189SLPC   H2Y21812   2.813   4.665   7.106  0.2066  0.0742  0.5017
  189SLPC   C2321813   2.409   4.730   6.805 -0.3548  0.3519 -0.0773
  189SLPC   H3R21814   2.309   4.777   6.797 -1.8081 -2.2399  1.4313
  189SLPC   H3S21815   2.484   4.806   6.774  0.4874 -0.7569 -0.8070
  189SLPC   C2421816   2.431   4.689   6.951 -0.5337  0.8163  0.8146
  189SLPC   H4R21817   2.534   4.651   6.965  0.3835  2.6851 -0.5521
  189SLPC   H4S21818   2.375   4.594   6.970  2.3991 -1.4389 -0.9377
  189SLPC   C2521819   2.407   4.812   7.032  0.0278  0.5700 -0.3559
  189SLPC   H5R21820   2.311   4.857   6.999 -0.0042  0.5974 -0.2273
  189SLPC   H5S21821   2.475   4.896   7.007  1.0367 -0.0493  0.2517
  189SLPC   C2621822   2.400   4.792   7.186  0.5480  0.0731  0.1197
  189SLPC   H6R21823   2.505   4.765   7.210  0.2020 -1.1597  0.3591
  189SLPC   H6S21824   2.338   4.704   7.213 -3.1317  2.5456  0.3907
  189SLPC   C2721825   2.334   4.908   7.260  0.0884 -0.1621 -0.4135
  189SLPC   H7R21826   2.228   4.916   7.226 -0.3150 -1.3271  0.5360
  189SLPC   H7S21827   2.382   5.004   7.230  0.5210 -0.7098 -1.5498
  189SLPC   C2821828   2.351   4.887   7.416 -0.1516 -0.2917  0.1667
  189SLPC   H8R21829   2.457   4.911   7.441  0.8150 -2.6345 -1.3498
  189SLPC   H8S21830   2.341   4.779   7.437 -2.1264 -0.3752 -0.9562
  189SLPC   C2921831   2.251   4.970   7.492 -0.5540  0.1675 -0.4086
  189SLPC   H9R21832   2.148   4.979   7.455 -0.5235  1.9033 -0.1631
  189SLPC  C21021833   2.272   5.028   7.609 -0.2729  0.8188 -0.6358
  189SLPC  H10R21834   2.188   5.074   7.665  0.0244  1.2762 -0.5576
  189SLPC  C21121835   2.404   5.027   7.677  0.3000  0.7224  0.6143
  189SLPC  H11R21836   2.435   5.133   7.674 -0.8840  1.0588 -0.7013
  189SLPC  H11S21837   2.476   4.950   7.641 -0.5208 -0.7290  1.9052
  189SLPC  C21221838   2.379   4.986   7.821 -0.3985 -0.5742 -0.2737
  189SLPC  H12R21839   2.293   4.919   7.833 -2.0673  1.0091 -2.2953
  189SLPC  C21321840   2.440   5.018   7.934  0.2435  0.0966  0.2234
  189SLPC  H13R21841   2.390   4.979   8.024 -0.2273  0.6358  0.2014
  189SLPC  C21421842   2.571   5.092   7.960 -0.4521  0.4405  0.9476
  189SLPC  H14R21843   2.628   5.116   7.868 -2.1494 -0.1322 -0.3030
  189SLPC  H14S21844   2.632   5.027   8.026 -4.0041 -1.7264  2.4339
  189SLPC  C21521845   2.544   5.235   8.011  0.0879 -0.0287  0.1463
  189SLPC  H15R21846   2.477   5.285   7.938 -0.0285  3.0905  2.2083
  189SLPC  H15S21847   2.639   5.291   7.999  0.3075 -0.4392 -0.0469
  189SLPC  C21621848   2.490   5.230   8.156  0.3042 -1.1626  0.0375
  189SLPC  H16R21849   2.577   5.194   8.215  0.1761 -0.3495  0.7383
  189SLPC  H16S21850   2.401   5.164   8.169 -1.4039  1.1391  0.6979
  189SLPC  C21721851   2.445   5.368   8.203 -0.3701  0.5907 -0.0470
  189SLPC  H17R21852   2.338   5.369   8.175 -0.4296  0.2194  0.1674
  189SLPC  H17S21853   2.498   5.453   8.154 -1.5349  0.2273 -2.0446
  189SLPC  C21821854   2.448   5.388   8.358 -0.2577 -0.2381  0.3894
  189SLPC  H18R21855   2.401   5.484   8.386  0.8429  0.1577  0.9473
  189SLPC  H18S21856   2.547   5.388   8.409 -0.1176  3.8048  0.4669
  189SLPC  H18T21857   2.382   5.314   8.408  1.2507 -0.8218  1.5818
  189SLPC   C3321858   2.944   4.488   7.140 -0.2547 -0.1235  0.5151
  189SLPC   H3X21859   3.048   4.524   7.123  0.2061 -1.1627  1.0189
  189SLPC   H3Y21860   2.941   4.385   7.098 -1.0626  0.8708 -2.0521
  189SLPC   C3421861   2.912   4.495   7.289 -0.5404 -0.8230  0.3598
  189SLPC   H4X21862   2.816   4.447   7.317 -0.6078 -1.1426 -0.3995
  189SLPC   H4Y21863   2.916   4.599   7.327 -0.2400 -1.2831  1.6359
  189SLPC   C3521864   3.028   4.431   7.378 -0.1461  0.2057  0.2554
  189SLPC   H5X21865   3.128   4.476   7.358  0.0058 -0.6231 -0.9581
  189SLPC   H5Y21866   3.032   4.321   7.363 -0.2535  0.1599  0.5574
  189SLPC   C3621867   2.996   4.455   7.524 -1.2184  0.3299  0.3312
  189SLPC   H6X21868   2.891   4.421   7.538 -1.1886 -1.3737 -2.6052
  189SLPC   H6Y21869   3.009   4.560   7.556  2.7438 -0.0198  0.3934
  189SLPC   C3721870   3.088   4.379   7.624  0.1201  0.2047  0.2970
  189SLPC   H7X21871   3.189   4.362   7.582  0.2234  0.2961  0.5047
  189SLPC   H7Y21872   3.051   4.274   7.631  0.4684  0.1158  0.8398
  189SLPC   C3821873   3.064   4.437   7.761 -0.8631 -0.2300 -0.6927
  189SLPC   H8X21874   2.953   4.442   7.767 -0.9210  0.6816 -2.1052
  189SLPC   H8Y21875   3.110   4.538   7.771  0.6815 -1.0768  1.4219
  189SLPC   C3921876   3.114   4.346   7.873 -0.5819 -0.2159 -0.3167
  189SLPC   H9X21877   3.222   4.322   7.870 -0.9056 -1.7993 -0.0790
  189SLPC   H9Y21878   3.045   4.259   7.868  1.1720 -1.7575  0.9962
  189SLPC  C31021879   3.082   4.403   8.008 -0.0940 -0.1170  0.1743
  189SLPC  H10X21880   2.973   4.423   8.002 -0.4189 -1.3318  1.4581
  189SLPC  H10Y21881   3.140   4.496   8.024 -0.9784  0.2650  1.3197
  189SLPC  C31121882   3.102   4.298   8.122 -0.1158 -0.5428  0.2284
  189SLPC  H11X21883   3.213   4.304   8.130 -0.1120 -1.4201  0.9890
  189SLPC  H11Y21884   3.073   4.201   8.075  0.2101 -1.3743  1.6796
  189SLPC  C31221885   3.022   4.325   8.249  0.8877  0.2254 -0.5638
  189SLPC  H12X21886   2.921   4.354   8.216  0.3056 -0.7747  0.2671
  189SLPC  H12Y21887   3.055   4.409   8.313 -2.6741  1.0649  0.3263
  189SLPC  C31321888   3.008   4.195   8.336 -0.0222  0.5982 -0.4919
  189SLPC  H13X21889   2.943   4.122   8.283  0.2237  0.6723 -0.8992
  189SLPC  H13Y21890   2.973   4.224   8.438 -0.8739  1.5386 -1.0361
  189SLPC  C31421891   3.155   4.127   8.360  1.2471 -0.3336  0.3384
  189SLPC  H14X21892   3.216   4.132   8.267 -0.8460 -2.3887 -1.2535
  189SLPC  H14Y21893   3.138   4.023   8.393 -0.9565  0.0689  0.6630
  189SLPC  C31521894   3.238   4.200   8.467 -0.2009  0.4736  0.7136
  189SLPC  H15X21895   3.193   4.176   8.566  0.7319 -1.8924  0.6378
  189SLPC  H15Y21896   3.245   4.307   8.439  0.3713 -0.4289 -3.0618
  189SLPC  C31621897   3.380   4.138   8.481  0.3850  0.3765  0.0261
  189SLPC  H16X21898   3.434   4.147   8.385 -1.1350 -0.6645 -0.9641
  189SLPC  H16Y21899   3.362   4.032   8.510 -1.5951  0.4434 -0.8337
  189SLPC  C31721900   3.474   4.202   8.585  0.0125  0.6261 -0.6432
  189SLPC  H17X21901   3.449   4.176   8.690 -1.6666  2.5411 -0.5015
  189SLPC  H17Y21902   3.484   4.312   8.576  0.6764  0.6747  0.5762
  189SLPC  C31821903   3.609   4.152   8.560  0.0120  0.2298  0.5240
  189SLPC  H18X21904   3.636   4.061   8.618 -2.0288 -0.5560  0.3396
  189SLPC  H18Y21905   3.690   4.223   8.588 -0.4972 -0.4624  4.2061
  189SLPC  H18Z21906   3.633   4.124   8.455  1.3455  1.3213  0.5042
  190SLPC     N21907   3.689   4.947   6.340  0.4792  0.0463  0.5898
  190SLPC   C1321908   3.608   5.027   6.234 -0.2938 -0.3675  0.2468
  190SLPC  H13A21909   3.636   5.131   6.227 -0.4677 -0.3679 -0.7054
  190SLPC  H13B21910   3.611   4.981   6.136 -1.6041 -2.5538  1.1644
  190SLPC  H13C21911   3.504   5.027   6.263  0.6066  3.7312  4.6653
  190SLPC   C1421912   3.672   4.804   6.326 -0.3407 -0.6785  0.2408
  190SLPC  H14A21913   3.717   4.766   6.236 -3.0477  0.2359 -1.6278
  190SLPC  H14B21914   3.719   4.759   6.412 -1.1235 -2.3482 -0.1826
  190SLPC  H14C21915   3.569   4.775   6.314 -0.2059 -0.5152 -1.6453
  190SLPC   C1521916   3.642   4.995   6.472 -0.4430 -0.1168 -0.4439
  190SLPC  H15A21917   3.539   4.972   6.492 -0.1138 -1.7903 -0.4918
  190SLPC  H15B21918   3.692   4.938   6.549 -2.5675  0.5397  1.5393
  190SLPC  H15C21919   3.667   5.100   6.473 -0.9834  0.0464 -1.9724
  190SLPC   C1221920   3.840   4.981   6.321  0.3211 -0.0892 -0.4644
  190SLPC  H12A21921   3.902   4.936   6.397  1.4858  0.8848 -0.8027
  190SLPC  H12B21922   3.846   5.088   6.335 -1.3065 -0.0178 -0.0378
  190SLPC   C1121923   3.904   4.957   6.186 -0.0888 -0.3671  0.7189
  190SLPC  H11A21924   3.852   5.020   6.111  0.5223  0.1312  0.7081
  190SLPC  H11B21925   3.883   4.853   6.152 -2.9647 -0.4519  2.5105
  190SLPC     P21926   4.093   5.133   6.196 -0.0908  0.1857  0.3971
  190SLPC   O1321927   4.169   5.153   6.072  0.1686  0.2829 -0.1385
  190SLPC   O1421928   3.982   5.224   6.221  0.0591  0.1617 -0.1436
  190SLPC   O1221929   4.044   4.986   6.190 -0.4329  0.7910  0.0026
  190SLPC   O1121930   4.184   5.130   6.324 -0.3031 -0.0070  0.2465
  190SLPC    C121931   4.138   5.109   6.453  0.8984 -0.0475 -0.5512
  190SLPC    HA21932   4.048   5.170   6.474  0.5023 -1.0652  0.8373
  190SLPC    HB21933   4.118   5.001   6.471 -1.7210  0.6139  0.9056
  190SLPC    C221934   4.249   5.154   6.557  0.0137 -0.2107  0.3745
  190SLPC    HS21935   4.270   5.260   6.529  0.6105 -1.0774 -2.8746
  190SLPC   O2121936   4.367   5.067   6.544  0.0005 -0.0327  0.5884
  190SLPC   C2121937   4.484   5.111   6.579  0.7054 -0.3264 -0.4680
  190SLPC   O2221938   4.514   5.229   6.579  0.1446 -0.4873 -0.4450
  190SLPC   C2221939   4.559   4.992   6.642  0.2253 -0.0497 -0.2809
  190SLPC   H2R21940   4.480   4.935   6.694  0.0119 -1.1595 -1.7445
  190SLPC   H2S21941   4.587   4.930   6.554  1.0025 -1.7984  1.1505
  190SLPC    C321942   4.194   5.139   6.695  0.1968  0.1543  0.5100
  190SLPC    HX21943   4.202   5.030   6.715  0.1170  0.0305 -0.1012
  190SLPC    HY21944   4.089   5.174   6.696 -0.9346 -2.9740  1.2180
  190SLPC   O3121945   4.278   5.197   6.797  0.0375  0.0963 -0.2208
  190SLPC   C3121946   4.275   5.328   6.787  0.4559  0.2531  0.2911
  190SLPC   O3221947   4.197   5.389   6.717  0.2435 -0.2801 -0.2786
  190SLPC   C3221948   4.391   5.367   6.870  0.0900 -0.0983  0.4581
  190SLPC   H2X21949   4.379   5.478   6.865  1.0991  0.1603  2.4834
  190SLPC   H2Y21950   4.481   5.334   6.813 -0.2147 -0.7852  0.3685
  190SLPC   C2321951   4.684   5.033   6.721  0.0206 -0.1568 -0.4020
  190SLPC   H3R21952   4.727   5.120   6.668 -0.3719 -0.1256 -0.6685
  190SLPC   H3S21953   4.755   4.949   6.702 -1.0589 -1.3590  0.6838
  190SLPC   C2421954   4.661   5.052   6.877  0.9029 -0.5703  0.5839
  190SLPC   H4R21955   4.609   4.966   6.923  0.9724 -0.7488  0.3278
  190SLPC   H4S21956   4.595   5.142   6.879  2.6637  0.7745  0.8606
  190SLPC   C2521957   4.786   5.093   6.966  0.7355 -0.3976 -0.7409
  190SLPC   H5R21958   4.816   5.194   6.929 -2.1548 -0.1718 -2.8477
  190SLPC   H5S21959   4.859   5.011   6.954  1.6757  0.4371 -0.8790
  190SLPC   C2621960   4.756   5.118   7.117  0.7850  0.2600  0.1810
  190SLPC   H6R21961   4.724   5.033   7.182  1.6372  2.2443  3.4157
  190SLPC   H6S21962   4.665   5.182   7.119  0.2439 -0.4992  0.7448
  190SLPC   C2721963   4.872   5.188   7.183 -0.3226  0.9201  0.1730
  190SLPC   H7R21964   4.895   5.272   7.113  1.2381  0.8972  0.6131
  190SLPC   H7S21965   4.962   5.124   7.196 -0.3081  0.7646 -0.6359
  190SLPC   C2821966   4.832   5.251   7.320  0.0649  0.4012  0.4035
  190SLPC   H8R21967   4.806   5.166   7.387 -1.1027  0.3890 -0.0329
  190SLPC   H8S21968   4.732   5.300   7.319  0.9918  2.3659  0.7292
  190SLPC   C2921969   4.933   5.348   7.376 -0.0154  0.5453 -0.8970
  190SLPC   H9R21970   4.955   5.445   7.329  1.8127  0.4155 -0.3519
  190SLPC  C21021971   5.007   5.318   7.489 -0.7826 -0.1408  0.1945
  190SLPC  H10R21972   5.075   5.398   7.522 -1.5241  0.8257 -0.5587
  190SLPC  C21121973   5.019   5.198   7.584  0.3021 -0.3850 -0.4632
  190SLPC  H11R21974   4.959   5.115   7.541  0.4203 -0.7457  0.0645
  190SLPC  H11S21975   4.960   5.217   7.677 -0.5573  0.2384 -1.1141
  190SLPC  C21221976   5.160   5.147   7.602  0.0859  0.1110  0.6931
  190SLPC  H12R21977   5.189   5.075   7.523  1.2778  2.9678 -1.6675
  190SLPC  C21321978   5.246   5.174   7.704 -0.0541 -0.3668  0.7681
  190SLPC  H13R21979   5.348   5.133   7.708 -0.2262 -0.7388  1.7154
  190SLPC  C21421980   5.214   5.258   7.825  0.0660 -0.1647 -0.4448
  190SLPC  H14R21981   5.135   5.328   7.789 -0.7067 -1.7630 -2.0166
  190SLPC  H14S21982   5.302   5.310   7.868  0.0936 -0.7342  0.1942
  190SLPC  C21521983   5.138   5.180   7.938 -0.6266 -0.0538  0.0209
  190SLPC  H15R21984   5.188   5.082   7.950 -1.6910 -0.5289  0.6898
  190SLPC  H15S21985   5.038   5.146   7.903 -0.8359  1.8604 -1.4448
  190SLPC  C21621986   5.153   5.261   8.070  0.5361 -0.3632  0.1452
  190SLPC  H16R21987   5.108   5.360   8.050 -3.2107 -2.7168 -6.3211
  190SLPC  H16S21988   5.262   5.266   8.090  0.7844 -1.8415 -0.6622
  190SLPC  C21721989   5.094   5.189   8.189 -0.5932 -0.3681  0.3754
  190SLPC  H17R21990   5.137   5.087   8.200  2.4133  0.9228  1.8039
  190SLPC  H17S21991   4.984   5.178   8.177 -0.8917  1.4667  1.0993
  190SLPC  C21821992   5.108   5.271   8.317  0.4207 -0.3348 -0.5256
  190SLPC  H18R21993   5.039   5.224   8.390  1.1119  0.7894  0.8883
  190SLPC  H18S21994   5.075   5.374   8.294  1.4732  0.0222 -0.4710
  190SLPC  H18T21995   5.213   5.276   8.351 -0.3050  0.1079  1.7940
  190SLPC   C3321996   4.401   5.325   7.021 -0.1398  0.3568 -0.0598
  190SLPC   H3X21997   4.492   5.376   7.060  1.1032 -1.7438 -0.0670
  190SLPC   H3Y21998   4.416   5.216   7.036 -1.1155  0.4568  1.8303
  190SLPC   C3421999   4.277   5.377   7.101 -0.1939 -0.6864 -0.4284
  190SLPC   H4X22000   4.196   5.307   7.072  0.2171 -0.5346 -2.0311
  190SLPC   H4Y22001   4.241   5.466   7.046  0.0784 -1.3319 -1.6929
  190SLPC   C3522002   4.306   5.387   7.254  0.0021  0.2725  0.0184
  190SLPC   H5X22003   4.338   5.288   7.294 -0.2795 -0.0752 -0.6032
  190SLPC   H5Y22004   4.212   5.413   7.307 -0.4218  1.1670 -1.1338
  190SLPC   C3622005   4.416   5.489   7.287 -0.5731  0.1464 -0.2141
  190SLPC   H6X22006   4.384   5.586   7.243  0.9118  1.4883  1.5414
  190SLPC   H6Y22007   4.516   5.464   7.246  0.1029  1.0264  0.8669
  190SLPC   C3722008   4.442   5.518   7.441  0.6342  0.0004 -0.3563
  190SLPC   H7X22009   4.491   5.430   7.488  1.6909  0.3283 -0.8157
  190SLPC   H7Y22010   4.349   5.542   7.498  2.0233  0.2001  1.9227
  190SLPC   C3822011   4.540   5.634   7.461  0.1893  0.0698 -0.1078
  190SLPC   H8X22012   4.506   5.718   7.397  0.9599  1.1263  0.8241
  190SLPC   H8Y22013   4.645   5.604   7.440  0.2561  1.3395 -1.8097
  190SLPC   C3922014   4.536   5.680   7.608 -0.5243 -0.2114 -0.3845
  190SLPC   H9X22015   4.579   5.599   7.670  3.0579  1.8695  0.1371
  190SLPC   H9Y22016   4.434   5.692   7.650 -0.2344 -0.6189  0.4708
  190SLPC  C31022017   4.626   5.802   7.634 -0.0399  0.4913  0.1009
  190SLPC  H10X22018   4.712   5.796   7.565  0.5227 -1.4312  0.9055
  190SLPC  H10Y22019   4.657   5.804   7.741  1.5355  1.4394 -0.3527
  190SLPC  C31122020   4.552   5.934   7.624  0.0916  0.8038  0.0395
  190SLPC  H11X22021   4.467   5.922   7.694 -1.0767 -0.6191 -1.5604
  190SLPC  H11Y22022   4.514   5.927   7.520  1.5307 -1.4066 -0.4242
  190SLPC  C31222023   4.628   6.061   7.662  0.1851 -0.6737 -0.4924
  190SLPC  H12X22024   4.669   6.048   7.765 -0.2878  1.2077 -0.0378
  190SLPC  H12Y22025   4.556   6.145   7.668  1.3869  0.3068  1.1957
  190SLPC  C31322026   4.748   6.089   7.568 -0.8064  0.8229 -0.0413
  190SLPC  H13X22027   4.804   5.997   7.539  1.6544  2.1349  0.2759
  190SLPC  H13Y22028   4.823   6.141   7.631 -0.2379 -0.5676  0.4780
  190SLPC  C31422029   4.701   6.156   7.439  0.8074  0.2746  0.3600
  190SLPC  H14X22030   4.630   6.235   7.470 -1.6953 -1.8407  0.3816
  190SLPC  H14Y22031   4.644   6.080   7.381  1.8392 -0.6316  0.5060
  190SLPC  C31522032   4.809   6.211   7.339  0.3109 -0.5053 -0.3094
  190SLPC  H15X22033   4.909   6.162   7.348  1.4037  1.8952  1.6386
  190SLPC  H15Y22034   4.836   6.315   7.367 -1.1457 -0.1807 -0.0496
  190SLPC  C31622035   4.738   6.204   7.198  0.0420  0.8109 -0.0366
  190SLPC  H16X22036   4.669   6.289   7.182 -2.1313 -1.3432 -3.3966
  190SLPC  H16Y22037   4.672   6.115   7.185  0.3274  0.5924 -0.0021
  190SLPC  C31722038   4.831   6.183   7.075  0.0676 -0.4212 -0.1703
  190SLPC  H17X22039   4.854   6.074   7.073  2.7780  0.0933 -0.5026
  190SLPC  H17Y22040   4.929   6.234   7.087  1.3306 -2.4544 -1.2761
  190SLPC  C31822041   4.761   6.220   6.942  0.7440 -0.3869 -0.2378
  190SLPC  H18X22042   4.825   6.206   6.852  1.2486  2.8903 -0.5362
  190SLPC  H18Y22043   4.728   6.327   6.937 -1.9154 -1.0548  1.1495
  190SLPC  H18Z22044   4.673   6.153   6.936  0.7747 -0.3938 -0.6574
  191SLPC     N22045   1.730   5.904   5.940 -0.6602 -0.3693  0.6590
  191SLPC   C1322046   1.647   5.894   6.066  0.3851  0.4899  0.0655
  191SLPC  H13A22047   1.679   5.961   6.144 -0.6254  0.3318  0.6303
  191SLPC  H13B22048   1.542   5.912   6.048  0.5841  2.5006  0.7401
  191SLPC  H13C22049   1.648   5.792   6.101  0.0263  1.0569  1.7972
  191SLPC   C1422050   1.699   6.037   5.875  0.0605  0.4624 -0.3786
  191SLPC  H14A22051   1.595   6.034   5.849  0.1045 -3.0494 -0.6980
  191SLPC  H14B22052   1.720   6.119   5.942 -0.8557  0.3264  0.0921
  191SLPC  H14C22053   1.751   6.055   5.782 -1.3948  2.0862 -0.9243
  191SLPC   C1522054   1.697   5.802   5.841  0.6097  0.5626 -0.3582
  191SLPC  H15A22055   1.600   5.836   5.808  0.8782 -0.0651 -1.8824
  191SLPC  H15B22056   1.770   5.790   5.762 -0.0427 -0.1741 -0.8672
  191SLPC  H15C22057   1.683   5.700   5.875 -1.3482  0.4514 -1.3494
  191SLPC   C1222058   1.874   5.892   5.969 -0.1859 -0.2246  0.0273
  191SLPC  H12A22059   1.928   5.917   5.880 -0.4802  0.9192  0.1511
  191SLPC  H12B22060   1.902   5.791   5.996 -0.0564 -1.1241 -3.1149
  191SLPC   C1122061   1.918   5.972   6.089  0.1276  0.3346  0.6119
  191SLPC  H11A22062   1.871   5.930   6.181 -1.5138  2.8381  1.0252
  191SLPC  H11B22063   1.881   6.076   6.083 -0.4159  0.1558  0.7400
  191SLPC     P22064   2.140   5.830   6.137 -0.3072  0.7238 -0.6714
  191SLPC   O1322065   2.047   5.718   6.162  0.3312  0.1705  0.1197
  191SLPC   O1422066   2.245   5.801   6.039 -0.0965 -0.1376  0.5820
  191SLPC   O1222067   2.054   5.966   6.095 -0.0074  0.5576 -0.3273
  191SLPC   O1122068   2.214   5.871   6.269 -0.8129 -0.1378 -0.1945
  191SLPC    C122069   2.177   5.975   6.362  0.4633  1.5877 -0.1352
  191SLPC    HA22070   2.212   6.069   6.314  1.8804  0.6585 -0.9970
  191SLPC    HB22071   2.067   5.981   6.371  0.1821 -2.1400  0.0987
  191SLPC    C222072   2.263   5.966   6.494  0.5705  0.1677  0.4430
  191SLPC    HS22073   2.231   5.875   6.550  1.0193  1.4117  2.8650
  191SLPC   O2122074   2.237   6.082   6.570  0.9333  0.1601  0.0942
  191SLPC   C2122075   2.274   6.078   6.698  0.1121  0.3925  0.3665
  191SLPC   O2222076   2.309   5.982   6.761 -0.0030  0.0528 -0.6571
  191SLPC   C2222077   2.270   6.218   6.760 -0.0656  0.3321 -0.1094
  191SLPC   H2R22078   2.350   6.284   6.719 -0.9450  0.3963 -1.7909
  191SLPC   H2S22079   2.170   6.256   6.733 -0.2847  0.0689  0.3279
  191SLPC    C322080   2.414   5.945   6.451 -0.1178 -0.6118 -0.0607
  191SLPC    HX22081   2.428   6.028   6.379 -0.9141  1.6294  2.2181
  191SLPC    HY22082   2.422   5.848   6.398 -1.1092  0.6960 -2.7851
  191SLPC   O3122083   2.503   5.954   6.565  0.4480 -0.4312 -0.4971
  191SLPC   C3122084   2.577   6.061   6.585  0.3391  0.3963  0.1350
  191SLPC   O3222085   2.572   6.167   6.525  0.0826  0.5088  0.4744
  191SLPC   C3222086   2.659   6.036   6.713 -0.2714 -0.8834 -0.8791
  191SLPC   H2X22087   2.748   5.977   6.682  0.6370  0.6475 -1.3317
  191SLPC   H2Y22088   2.587   5.985   6.781 -1.0854  1.5413  0.1880
  191SLPC   C2322089   2.286   6.196   6.911 -0.4646 -0.3438 -0.1078
  191SLPC   H3R22090   2.375   6.134   6.935 -2.0190 -2.3609  0.7022
  191SLPC   H3S22091   2.197   6.145   6.952 -0.1792 -1.2371 -0.5650
  191SLPC   C2422092   2.314   6.326   6.988  0.6455  0.6990  0.0920
  191SLPC   H4R22093   2.228   6.396   6.981 -0.3930 -0.5052  0.4494
  191SLPC   H4S22094   2.404   6.376   6.946 -0.2342  2.2197 -0.0776
  191SLPC   C2522095   2.346   6.309   7.138 -0.3638  0.3596  0.1285
  191SLPC   H5R22096   2.386   6.405   7.177 -1.6668  0.8718  0.2220
  191SLPC   H5S22097   2.424   6.234   7.162 -1.6865 -1.9359 -2.2512
  191SLPC   C2622098   2.217   6.267   7.213 -0.0288  0.3720 -0.9592
  191SLPC   H6R22099   2.174   6.169   7.185  0.7576  0.4705 -2.5639
  191SLPC   H6S22100   2.138   6.345   7.201 -0.6669  0.1253  1.1753
  191SLPC   C2722101   2.240   6.268   7.368  0.6070  0.0371  0.2215
  191SLPC   H7R22102   2.302   6.351   7.409  1.0697 -1.5650  3.0296
  191SLPC   H7S22103   2.304   6.178   7.376 -1.1701 -1.3003 -0.0919
  191SLPC   C2822104   2.114   6.265   7.442  0.6242 -0.1697  0.1952
  191SLPC   H8R22105   2.129   6.198   7.530 -0.0911  0.8591  1.1216
  191SLPC   H8S22106   2.045   6.209   7.375  0.3821  0.2406  0.1035
  191SLPC   C2922107   2.057   6.398   7.481 -0.0645  0.0244 -0.4019
  191SLPC   H9R22108   2.025   6.465   7.399 -0.4221  2.0513  1.3196
  191SLPC  C21022109   2.045   6.445   7.606 -0.5398 -0.1184 -0.2173
  191SLPC  H10R22110   2.003   6.545   7.626  2.9537  1.3738  0.3177
  191SLPC  C21122111   2.085   6.370   7.736  0.4810 -0.1164  0.1065
  191SLPC  H11R22112   2.168   6.298   7.722 -0.2446 -1.0254  0.3394
  191SLPC  H11S22113   2.005   6.294   7.752  1.8543 -1.4981  0.6829
  191SLPC  C21222114   2.102   6.457   7.857  0.3212  0.2945  0.1246
  191SLPC  H12R22115   2.195   6.514   7.871 -0.3423  0.9581  2.2814
  191SLPC  C21322116   2.017   6.481   7.954  0.4040 -0.4397 -0.5871
  191SLPC  H13R22117   2.047   6.562   8.023  1.7341 -0.6497 -0.9083
  191SLPC  C21422118   1.879   6.419   7.956 -1.0414 -0.1697 -0.4729
  191SLPC  H14R22119   1.851   6.367   7.862 -1.5423  0.1864 -0.5262
  191SLPC  H14S22120   1.797   6.491   7.977 -1.6400 -0.4559 -1.7132
  191SLPC  C21522121   1.877   6.318   8.071  0.2767  0.2880  0.0317
  191SLPC  H15R22122   1.918   6.363   8.164 -1.4918 -0.2202  1.0897
  191SLPC  H15S22123   1.954   6.241   8.047  0.5355  1.3451 -2.9311
  191SLPC  C21622124   1.740   6.261   8.115 -0.6060 -0.1730 -0.4845
  191SLPC  H16R22125   1.710   6.187   8.038  1.1145 -2.5330  0.9411
  191SLPC  H16S22126   1.672   6.348   8.123 -0.3680  0.2137 -2.2469
  191SLPC  C21722127   1.736   6.189   8.249  0.0477 -0.6269  0.4173
  191SLPC  H17R22128   1.784   6.253   8.326  0.7148 -0.2579 -0.2908
  191SLPC  H17S22129   1.789   6.091   8.252  0.1291 -0.5650  1.2350
  191SLPC  C21822130   1.590   6.158   8.295  0.1933  0.8835  0.5241
  191SLPC  H18R22131   1.601   6.117   8.398 -0.7715  2.4098  1.2670
  191SLPC  H18S22132   1.553   6.072   8.234 -0.2079 -0.0549  2.0300
  191SLPC  H18T22133   1.524   6.246   8.301 -0.5364  0.2548  2.5303
  191SLPC   C3322134   2.702   6.168   6.779 -0.3101  0.9604 -0.2377
  191SLPC   H3X22135   2.612   6.231   6.792 -0.6756 -0.0417  2.6629
  191SLPC   H3Y22136   2.776   6.224   6.718  1.5624  0.2392  1.2750
  191SLPC   C3422137   2.769   6.156   6.916  0.6221 -0.0236  0.5591
  191SLPC   H4X22138   2.862   6.095   6.911  0.8842  0.2656  1.7118
  191SLPC   H4Y22139   2.707   6.104   6.991  0.8343  0.5513  1.1466
  191SLPC   C3522140   2.810   6.299   6.964  0.2673  0.2655 -0.5070
  191SLPC   H5X22141   2.736   6.373   6.928  0.1851  1.4952  2.0131
  191SLPC   H5Y22142   2.905   6.330   6.916  0.3160 -0.9177 -1.2254
  191SLPC   C3622143   2.835   6.304   7.116 -0.7733  0.3504  0.1147
  191SLPC   H6X22144   2.920   6.371   7.140  1.0941 -0.8996 -2.4181
  191SLPC   H6Y22145   2.877   6.204   7.140 -0.6397 -0.0251 -1.5354
  191SLPC   C3722146   2.713   6.326   7.210  0.3756  0.0319 -0.0739
  191SLPC   H7X22147   2.640   6.243   7.193  0.7365 -0.4573  0.6813
  191SLPC   H7Y22148   2.669   6.426   7.187  0.4259  1.1327  3.8551
  191SLPC   C3822149   2.745   6.332   7.360 -0.1750 -0.5032  0.6473
  191SLPC   H8X22150   2.809   6.422   7.370 -0.0840 -0.4724 -0.2008
  191SLPC   H8Y22151   2.817   6.249   7.381  0.2927 -0.0902  0.7050
  191SLPC   C3922152   2.630   6.345   7.452  0.7203  0.0227 -0.4294
  191SLPC   H9X22153   2.580   6.245   7.449  0.4158  0.1931 -1.0143
  191SLPC   H9Y22154   2.555   6.423   7.428 -0.3370 -0.9141 -0.2722
  191SLPC  C31022155   2.670   6.359   7.602  0.3633  0.2257 -0.3171
  191SLPC  H10X22156   2.723   6.455   7.619  2.9574 -1.1307 -0.3332
  191SLPC  H10Y22157   2.749   6.284   7.622 -0.9895 -1.7281 -1.8830
  191SLPC  C31122158   2.543   6.338   7.699 -0.0802 -0.1609  0.7047
  191SLPC  H11X22159   2.476   6.255   7.667  0.7215  0.0633 -1.7825
  191SLPC  H11Y22160   2.484   6.431   7.688 -2.6594 -1.3414  3.3336
  191SLPC  C31222161   2.576   6.308   7.848 -0.1462  0.1656 -0.3133
  191SLPC  H12X22162   2.667   6.366   7.873 -0.7121  0.4891  1.1123
  191SLPC  H12Y22163   2.602   6.201   7.853  0.6293  0.2704 -1.7779
  191SLPC  C31322164   2.471   6.349   7.948 -0.0375  0.7353 -1.0469
  191SLPC  H13X22165   2.375   6.300   7.920 -0.7548  1.1667  0.4803
  191SLPC  H13Y22166   2.469   6.459   7.935 -0.6114  0.7869 -0.5730
  191SLPC  C31422167   2.506   6.321   8.100  0.0515  0.2062  0.1116
  191SLPC  H14X22168   2.598   6.377   8.127  0.2596 -0.1535  0.1580
  191SLPC  H14Y22169   2.524   6.212   8.113  2.0295  0.5302  0.4394
  191SLPC  C31522170   2.404   6.355   8.199  0.1069  0.1253  0.4922
  191SLPC  H15X22171   2.398   6.466   8.202  2.1641  0.4618 -2.9973
  191SLPC  H15Y22172   2.428   6.322   8.303 -1.1459  1.0725  1.1193
  191SLPC  C31622173   2.274   6.289   8.157 -0.1197 -0.0083 -0.4006
  191SLPC  H16X22174   2.288   6.179   8.148  0.9122  0.1179 -0.4916
  191SLPC  H16Y22175   2.228   6.328   8.064  0.4177  0.9363 -0.2878
  191SLPC  C31722176   2.173   6.313   8.264 -0.3176 -0.0251 -0.2594
  191SLPC  H17X22177   2.082   6.255   8.236 -1.2045  0.1688  1.9949
  191SLPC  H17Y22178   2.132   6.416   8.270 -0.5775 -0.0926 -0.7617
  191SLPC  C31822179   2.207   6.266   8.409  0.0968  0.5091 -0.5710
  191SLPC  H18X22180   2.254   6.350   8.465 -1.7358  3.4351 -3.1272
  191SLPC  H18Y22181   2.268   6.174   8.398 -2.3393 -0.9380 -3.2796
  191SLPC  H18Z22182   2.116   6.233   8.464  1.8386 -1.0401  1.5736
  192SLPC     N22183   1.996   0.602   6.036  0.4051  0.0602 -0.2082
  192SLPC   C1322184   1.887   0.526   6.114 -0.2165  0.0947 -0.2864
  192SLPC  H13A22185   1.913   0.422   6.122 -0.0741  0.1449 -0.0822
  192SLPC  H13B22186   1.879   0.563   6.216 -1.0897 -1.1215  0.1077
  192SLPC  H13C22187   1.786   0.552   6.086  0.1386 -1.0908 -2.9658
  192SLPC   C1422188   1.985   0.543   5.900 -0.1083  0.7840  0.2772
  192SLPC  H14A22189   2.040   0.596   5.824  1.7130 -1.3677 -0.0004
  192SLPC  H14B22190   2.014   0.439   5.899  1.2955  1.1538  0.6415
  192SLPC  H14C22191   1.880   0.540   5.873 -0.8892 -1.4965  3.1057
  192SLPC   C1522192   2.137   0.583   6.098  0.1322 -0.0926 -0.5687
  192SLPC  H15A22193   2.208   0.635   6.035 -1.3019 -0.7926 -2.8799
  192SLPC  H15B22194   2.133   0.633   6.194  0.2686 -1.8942  0.4093
  192SLPC  H15C22195   2.154   0.479   6.119 -3.0312 -0.3927  1.0577
  192SLPC   C1222196   1.957   0.749   6.029 -0.2475  0.6842  0.1406
  192SLPC  H12A22197   1.850   0.745   6.016 -0.8207  0.2185  3.8407
  192SLPC  H12B22198   2.005   0.787   5.941  0.1298 -3.0324 -1.4438
  192SLPC   C1122199   1.977   0.830   6.154 -0.2723 -0.1152 -0.1122
  192SLPC  H11A22200   1.956   0.934   6.121  0.2712  0.4674  1.3375
  192SLPC  H11B22201   2.081   0.832   6.193 -1.0942  0.4302  2.2058
  192SLPC     P22202   1.786   0.884   6.314  0.2564 -0.3169  0.2147
  192SLPC   O1322203   1.716   0.954   6.197 -0.6251 -0.1462 -0.2163
  192SLPC   O1422204   1.706   0.817   6.416  0.0663  0.2600 -0.4551
  192SLPC   O1222205   1.890   0.780   6.257  0.1315 -0.2666  0.5331
  192SLPC   O1122206   1.879   0.992   6.378  0.3663 -0.1552  0.2014
  192SLPC    C122207   1.998   0.959   6.456 -0.3316 -0.8084 -0.6166
  192SLPC    HA22208   2.050   0.871   6.413  0.8692  0.1623 -1.2249
  192SLPC    HB22209   2.078   1.034   6.437  0.1530 -1.0327  0.4679
  192SLPC    C222210   1.981   0.968   6.607  0.3513 -0.1173  0.7854
  192SLPC    HS22211   1.920   0.881   6.640 -1.2485  0.2821 -0.9510
  192SLPC   O2122212   1.926   1.099   6.644 -0.3620  0.3424  0.1891
  192SLPC   C2122213   1.865   1.088   6.756 -1.1136 -0.2038 -0.3394
  192SLPC   O2222214   1.820   0.992   6.813 -0.1955 -0.1232  0.9758
  192SLPC   C2222215   1.844   1.244   6.802 -0.2931  0.4275 -0.2275
  192SLPC   H2R22216   1.945   1.291   6.793 -0.0449  0.0647  0.4756
  192SLPC   H2S22217   1.784   1.292   6.723 -2.2613  1.1803  1.6162
  192SLPC    C322218   2.126   0.969   6.667  0.0799 -0.0623  0.0126
  192SLPC    HX22219   2.171   1.069   6.650  1.2865 -0.4213  0.9583
  192SLPC    HY22220   2.176   0.889   6.607 -1.4418 -0.5622 -0.6458
  192SLPC   O3122221   2.113   0.938   6.804  0.0287 -0.1263 -0.0487
  192SLPC   C3122222   2.223   0.936   6.880 -0.1858 -0.6794  0.4644
  192SLPC   O3222223   2.336   0.958   6.838  0.0453  0.0167  0.7018
  192SLPC   C3222224   2.182   0.910   7.030 -0.3139 -0.3320  0.3105
  192SLPC   H2X22225   2.140   0.807   7.030 -1.3155  0.0242  2.3198
  192SLPC   H2Y22226   2.090   0.968   7.054 -0.0948  0.2800 -0.3196
  192SLPC   C2322227   1.775   1.251   6.935  0.1466 -0.5284 -1.1291
  192SLPC   H3R22228   1.683   1.188   6.942  1.8377 -3.1034 -0.8730
  192SLPC   H3S22229   1.750   1.355   6.966  1.7471 -0.2288 -0.7566
  192SLPC   C2422230   1.859   1.190   7.050  0.1828  0.6645 -0.3205
  192SLPC   H4R22231   1.960   1.237   7.051  1.1415 -1.1742  2.4840
  192SLPC   H4S22232   1.881   1.085   7.020  1.2630  1.3332 -2.0069
  192SLPC   C2522233   1.822   1.208   7.196 -0.3001  0.1355  0.2801
  192SLPC   H5R22234   1.811   1.317   7.214 -3.6486 -0.0105 -0.2317
  192SLPC   H5S22235   1.902   1.158   7.254  0.7614 -0.0984 -1.3355
  192SLPC   C2622236   1.698   1.136   7.238  0.6485  0.3212  0.7765
  192SLPC   H6R22237   1.707   1.028   7.211 -2.2984  0.7459 -2.5696
  192SLPC   H6S22238   1.605   1.169   7.188 -0.0279 -1.3775  0.8569
  192SLPC   C2722239   1.681   1.155   7.392  0.3911 -0.7100  0.5270
  192SLPC   H7R22240   1.689   1.265   7.411  0.9492 -0.5316 -0.6259
  192SLPC   H7S22241   1.771   1.105   7.434  1.9508  1.6902  0.2875
  192SLPC   C2822242   1.551   1.102   7.455 -0.2586  0.0382 -0.0277
  192SLPC   H8R22243   1.550   0.997   7.416  1.2939  0.7190 -2.0717
  192SLPC   H8S22244   1.462   1.157   7.416  1.7220  4.1662  0.7380
  192SLPC   C2922245   1.554   1.119   7.605 -0.7079  0.1343  0.2853
  192SLPC   H9R22246   1.576   1.020   7.648 -0.7170  0.4008  0.9156
  192SLPC  C21022247   1.528   1.232   7.672 -0.3207  0.1115  0.3910
  192SLPC  H10R22248   1.546   1.232   7.780 -2.6334 -0.3997  0.8327
  192SLPC  C21122249   1.500   1.370   7.611 -0.2829 -0.4080  0.2851
  192SLPC  H11R22250   1.554   1.384   7.515  1.7903 -1.2721  1.2604
  192SLPC  H11S22251   1.543   1.444   7.681 -0.1139 -1.0503  0.8706
  192SLPC  C21222252   1.351   1.397   7.595 -0.9690  0.3344  0.3004
  192SLPC  H12R22253   1.293   1.326   7.534 -0.6619  0.6155 -0.3312
  192SLPC  C21322254   1.272   1.495   7.652 -0.1790  0.1472  1.5369
  192SLPC  H13R22255   1.165   1.498   7.626 -0.3009 -0.4798  1.9423
  192SLPC  C21422256   1.320   1.610   7.730 -0.0039  0.0148  0.0705
  192SLPC  H14R22257   1.227   1.662   7.761 -1.2412 -2.0177 -0.0653
  192SLPC  H14S22258   1.380   1.673   7.661 -0.6976 -0.6237 -1.1517
  192SLPC  C21522259   1.403   1.611   7.860  0.3464  0.4477 -0.4242
  192SLPC  H15R22260   1.443   1.714   7.872 -1.0053  0.7091  2.6260
  192SLPC  H15S22261   1.490   1.541   7.860  1.2272  1.4720 -1.8993
  192SLPC  C21622262   1.339   1.562   7.994  0.1424 -0.4774  0.4067
  192SLPC  H16R22263   1.228   1.567   8.001  0.0612 -2.6528  1.3701
  192SLPC  H16S22264   1.375   1.640   8.065 -1.0754  1.6916 -1.2260
  192SLPC  C21722265   1.371   1.418   8.034 -0.4393 -0.6891 -0.1119
  192SLPC  H17R22266   1.290   1.377   8.098  0.0438 -2.9858 -0.8541
  192SLPC  H17S22267   1.373   1.355   7.942 -1.8753 -1.1146  0.1316
  192SLPC  C21822268   1.504   1.406   8.117 -0.2370  0.1818 -0.2144
  192SLPC  H18R22269   1.521   1.299   8.142 -0.3693  0.4340  1.0044
  192SLPC  H18S22270   1.490   1.469   8.207 -1.3289  0.6319 -0.6799
  192SLPC  H18T22271   1.593   1.447   8.066  0.7623  0.4680  1.7078
  192SLPC   C3322272   2.278   0.934   7.153  0.2203  0.1631 -0.5340
  192SLPC   H3X22273   2.315   1.038   7.147 -1.9391  1.0769  0.8593
  192SLPC   H3Y22274   2.364   0.867   7.129  0.7900  1.1207 -1.2173
  192SLPC   C3422275   2.223   0.906   7.285  0.2119 -0.0868 -0.4534
  192SLPC   H4X22276   2.212   0.797   7.299  0.6302  0.0136  0.8028
  192SLPC   H4Y22277   2.122   0.952   7.293  0.1368 -0.3171 -0.0437
  192SLPC   C3522278   2.317   0.960   7.401 -0.9742  1.1434  0.9860
  192SLPC   H5X22279   2.315   1.070   7.410 -2.0045  1.0585  1.9050
  192SLPC   H5Y22280   2.421   0.933   7.369 -1.4342  1.9286 -1.3783
  192SLPC   C3622281   2.291   0.890   7.533  0.3903  0.2068 -0.3917
  192SLPC   H6X22282   2.370   0.886   7.612 -0.5453 -0.7300  0.5283
  192SLPC   H6Y22283   2.283   0.784   7.501 -0.9614  0.4411 -0.8598
  192SLPC   C3722284   2.158   0.908   7.605  0.1485 -0.2066  0.2636
  192SLPC   H7X22285   2.096   0.816   7.606  1.3203 -1.1512 -2.5986
  192SLPC   H7Y22286   2.098   0.990   7.559 -1.1474 -0.8905  0.6702
  192SLPC   C3822287   2.188   0.956   7.748 -0.2914  0.2337 -0.1976
  192SLPC   H8X22288   2.091   0.975   7.799  0.2388  2.2781  0.1162
  192SLPC   H8Y22289   2.232   1.058   7.743  1.1294 -0.3597 -0.3006
  192SLPC   C3922290   2.268   0.866   7.848  0.7724 -0.0321  0.8168
  192SLPC   H9X22291   2.369   0.846   7.807 -1.0374 -1.6105 -3.4003
  192SLPC   H9Y22292   2.222   0.766   7.859 -3.7570  1.6360 -0.5075
  192SLPC  C31022293   2.283   0.931   7.987  0.4523 -0.6649  0.4208
  192SLPC  H10X22294   2.185   0.981   8.002  0.3788 -1.1647  1.7137
  192SLPC  H10Y22295   2.357   1.013   7.974 -0.0843 -0.6048 -3.3709
  192SLPC  C31122296   2.295   0.829   8.107 -0.5014 -0.2248  0.2592
  192SLPC  H11X22297   2.393   0.778   8.089 -0.6206  0.3483 -2.3620
  192SLPC  H11Y22298   2.225   0.743   8.098 -0.3831 -0.2881 -0.0835
  192SLPC  C31222299   2.282   0.890   8.245 -0.7202 -0.0324  0.6759
  192SLPC  H12X22300   2.182   0.936   8.260 -0.8169  0.2139 -0.5651
  192SLPC  H12Y22301   2.359   0.970   8.247 -0.8020  0.0999 -0.4687
  192SLPC  C31322302   2.313   0.797   8.358 -0.4129  0.6795 -0.1049
  192SLPC  H13X22303   2.415   0.756   8.338 -0.6545  0.5781 -1.1929
  192SLPC  H13Y22304   2.244   0.711   8.366 -1.4245  1.5035  0.1405
  192SLPC  C31422305   2.305   0.867   8.493 -0.3643 -0.1339  0.1492
  192SLPC  H14X22306   2.358   0.965   8.480  2.8247 -1.6752  0.4570
  192SLPC  H14Y22307   2.367   0.808   8.564 -0.2149 -2.7289 -1.9883
  192SLPC  C31522308   2.167   0.888   8.550  0.5664 -0.4198 -0.8925
  192SLPC  H15X22309   2.099   0.800   8.542 -0.1482 -0.0775  0.9112
  192SLPC  H15Y22310   2.105   0.959   8.492 -0.3217  0.8392  1.4874
  192SLPC  C31622311   2.173   0.950   8.693  0.0683 -1.0980  0.2953
  192SLPC  H16X22312   2.221   1.050   8.686  0.1798 -1.0952  1.0439
  192SLPC  H16Y22313   2.234   0.887   8.761  1.1750  0.9088  1.2444
  192SLPC  C31722314   2.036   0.985   8.757  0.7609 -1.0962 -0.7990
  192SLPC  H17X22315   2.043   0.986   8.868 -0.3981  0.1456 -0.7178
  192SLPC  H17Y22316   1.958   0.909   8.734 -0.2663 -0.0536 -0.8350
  192SLPC  C31822317   1.975   1.121   8.724 -0.3716 -1.1308  0.8631
  192SLPC  H18X22318   1.876   1.132   8.773 -0.4672 -1.2740  0.7041
  192SLPC  H18Y22319   1.935   1.128   8.621  0.9451  3.0529  0.4468
  192SLPC  H18Z22320   2.041   1.207   8.750  1.4831 -1.9779 -0.8348
  193SOD    SOD22321   6.307   4.095   4.969 -0.2419 -0.0148  0.0159
  194SOD    SOD22322   2.558   5.423   4.900  0.3094  0.6536  0.1257
  195SOD    SOD22323   4.516   3.847  12.663  0.4136  0.1593 -0.4912
  196SOD    SOD22324   3.167   4.387  15.091  0.1798 -0.3978 -0.7895
  197SOD    SOD22325   2.445   2.998  11.704 -0.2640 -0.2873 -0.4065
  198SOD    SOD22326   0.632   1.584  12.640 -0.2919 -0.0501 -0.2180
  199SOD    SOD22327   2.647   1.924   6.440 -0.1308 -0.0107 -0.0746
  200SOD    SOD22328   2.371   4.880   5.519  0.4914  0.3990 -0.1412
  201SOD    SOD22329   4.412   3.122   3.016 -0.1527 -0.1594  0.3985
  202SOD    SOD22330   5.163   0.828  12.219  0.3657 -0.4372  0.1296
  203SOD    SOD22331   5.170   2.916  11.298 -0.0102  0.1086  0.5160
  204SOD    SOD22332   6.547   2.814  15.431  0.1754 -0.1195 -0.0226
  205SOD    SOD22333   3.022   1.637  17.093 -0.0014  0.2604  0.1795
  206SOD    SOD22334   3.073   2.149   4.271 -0.2517  0.0127 -0.0533
  207SOD    SOD22335   1.381   2.997  14.619  0.0272 -0.0463 -0.1767
  208SOD    SOD22336   5.525   1.463   3.094 -0.0262  0.0485 -0.7233
  209SOD    SOD22337   6.569   6.802  10.880  0.4268  0.4656  0.1402
  210SOD    SOD22338   1.148   0.734   5.189 -0.5497  0.4678  0.4485
  211SOD    SOD22339   1.185   3.884   1.187  0.1123  0.2850 -0.1362
  212SOD    SOD22340   3.606   3.774  13.471 -0.0558  0.2071  0.5682
  213SOD    SOD22341   6.211   4.150  16.089 -0.2715 -0.4937  0.0274
  214SOD    SOD22342   0.593   2.848  11.244 -0.3650 -0.1486  0.1777
  215SOD    SOD22343   4.087   1.534   4.758 -0.0334  0.2558  0.1947
  216SOD    SOD22344   5.599   6.576   4.499  0.4420  0.2815 -0.2315
  217SOD    SOD22345   0.747   1.983   4.693  0.1620  0.4025 -0.0100
  218SOD    SOD22346   4.922   0.449   2.053 -0.1217 -0.1291  0.2417
  219SOD    SOD22347   3.526   4.205   1.811 -0.2955  0.4463  0.1326
  220SOD    SOD22348   2.006   2.891  15.894  0.2580 -0.3270 -0.1866
  221SOD    SOD22349   5.356   5.148  11.487 -0.2988  0.3252  0.0680
  222SOD    SOD22350   2.492   2.934  16.711 -0.3345 -0.2019  0.1529
  223SOD    SOD22351   4.009   6.067  12.920  0.2723  0.5208 -0.1311
  224SOD    SOD22352   5.419   0.329  10.906 -0.4390  0.3143  0.4556
  225SOD    SOD22353   5.585   0.735  14.523 -0.2527  0.2574  0.4062
  226SOD    SOD22354   2.912   4.703   4.403  0.2719  0.2463 -0.4347
  227SOD    SOD22355   2.235   1.248   1.294 -0.2011  0.5132  0.1532
  228SOD    SOD22356   0.807   5.861  15.074  0.2935 -0.1819  0.0569
  229SOD    SOD22357   6.075   5.801   3.778  0.0832 -0.1777  0.1666
  230SOD    SOD22358   3.593   3.436  14.620  0.6384 -0.2050  0.2499
  231SOD    SOD22359   1.345   3.812   2.022 -0.2459 -0.3277  0.0018
  232SOD    SOD22360   1.120   4.636   5.354  0.3115 -0.6040  0.3465
  233SOD    SOD22361   1.597   6.714   5.381 -0.0437  0.6012  0.1435
  234SOD    SOD22362   2.745   1.658   4.159 -0.1223 -0.2704 -0.3267
  235SOD    SOD22363   2.112   4.476  11.007  0.2847  0.0030  1.0591
  236SOD    SOD22364   6.427   2.524   1.128  0.1084 -0.2453 -0.1274
  237SOD    SOD22365   3.799   4.292   0.406 -0.6397  0.0871 -0.1109
  238SOD    SOD22366   4.767   4.391   6.684  0.8660 -0.2982  0.1095
  239SOD    SOD22367   3.339   6.524  14.245 -0.5818  0.1529 -0.2265
  240SOD    SOD22368   3.449   3.867  15.261  0.3406  0.3598 -0.1460
  241SOD    SOD22369   6.389   4.210  11.427 -0.2880  0.0071  0.2547
  242SOD    SOD22370   0.422   3.819   6.121 -0.5023  0.0060  0.3879
  243SOD    SOD22371   3.418   5.063   4.589 -0.0637 -0.4590  0.8593
  244SOD    SOD22372   5.836   2.030   6.034 -0.0776 -0.0097 -0.1644
  245SOD    SOD22373   0.914   3.251   2.347 -0.0457 -0.6857 -0.1580
  246SOD    SOD22374   3.240   5.852  13.326 -0.1500 -0.0152  0.3022
  247SOD    SOD22375   3.324   2.354  14.731 -0.0072 -0.3841  0.6587
  248SOD    SOD22376   5.034   3.712   0.565  0.1352 -0.4511  0.0763
  249SOD    SOD22377   1.695   2.880   3.648  0.1017 -0.1127  0.2450
  250SOD    SOD22378   3.654   5.516  11.878  0.0222 -0.0404 -0.1739
  251SOD    SOD22379   4.752   1.293  13.250 -0.2708  0.1881  0.0688
  252SOD    SOD22380   6.162   0.759   3.742 -0.0953 -0.2390  0.2710
  253SOD    SOD22381   1.862   3.720   2.819  0.3216  0.2982 -0.4945
  254SOD    SOD22382   1.771   2.126   5.944 -0.3144 -0.0339 -0.0564
  255SOD    SOD22383   4.044   1.901   6.256 -0.1317 -0.2351 -0.0932
  256SOD    SOD22384   1.992   4.714  12.486 -0.0841  0.5649  0.7896
  257SOD    SOD22385   4.833   5.411  16.914  0.3517 -0.7312  0.0470
  258SOD    SOD22386   5.903   4.716   4.430 -0.2678 -0.0005 -0.0454
  259SOD    SOD22387   3.981   0.368   1.989 -0.3059 -0.1451  0.2869
  260SOD    SOD22388   1.094   1.962  14.392  0.0897  0.4223 -0.0345
  261SOD    SOD22389   1.105   4.426  12.974 -0.0657 -0.2171 -0.3837
  262SOD    SOD22390   6.682   4.941   1.463 -0.6517  0.3421 -0.1686
  263SOD    SOD22391   2.857   5.866  10.746  0.4566  0.7046  0.3459
  264SOD    SOD22392   5.808   5.052   5.313  0.4099 -0.0805  0.0600
  265SOD    SOD22393   6.439   0.217   5.584  0.1878 -0.6777  0.0861
  266CLA    CLA22394   3.364   5.222   0.717  0.1392  0.0144 -0.4057
  267CLA    CLA22395   4.305   0.269   3.947 -0.3366  0.0067  0.0296
  268CLA    CLA22396   2.957   4.574  15.114  0.1252  0.1945  0.1623
  269CLA    CLA22397   5.730   6.096   4.237 -0.1544 -0.6279  0.5391
  270CLA    CLA22398   3.812   2.517  14.789  0.1114 -0.0909 -0.2027
  271CLA    CLA22399   4.566   4.675   1.879  0.1249 -0.1480  0.2379
  272CLA    CLA22400   2.156   0.545  14.125  0.0240  0.2152 -0.4023
  273CLA    CLA22401   5.267   6.269  15.672 -0.6306 -0.6196 -0.1470
  274CLA    CLA22402   0.502   1.052   4.373 -0.3820  0.1776 -0.0696
  275CLA    CLA22403   5.362   5.652  16.266 -0.3691 -0.4572  0.0862
  276CLA    CLA22404   5.722   6.664   2.202  0.3236 -0.1791  0.0636
  277CLA    CLA22405   3.623   6.601   4.563  0.3607 -0.3025  0.4029
  278CLA    CLA22406   5.734   5.256   4.917 -0.2207 -0.1090  0.1857
  279CLA    CLA22407   0.541   2.827  11.816 -0.2806  0.1383  0.2385
  280CLA    CLA22408   0.842   1.838   5.354  0.1167  0.0660  0.4457
  281CLA    CLA22409   3.368   5.519  13.705  0.2049  0.0989  0.1261
  282CLA    CLA22410   6.027   3.847  13.656  0.0784 -0.5358  0.0319
  283CLA    CLA22411   2.021   5.842   5.668 -0.0674 -0.3709 -0.0681
  284CLA    CLA22412   6.533   6.349   0.984  0.2402 -0.1033  0.3722
  285CLA    CLA22413   3.154   5.514   4.565 -0.0776  0.4457  0.0000
  286CLA    CLA22414   3.804   1.337  15.139  0.1579 -0.2186  0.5716
  287CLA    CLA22415   6.800   4.060   1.124 -0.0489  0.0527  0.2170
  288CLA    CLA22416   3.640   1.836   3.773  0.1459 -0.5975 -0.4100
  289CLA    CLA22417   3.054   3.526  15.799 -0.1279  0.3180  0.2387
  290CLA    CLA22418   2.135   0.874   1.044  0.0399 -0.1515  0.2196
  291CLA    CLA22419   5.644   4.563  12.627  0.4258 -0.0634 -0.1351
  292CLA    CLA22420   1.276   1.648   3.617 -0.0788 -0.0721  0.2758
  293CLA    CLA22421   0.854   4.571  11.811  0.5595 -0.3851 -0.3481
  294CLA    CLA22422   2.509   0.975   0.355  0.1120 -0.0560  0.6242
  295CLA    CLA22423   6.402   3.827   4.300 -0.4892 -0.4052 -0.2081
  296CLA    CLA22424   5.979   3.438  14.933 -0.3027  0.0362 -0.1193
  297CLA    CLA22425   1.472   3.586  14.888  0.2841 -0.1575 -0.4391
  298CLA    CLA22426   0.190   4.808   5.093 -0.2512  0.2375  0.2630
  299CLA    CLA22427   2.341   3.233  16.291  0.1519 -0.0433  0.4007
  300CLA    CLA22428   4.961   5.659  13.147 -0.3497 -0.1227 -0.1091
  301CLA    CLA22429   3.855   4.394  12.107 -0.1354 -0.1351  0.1484
  302CLA    CLA22430   3.225   0.637  17.043  0.0051  0.1684  0.1123
  303CLA    CLA22431   0.875   4.765   0.095  0.7287 -0.4260 -0.2254
  304CLA    CLA22432   0.977   6.486  14.161 -0.2530 -0.0788 -0.1036
  305CLA    CLA22433   6.537   1.469   5.152  0.1353  0.6704 -0.1404
  306CLA    CLA22434   2.563   0.412  11.772 -0.0742  0.1092 -0.3478
  307CLA    CLA22435   4.602   3.829  14.741  0.2409 -0.0448 -0.0355
  308CLA    CLA22436   5.616   3.163   4.283 -0.1987  0.0590  0.3524
  309CLA    CLA22437   4.255   3.864  12.602 -0.0839  0.3529  0.1383
  310CLA    CLA22438   6.472   2.938   1.840  0.0074 -0.6742 -0.3999
  311CLA    CLA22439   3.925   1.936   1.629  0.4972  0.0523 -0.1088
  312CLA    CLA22440   0.876   3.697   5.943  0.0757  0.2259  0.2597
  313CLA    CLA22441   2.044   5.664   4.420 -0.1473  0.1717  0.3979
  314CLA    CLA22442   1.512   4.213  16.836  0.1837  0.1998  0.2185
  315CLA    CLA22443   0.708   2.208  15.298  0.0704  0.0254  0.1195
  316CLA    CLA22444   1.239   2.053  17.198  0.0216  0.0421  0.1059
  317CLA    CLA22445   5.615   0.917   0.854 -0.3039 -0.4611 -0.0101
  318CLA    CLA22446   0.925   2.647   1.539 -0.2013  0.4691 -0.7913
  319TIP3   OH222447   3.617   2.697   1.906 -0.5567 -0.1651  0.8710
  319TIP3    H122448   3.668   2.629   1.950 -0.2334  0.2164  1.0811
  319TIP3    H222449   3.582   2.751   1.977 -0.8299 -0.1190  0.7032
  320TIP3   OH222450   0.353   1.217  14.325  0.0285 -0.1480 -0.3584
  320TIP3    H122451   0.332   1.143  14.267  0.1013 -0.6249  0.2142
  320TIP3    H222452   0.408   1.179  14.394  1.5335  0.7877 -0.9948
  321TIP3   OH222453   2.666   1.447   4.064 -1.0004 -0.0904  0.7480
  321TIP3    H122454   2.602   1.419   3.999 -2.0078  0.5668  1.4309
  321TIP3    H222455   2.713   1.366   4.086  0.4596 -0.0720 -1.8798
  322TIP3   OH222456   2.567   6.319  12.837  0.7513 -0.6952  0.2790
  322TIP3    H122457   2.474   6.303  12.853  0.3410 -1.3740 -2.3066
  322TIP3    H222458   2.611   6.277  12.911 -0.9711 -0.2984  1.6079
  323TIP3   OH222459   1.631   6.740  16.622  0.1688  0.4114 -0.3522
  323TIP3    H122460   1.715   6.698  16.638 -0.3185  0.1474  1.8544
  323TIP3    H222461   1.640   6.780  16.535  1.4928 -2.1328 -1.4826
  324TIP3   OH222462   2.812   5.032   0.091 -0.4840  0.4623 -0.3801
  324TIP3    H122463   2.836   4.973   0.019  1.1238  0.4438  0.1183
  324TIP3    H222464   2.863   5.000   0.165 -1.5945  0.9042  0.6049
  325TIP3   OH222465   5.183   6.508  17.122  0.4086  0.2129 -0.0319
  325TIP3    H122466   5.258   6.507  17.062  1.1240  0.8533  0.8315
  325TIP3    H222467   5.201   6.580  17.182 -1.0607  0.5913  0.0016
  326TIP3   OH222468   3.367   2.163  15.111 -0.3258  0.3206 -0.1301
  326TIP3    H122469   3.391   2.251  15.139  1.3655 -0.2479  0.3629
  326TIP3    H222470   3.286   2.144  15.159 -0.4071  1.3871  0.1877
  327TIP3   OH222471   5.266   4.568  15.167  0.8820 -0.6187 -0.6219
  327TIP3    H122472   5.355   4.599  15.178  1.0518 -1.1922 -0.3245
  327TIP3    H222473   5.211   4.634  15.210  1.2933 -1.1443  0.7622
  328TIP3   OH222474   3.537   3.392  14.843 -0.1002 -0.3396 -0.4495
  328TIP3    H122475   3.497   3.311  14.873 -1.0845 -0.1114 -1.0851
  328TIP3    H222476   3.494   3.460  14.895  0.5642 -0.1959 -0.0736
  329TIP3   OH222477   5.051   6.757  11.341  0.2821 -0.4044  0.5844
  329TIP3    H122478   5.010   6.736  11.425 -2.6145  1.1331 -0.2697
  329TIP3    H222479   5.027   6.684  11.284  0.2841 -0.3903  0.5656
  330TIP3   OH222480   0.347   3.628  15.899  0.1169  0.4712  0.4164
  330TIP3    H122481   0.399   3.550  15.919 -1.4409 -1.8510 -3.3191
  330TIP3    H222482   0.411   3.698  15.887  2.0968 -1.3687 -0.4883
  331TIP3   OH222483   3.557   0.736  16.834  0.8085  0.4262 -0.1736
  331TIP3    H122484   3.562   0.717  16.740 -0.4210  0.4196 -0.2519
  331TIP3    H222485   3.581   0.829  16.841  0.4371  0.5514 -0.5505
  332TIP3   OH222486   0.392   1.657   0.046  0.5055  0.0065 -0.1176
  332TIP3    H122487   0.468   1.711   0.025 -0.8391  1.8806 -0.4369
  332TIP3    H222488   0.333   1.666  -0.029 -0.4218 -0.6622  0.4924
  333TIP3   OH222489   5.192   3.136  16.430 -0.2896  0.4591 -0.2136
  333TIP3    H122490   5.188   3.131  16.526 -0.7598 -0.0773 -0.2624
  333TIP3    H222491   5.267   3.082  16.406  0.5326  1.5035 -0.0835
  334TIP3   OH222492   3.517   4.784  14.203  0.2793  0.2820  0.4201
  334TIP3    H122493   3.436   4.801  14.251  0.5701  1.9257  0.3895
  334TIP3    H222494   3.524   4.689  14.199 -1.5050  0.1237  0.6583
  335TIP3   OH222495   0.249   5.219   1.276  0.2048 -0.3462 -0.0947
  335TIP3    H122496   0.333   5.234   1.232 -1.3860  1.8632 -2.6270
  335TIP3    H222497   0.272   5.165   1.352  3.9403  0.4226 -0.4754
  336TIP3   OH222498   4.878   4.338  11.925  0.2686  0.2432  0.4304
  336TIP3    H122499   4.879   4.372  11.836 -1.3553  1.5117  0.8547
  336TIP3    H222500   4.968   4.349  11.956  0.9440 -0.5560 -1.1420
  337TIP3   OH222501   0.147   3.559   2.268 -0.3241 -0.6152  0.6343
  337TIP3    H122502   0.165   3.479   2.219 -0.7707 -0.3650  0.0497
  337TIP3    H222503   0.089   3.532   2.339 -0.1326 -0.8777  0.6941
  338TIP3   OH222504   1.636   1.149  11.677 -0.3063 -0.3800  0.2070
  338TIP3    H122505   1.643   1.159  11.582  1.3974 -2.2281  0.0742
  338TIP3    H222506   1.543   1.129  11.692 -0.8151  0.9437 -0.9063
  339TIP3   OH222507   5.378   0.567   2.636  0.3252  0.2941 -0.1692
  339TIP3    H122508   5.285   0.546   2.644  0.1505  1.0908 -0.0283
  339TIP3    H222509   5.397   0.555   2.543  0.0713  0.1791 -0.2083
  340TIP3   OH222510   3.743   4.250  11.201 -0.1101 -0.0622  0.1680
  340TIP3    H122511   3.771   4.314  11.267 -0.6950 -0.4340  0.8021
  340TIP3    H222512   3.651   4.271  11.186 -0.4113 -0.9652  0.6543
  341TIP3   OH222513   5.357   0.457   3.791  0.5611 -0.3260 -0.4958
  341TIP3    H122514   5.268   0.490   3.781  0.4597  0.0580  1.2252
  341TIP3    H222515   5.384   0.430   3.703 -0.0640  2.5505 -1.6702
  342TIP3   OH222516   3.628   4.638   3.253  0.6605  0.0584 -0.7633
  342TIP3    H122517   3.649   4.644   3.159 -0.2124  1.1038 -0.9169
  342TIP3    H222518   3.546   4.686   3.262  0.6813 -0.1158  0.5315
  343TIP3   OH222519   6.296   0.837   2.726  0.7339 -0.1127 -0.0120
  343TIP3    H122520   6.292   0.744   2.702 -2.1595  0.0921 -0.7678
  343TIP3    H222521   6.348   0.839   2.806  1.7929 -2.2136 -0.5693
  344TIP3   OH222522   3.446   5.614   6.034 -0.4236  0.5235  0.4697
  344TIP3    H122523   3.380   5.680   6.011 -0.5656  0.0706 -0.4308
  344TIP3    H222524   3.515   5.665   6.077  0.0740  1.4779 -1.3830
  345TIP3   OH222525   6.437   6.067  14.660  0.3766 -0.3208  0.4050
  345TIP3    H122526   6.414   6.145  14.710 -0.5349 -0.2551 -0.0887
  345TIP3    H222527   6.495   6.018  14.718  0.5119  0.4513  0.9409
  346TIP3   OH222528   2.676   0.484  16.251  0.0069  0.0704  0.1168
  346TIP3    H122529   2.709   0.394  16.242  0.6056  0.2873  0.0758
  346TIP3    H222530   2.737   0.536  16.199  0.1835  0.6094  0.8440
  347TIP3   OH222531   1.860   3.076   5.601  0.5302 -0.8169 -0.0889
  347TIP3    H122532   1.953   3.074   5.625  0.2482  0.2015  1.1612
  347TIP3    H222533   1.860   3.073   5.505  1.9730  1.5623 -0.2331
  348TIP3   OH222534   1.466   5.694  13.132  0.3882  0.2195  0.1591
  348TIP3    H122535   1.397   5.637  13.167 -0.2346  0.9564  0.1503
  348TIP3    H222536   1.540   5.681  13.192  0.9804 -2.1009 -0.9655
  349TIP3   OH222537   3.653   2.857   2.283  0.0177  0.9030 -0.2196
  349TIP3    H122538   3.571   2.902   2.303 -0.2088  0.3528  0.0953
  349TIP3    H222539   3.716   2.928   2.266 -0.1384  1.3665  1.0223
  350TIP3   OH222540   2.273   4.341  13.543 -0.3689 -0.1623  0.7484
  350TIP3    H122541   2.344   4.333  13.480  1.0633  0.8429  2.1717
  350TIP3    H222542   2.193   4.325  13.492  0.8047 -0.4081 -1.0705
  351TIP3   OH222543   4.288   2.171   4.571  0.0821 -0.1958 -0.2085
  351TIP3    H122544   4.344   2.119   4.513  1.9212  0.3031  1.0070
  351TIP3    H222545   4.322   2.260   4.561 -0.5954  0.1416  0.4708
  352TIP3   OH222546   1.184   3.395  12.013 -0.5239 -0.2163 -0.1167
  352TIP3    H122547   1.102   3.346  12.010 -0.6871 -0.5430  3.7369
  352TIP3    H222548   1.157   3.486  12.012 -0.6444 -0.2468 -1.9096
  353TIP3   OH222549   3.585   0.714  12.196  0.1556 -0.2764  0.4741
  353TIP3    H122550   3.632   0.782  12.147 -0.9194  0.8274  0.9139
  353TIP3    H222551   3.492   0.732  12.178 -0.1539 -2.0595  0.0643
  354TIP3   OH222552   5.572   6.663   5.234 -0.1217 -0.5731  0.0139
  354TIP3    H122553   5.525   6.609   5.297  0.3608 -0.8750  0.1221
  354TIP3    H222554   5.586   6.746   5.280 -2.0641  0.1609 -0.6396
  355TIP3   OH222555   4.592   1.423   3.925 -0.4851  0.4196 -0.4526
  355TIP3    H122556   4.583   1.347   3.868  1.5685  0.4904 -0.9626
  355TIP3    H222557   4.532   1.488   3.888  1.4381  0.8088 -3.2240
  356TIP3   OH222558   5.378   3.675   0.210  0.3574 -0.7326 -0.3268
  356TIP3    H122559   5.339   3.646   0.292 -1.6450 -0.2925 -1.0838
  356TIP3    H222560   5.427   3.754   0.234 -2.7759  1.2846  0.0507
  357TIP3   OH222561   3.359   5.036  15.560  0.1256 -0.3193  0.4108
  357TIP3    H122562   3.371   5.131  15.562 -1.6523 -0.0474  0.1370
  357TIP3    H222563   3.384   5.006  15.648 -2.7375  0.9293  1.7727
  358TIP3   OH222564   4.965   4.955   3.895 -0.2343  0.7456  0.2552
  358TIP3    H122565   5.025   4.977   3.824 -1.9700 -0.1541 -1.5630
  358TIP3    H222566   4.958   4.859   3.893  0.6419  0.5611  2.5032
  359TIP3   OH222567   2.454   6.164  17.147 -0.5431  0.0205  0.0134
  359TIP3    H122568   2.444   6.222  17.222 -2.0051 -0.8545  0.5178
  359TIP3    H222569   2.368   6.161  17.107  0.2172  0.5122 -1.7672
  360TIP3   OH222570   5.232   4.082   0.512  0.5071 -0.2021  0.6199
  360TIP3    H122571   5.310   4.054   0.558  2.5570  1.1400 -1.8006
  360TIP3    H222572   5.255   4.167   0.474 -1.5777 -0.4238 -1.3816
  361TIP3   OH222573   0.630   0.510  16.642  0.0287 -0.0493  0.5220
  361TIP3    H122574   0.538   0.534  16.641  0.1207  0.2873 -0.7807
  361TIP3    H222575   0.673   0.581  16.690 -0.7154 -1.6240  3.7978
  362TIP3   OH222576   5.681   2.876   4.194 -0.7236 -0.3371 -0.1979
  362TIP3    H122577   5.642   2.954   4.234 -2.0926 -2.0438  1.9954
  362TIP3    H222578   5.650   2.803   4.247  1.3677 -2.3290 -1.5099
  363TIP3   OH222579   0.316   6.547  16.365  0.2155  0.2044  0.2541
  363TIP3    H122580   0.361   6.540  16.281  1.8057 -2.0016  1.1753
  363TIP3    H222581   0.237   6.494  16.355 -0.6302  1.5293 -0.3923
  364TIP3   OH222582   5.719   5.282  13.880 -0.2523  0.1977  0.2822
  364TIP3    H122583   5.635   5.328  13.878 -0.0725  0.5280  0.1837
  364TIP3    H222584   5.748   5.281  13.789  0.7026  1.6946  0.5207
  365TIP3   OH222585   5.841   1.945  13.679 -0.3554  0.0141  0.0527
  365TIP3    H122586   5.844   1.850  13.693 -0.6409 -0.0698 -0.4458
  365TIP3    H222587   5.750   1.964  13.657  0.0882  0.1053 -1.8211
  366TIP3   OH222588   5.411   2.885   1.802  0.3516  0.0647  0.3828
  366TIP3    H122589   5.375   2.806   1.763  0.7019 -0.5319  1.2218
  366TIP3    H222590   5.344   2.915   1.863  0.1181  0.5546 -0.1135
  367TIP3   OH222591   4.267   4.256  12.405 -0.3239 -0.2757  0.2091
  367TIP3    H122592   4.248   4.246  12.312 -2.1103 -3.3660  0.7567
  367TIP3    H222593   4.350   4.211  12.418  0.8609  1.7340 -0.1138
  368TIP3   OH222594   4.727   0.815  16.504  1.1007 -0.0653 -0.3052
  368TIP3    H122595   4.704   0.861  16.585  0.8073  0.9118 -0.9199
  368TIP3    H222596   4.742   0.885  16.440 -2.0036 -0.7739 -2.0171
  369TIP3   OH222597   1.231   0.521  12.254  0.0876 -0.0445 -0.5746
  369TIP3    H122598   1.222   0.559  12.167 -0.9696  3.6607  0.9455
  369TIP3    H222599   1.281   0.586  12.303  1.9149 -2.6729  1.3116
  370TIP3   OH222600   3.830   0.609  16.321 -1.2600  0.4592  0.2160
  370TIP3    H122601   3.840   0.698  16.287 -1.5419  1.3141  2.2696
  370TIP3    H222602   3.736   0.591  16.311 -2.3047  2.4566  4.3472
  371TIP3   OH222603   2.754   0.874  15.608  0.5404 -0.8744  0.5309
  371TIP3    H122604   2.725   0.800  15.555  1.0619 -0.5445 -0.2316
  371TIP3    H222605   2.846   0.885  15.586  0.5630 -0.2271  0.9121
  372TIP3   OH222606   6.407   1.786   2.113  0.5744 -0.0219 -0.4793
  372TIP3    H122607   6.391   1.859   2.053  1.9013  1.3599  0.8001
  372TIP3    H222608   6.397   1.708   2.057 -2.8288  0.9239 -1.4881
  373TIP3   OH222609   6.761   4.640   5.082  0.0275 -0.0924 -0.3167
  373TIP3    H122610   6.836   4.694   5.106 -0.2021 -0.5536  1.6190
  373TIP3    H222611   6.687   4.680   5.127 -0.7768 -0.0471 -1.6430
  374TIP3   OH222612   3.101   4.834  15.196  0.2338  0.1226 -0.3323
  374TIP3    H122613   3.194   4.812  15.210  0.4811  2.2508  2.1962
  374TIP3    H222614   3.063   4.753  15.162  2.5391 -1.6517  0.9627
  375TIP3   OH222615   4.234   3.397   5.619 -0.1647  0.2089  0.0985
  375TIP3    H122616   4.179   3.361   5.550 -0.3552  1.5669 -0.4870
  375TIP3    H222617   4.172   3.427   5.686 -0.1468  1.1734 -0.2881
  376TIP3   OH222618   3.073   0.718   0.114  0.7201 -0.0369  0.0550
  376TIP3    H122619   3.099   0.627   0.131 -1.3537 -0.5511  0.8765
  376TIP3    H222620   3.089   0.730   0.020  0.2290 -1.5819 -0.2655
  377TIP3   OH222621   6.284   2.510   3.797 -0.6291 -0.0487  0.0674
  377TIP3    H122622   6.323   2.422   3.796 -1.1910 -0.3075 -0.9891
  377TIP3    H222623   6.306   2.545   3.883 -2.2320 -2.0747  1.4337
  378TIP3   OH222624   1.030   2.661   3.981  0.2170  0.1299 -0.5473
  378TIP3    H122625   0.985   2.718   4.044  2.0960  0.3887  0.6427
  378TIP3    H222626   0.959   2.620   3.932 -1.3985 -0.3384  1.9463
  379TIP3   OH222627   0.297   6.731   0.852 -0.5427  0.3107 -0.0495
  379TIP3    H122628   0.376   6.780   0.877  1.0988 -1.4692 -1.4274
  379TIP3    H222629   0.225   6.783   0.887  1.1650  2.6242  0.3202
  380TIP3   OH222630   0.448   0.996  11.036  0.5490  0.0109  0.5343
  380TIP3    H122631   0.391   0.965  10.967  1.0289  0.0709  0.1036
  380TIP3    H222632   0.534   1.005  10.994  1.2326 -1.5129  1.5147
  381TIP3   OH222633   4.332   4.626  15.075 -0.1784  0.2129 -0.0388
  381TIP3    H122634   4.276   4.565  15.027  1.2269 -0.2757 -1.1287
  381TIP3    H222635   4.412   4.576  15.094  0.4196  1.2740  0.3425
  382TIP3   OH222636   1.210   6.537   3.520  0.2042 -0.0212  0.9357
  382TIP3    H122637   1.286   6.488   3.488 -0.3986 -1.1221  1.1308
  382TIP3    H222638   1.247   6.609   3.570  1.1354 -0.7941  1.3894
  383TIP3   OH222639   0.433   1.255  13.996  0.3147  0.2815 -0.4956
  383TIP3    H122640   0.475   1.292  14.073  1.6605 -4.0442  1.1352
  383TIP3    H222641   0.494   1.188  13.965 -1.8420 -0.6600 -3.0713
  384TIP3   OH222642   6.695   1.125   1.422  0.0046 -0.5341 -0.3378
  384TIP3    H122643   6.789   1.111   1.415  0.3691  1.5630 -0.4503
  384TIP3    H222644   6.686   1.192   1.490 -1.2553  0.3714 -1.3372
  385TIP3   OH222645   0.326   1.048   0.089 -0.3564 -0.1516 -0.0432
  385TIP3    H122646   0.372   1.105   0.028 -1.3915  0.7770  0.0230
  385TIP3    H222647   0.234   1.056   0.066 -0.7113 -0.2927  1.2169
  386TIP3   OH222648   2.971   2.181   5.735 -0.0428  0.0043 -0.3126
  386TIP3    H122649   3.062   2.210   5.728 -0.5277  1.5710 -0.4422
  386TIP3    H222650   2.975   2.086   5.720  1.3765  0.2624 -1.9558
  387TIP3   OH222651   5.331   0.214  15.596 -0.0718  0.0776 -0.1986
  387TIP3    H122652   5.401   0.150  15.585  0.3738  0.7071 -1.1454
  387TIP3    H222653   5.306   0.238  15.506 -3.2151 -1.9309 -0.0416
  388TIP3   OH222654   0.868   3.433   2.487  0.4416  0.4681 -0.0919
  388TIP3    H122655   0.844   3.519   2.454  1.6333  1.0864  0.5880
  388TIP3    H222656   0.926   3.451   2.561  3.1325 -0.8888 -1.7199
  389TIP3   OH222657   0.353   2.566   5.319 -0.2598  0.5045 -0.0975
  389TIP3    H122658   0.300   2.596   5.245  0.1744  0.1704 -0.5567
  389TIP3    H222659   0.347   2.636   5.384 -0.3229  0.9831 -0.6152
  390TIP3   OH222660   1.710   1.166  17.077 -0.4606 -0.1735  0.4244
  390TIP3    H122661   1.704   1.171  16.982  0.1933 -0.3775  0.3646
  390TIP3    H222662   1.772   1.095  17.093  0.7748  0.9807  0.9619
  391TIP3   OH222663   3.832   1.806  11.142  0.2522  0.0894 -0.3621
  391TIP3    H122664   3.764   1.749  11.105 -0.2123 -0.3393  1.0857
  391TIP3    H222665   3.820   1.890  11.097  0.9533 -0.8913 -2.5493
  392TIP3   OH222666   2.146   2.835  11.103 -0.3336 -0.2449 -0.5934
  392TIP3    H122667   2.211   2.799  11.041  0.0186  1.7332 -1.4477
  392TIP3    H222668   2.063   2.798  11.074  0.1961 -1.6777 -0.3816
  393TIP3   OH222669   4.289   3.486  12.286 -0.7742  0.2147 -0.1204
  393TIP3    H122670   4.230   3.418  12.254 -0.8499  0.7004 -1.0541
  393TIP3    H222671   4.238   3.533  12.352 -1.1503  0.1264 -0.3435
  394TIP3   OH222672   3.433   1.412   3.197  0.2819 -0.0249  0.1505
  394TIP3    H122673   3.389   1.338   3.157 -2.9270  0.8112  1.8499
  394TIP3    H222674   3.494   1.373   3.260  1.2114 -1.1808 -1.3791
  395TIP3   OH222675   0.421   3.261  16.307 -0.2942 -0.5683 -0.2233
  395TIP3    H122676   0.482   3.285  16.376  0.3199  1.3834 -1.3440
  395TIP3    H222677   0.459   3.183  16.267  0.7186 -0.2309  0.0414
  396TIP3   OH222678   0.126   4.635   1.911  0.2445 -0.3931  0.2961
  396TIP3    H122679   0.102   4.580   1.837  0.1268  0.4717 -0.3164
  396TIP3    H222680   0.109   4.580   1.988 -0.6276 -0.9282 -0.2656
  397TIP3   OH222681   5.585   5.058   6.300  0.0352  0.2588 -0.3374
  397TIP3    H122682   5.612   5.148   6.313  0.5408 -0.0886  1.2258
  397TIP3    H222683   5.528   5.039   6.374 -1.0207 -0.3670 -1.2703
  398TIP3   OH222684   1.906   4.037   4.516 -0.1925  0.2770 -0.2898
  398TIP3    H122685   1.850   4.052   4.440 -0.1235  2.0310 -0.0456
  398TIP3    H222686   1.851   4.059   4.591 -0.1705 -1.1579  0.1842
  399TIP3   OH222687   1.435   6.026   0.564 -0.1420 -0.5121 -0.1538
  399TIP3    H122688   1.385   5.970   0.622 -0.1967 -0.5963 -0.2810
  399TIP3    H222689   1.387   6.109   0.564  1.1047  0.2814  1.7307
  400TIP3   OH222690   0.605   1.023   2.747 -0.5783  0.2632  0.0501
  400TIP3    H122691   0.537   1.010   2.681 -1.4659 -1.0147  1.1532
  400TIP3    H222692   0.581   1.105   2.790 -0.9966  0.1917 -0.0453
  401TIP3   OH222693   1.878   2.484  12.389 -0.0968 -0.0061  0.3762
  401TIP3    H122694   1.857   2.529  12.307  0.7089 -0.2207  0.0488
  401TIP3    H222695   1.793   2.474  12.433 -0.5801 -0.1700 -0.5749
  402TIP3   OH222696   0.733   1.941   3.804 -0.2367  1.0498 -0.2459
  402TIP3    H122697   0.730   1.865   3.746 -0.0967  0.0812  0.9670
  402TIP3    H222698   0.758   2.014   3.747 -0.7384  0.2692 -1.5104
  403TIP3   OH222699   1.683   1.799   2.646 -0.4686 -0.4167  0.1480
  403TIP3    H122700   1.590   1.783   2.629 -0.0207 -1.3246 -1.6375
  403TIP3    H222701   1.725   1.792   2.561  1.3368 -0.6528  1.0132
  404TIP3   OH222702   5.263   2.211   0.668  0.0049 -0.3601  0.4272
  404TIP3    H122703   5.248   2.297   0.707 -1.6099 -0.6937  0.6268
  404TIP3    H222704   5.205   2.208   0.592 -0.0036 -1.2714  0.4490
  405TIP3   OH222705   2.984   2.809  14.966 -0.2052 -0.1399  0.0385
  405TIP3    H122706   2.986   2.902  14.987  0.4622 -0.0090 -0.5528
  405TIP3    H222707   2.972   2.766  15.051  1.2944  0.4141  0.5788
  406TIP3   OH222708   2.045   2.591   1.114  0.3192  0.4257  0.0590
  406TIP3    H122709   2.035   2.525   1.046  1.1134 -0.2872  0.6304
  406TIP3    H222710   2.133   2.627   1.101  0.9220 -0.5139  1.3995
  407TIP3   OH222711   3.150   2.458  16.254  0.5382 -0.1789 -0.0089
  407TIP3    H122712   3.146   2.429  16.345 -1.1104  0.6927  0.2319
  407TIP3    H222713   3.129   2.380  16.203  2.4504 -0.9270  0.2600
  408TIP3   OH222714   2.493   2.175  12.770 -0.6134  0.0432 -0.0726
  408TIP3    H122715   2.556   2.111  12.736 -2.0572 -0.6667 -1.5488
  408TIP3    H222716   2.408   2.137  12.750 -1.5434  1.0976  1.6504
  409TIP3   OH222717   0.955   6.057   4.983  0.0495  0.6257  0.0314
  409TIP3    H122718   0.980   6.128   4.924 -0.0475  1.9116  1.4843
  409TIP3    H222719   0.893   6.097   5.043 -2.1649 -1.3924 -0.7690
  410TIP3   OH222720   1.694   3.507   5.015 -0.7778  0.7584  0.2438
  410TIP3    H122721   1.628   3.530   5.081 -1.2424 -1.1045  0.4843
  410TIP3    H222722   1.766   3.471   5.066 -1.0520 -0.4974 -0.2277
  411TIP3   OH222723   3.076   1.122  16.819 -0.2415 -0.3898 -0.3516
  411TIP3    H122724   3.137   1.181  16.777  0.5384  0.7839  2.2374
  411TIP3    H222725   3.122   1.038  16.823  0.8597  0.2418  0.7198
  412TIP3   OH222726   2.152   2.828   1.012 -0.0082  0.5390 -0.3280
  412TIP3    H122727   2.097   2.833   1.090 -0.6854  1.1046 -0.8453
  412TIP3    H222728   2.120   2.897   0.954 -0.2896 -0.6277 -1.6113
  413TIP3   OH222729   1.811   1.911   6.354  0.2098  0.5754  0.3829
  413TIP3    H122730   1.877   1.946   6.414 -1.0818  1.4750  1.3339
  413TIP3    H222731   1.824   1.816   6.357  2.1744  0.7817 -0.3467
  414TIP3   OH222732   1.590   0.640  15.513 -0.4465 -0.3736  0.4262
  414TIP3    H122733   1.622   0.612  15.599 -2.4634 -3.3097  0.3899
  414TIP3    H222734   1.665   0.632  15.455  0.1728 -1.5653  1.3389
  415TIP3   OH222735   2.722   5.438   1.436 -0.0787 -0.1298 -0.0911
  415TIP3    H122736   2.644   5.384   1.447 -0.5020  0.8638  2.3449
  415TIP3    H222737   2.792   5.374   1.418 -1.2875 -1.0695 -1.7313
  416TIP3   OH222738   6.588   4.046   5.355 -0.1092 -0.1605 -0.1098
  416TIP3    H122739   6.608   4.084   5.441  1.9444 -1.3109 -0.0001
  416TIP3    H222740   6.672   4.048   5.309 -1.2100  0.5742 -2.1816
  417TIP3   OH222741   6.319   0.068   3.494 -0.0777 -0.5923  0.1912
  417TIP3    H122742   6.334   0.111   3.578 -2.3683  1.9247 -0.5266
  417TIP3    H222743   6.405   0.067   3.452  0.5358  1.0595  1.2871
  418TIP3   OH222744   2.882   1.153   1.251 -0.4826 -0.1701  0.1039
  418TIP3    H122745   2.787   1.158   1.244 -0.4208 -0.8085 -1.4095
  418TIP3    H222746   2.898   1.133   1.343 -1.8490 -0.8725  0.2107
  419TIP3   OH222747   6.521   1.116  11.696  0.7186  0.4928 -0.0929
  419TIP3    H122748   6.538   1.105  11.603 -0.1281 -1.7518 -0.0484
  419TIP3    H222749   6.538   1.030  11.734 -1.6834  0.5720  1.3587
  420TIP3   OH222750   6.251   2.592  11.501 -0.2891  0.2435 -0.8165
  420TIP3    H122751   6.188   2.534  11.543  1.2270 -0.0215  1.2357
  420TIP3    H222752   6.319   2.607  11.567  0.8721  2.0062 -2.2831
  421TIP3   OH222753   0.029   6.214   5.356  0.1755 -0.0185  0.0599
  421TIP3    H122754   0.113   6.196   5.314  1.3501  2.3375  1.1982
  421TIP3    H222755   0.023   6.310   5.357 -3.2974 -0.0589 -1.3717
  422TIP3   OH222756   4.210   2.915  12.681  0.6929 -0.6848  0.3049
  422TIP3    H122757   4.159   2.908  12.762 -0.9277  3.8900  0.0108
  422TIP3    H222758   4.150   2.886  12.613  0.5126 -0.5982  0.4236
  423TIP3   OH222759   2.678   2.202  15.158 -0.5134  0.3795  0.1896
  423TIP3    H122760   2.750   2.155  15.200 -0.3009  0.0046 -0.5720
  423TIP3    H222761   2.662   2.277  15.215 -1.0954 -0.7939  1.6369
  424TIP3   OH222762   2.529   3.870   5.486  0.5653  0.2532 -0.4057
  424TIP3    H122763   2.528   3.820   5.404 -1.0153  2.3631 -1.7608
  424TIP3    H222764   2.446   3.850   5.528  1.1498 -0.4188  0.4816
  425TIP3   OH222765   4.174   6.163  12.550 -0.6418 -0.0194  0.1256
  425TIP3    H122766   4.131   6.196  12.629 -1.0044 -0.7800  0.2502
  425TIP3    H222767   4.182   6.240  12.493  0.3163  0.7173  1.1980
  426TIP3   OH222768   6.355   2.366  10.896  0.3307  0.4712 -0.4643
  426TIP3    H122769   6.414   2.381  10.823 -0.4872 -0.0664 -1.2571
  426TIP3    H222770   6.310   2.285  10.875 -1.5219  1.4420 -0.4696
  427TIP3   OH222771   0.565   0.597   3.604 -0.0694 -0.3433  0.0070
  427TIP3    H122772   0.629   0.596   3.675 -0.8837  0.4560  0.7815
  427TIP3    H222773   0.541   0.506   3.592 -0.0968 -0.4730  0.9401
  428TIP3   OH222774   3.338   0.050  10.593 -0.3957  0.1532  0.1819
  428TIP3    H122775   3.430   0.066  10.612  0.2369  0.0155 -2.4331
  428TIP3    H222776   3.336  -0.036  10.551 -1.4304  0.8637 -1.3485
  429TIP3   OH222777   5.879   1.944   5.596 -0.2086  0.5298  0.2674
  429TIP3    H122778   5.973   1.958   5.585  0.2616 -2.1698  0.1792
  429TIP3    H222779   5.851   1.903   5.514 -0.8502 -1.2462  1.3109
  430TIP3   OH222780   5.731   3.337  15.512 -0.2538  0.0111 -0.1330
  430TIP3    H122781   5.782   3.417  15.499 -1.3909  0.8534  0.4866
  430TIP3    H222782   5.728   3.297  15.425  0.9013  0.2721 -0.3091
  431TIP3   OH222783   5.436   4.956   6.513 -0.0994 -0.0000  0.4276
  431TIP3    H122784   5.493   4.964   6.590 -1.3304  1.4364  1.2318
  431TIP3    H222785   5.425   4.862   6.501  0.7230 -0.2596  1.5490
  432TIP3   OH222786   5.540   1.384  17.091  0.0683 -0.8288  0.1676
  432TIP3    H122787   5.597   1.360  17.018  0.9629  0.5762  0.3648
  432TIP3    H222788   5.593   1.366  17.169  0.1020  0.1094  0.3707
  433TIP3   OH222789   6.539   1.748  12.475 -0.0595  0.0554 -0.0283
  433TIP3    H122790   6.625   1.778  12.506  0.7357 -0.6102 -1.4962
  433TIP3    H222791   6.509   1.688  12.544 -0.4536  2.0239  1.6222
  434TIP3   OH222792   2.945   5.003   6.489 -0.6305  0.3714 -0.7048
  434TIP3    H122793   2.851   5.020   6.498 -0.3833  0.9485  1.3255
  434TIP3    H222794   2.984   5.041   6.568  1.0544 -1.6716 -0.4588
  435TIP3   OH222795   0.483   2.405  12.700  0.3240  0.3966  0.6357
  435TIP3    H122796   0.509   2.314  12.687  0.3249  0.1480  2.1983
  435TIP3    H222797   0.532   2.433  12.777 -1.6098  0.9010  1.7572
  436TIP3   OH222798   5.844   5.156   4.329 -0.0496  0.5960 -0.0528
  436TIP3    H122799   5.769   5.193   4.283 -0.6342 -1.0376 -0.4524
  436TIP3    H222800   5.812   5.138   4.417  0.1242  0.6734  0.0280
  437TIP3   OH222801   5.498   5.363  15.433  0.4958 -0.2246 -0.1315
  437TIP3    H122802   5.440   5.409  15.372 -1.6151 -0.9232  1.2623
  437TIP3    H222803   5.455   5.279  15.449  1.1782 -0.2155  2.0190
  438TIP3   OH222804   2.475   4.703  12.868  0.1258 -0.0176  0.0045
  438TIP3    H122805   2.444   4.784  12.907 -0.9433 -0.1646 -0.5153
  438TIP3    H222806   2.557   4.684  12.915 -0.9048  0.0114  1.9123
  439TIP3   OH222807   0.245   1.505  14.537  0.3809  0.0816  0.0619
  439TIP3    H122808   0.177   1.461  14.487  0.3443 -0.6251  0.7080
  439TIP3    H222809   0.207   1.516  14.624 -0.3356  3.1084 -0.5194
  440TIP3   OH222810   2.348   4.232   3.453  0.2444 -0.8335 -0.9461
  440TIP3    H122811   2.283   4.162   3.455  1.2566 -1.8920 -2.4632
  440TIP3    H222812   2.297   4.313   3.461 -0.9506 -1.7092  0.8496
  441TIP3   OH222813   4.712   5.408  14.405  0.4167 -0.2155  0.3937
  441TIP3    H122814   4.704   5.421  14.311 -1.9972  0.4263  0.6320
  441TIP3    H222815   4.759   5.325  14.414 -1.6938 -1.7207 -1.4469
  442TIP3   OH222816   6.497   0.995   2.608  0.2135 -0.4390 -0.4655
  442TIP3    H122817   6.528   1.017   2.695  0.5372  0.5660 -0.8306
  442TIP3    H222818   6.420   0.940   2.624 -0.3493  0.5802  0.4594
  443TIP3   OH222819   0.806   1.818   0.238 -0.1995 -0.5409 -0.0392
  443TIP3    H122820   0.737   1.860   0.289 -0.0853 -0.3410 -0.0498
  443TIP3    H222821   0.848   1.889   0.190  0.0080 -0.6616 -0.0386
  444TIP3   OH222822   2.546   5.968   2.751 -0.1469  0.1506  0.3605
  444TIP3    H122823   2.518   5.892   2.802 -2.1953  1.0811  0.7234
  444TIP3    H222824   2.499   5.960   2.668 -1.0850  1.4449  0.7368
  445TIP3   OH222825   0.587   3.570   4.825  0.1130  0.2432  0.5519
  445TIP3    H122826   0.644   3.615   4.887 -0.6639  1.0502  0.6958
  445TIP3    H222827   0.575   3.482   4.862 -0.0299  0.5908  1.3417
  446TIP3   OH222828   1.991   4.296  14.057 -0.3377  0.9077 -0.5375
  446TIP3    H122829   1.966   4.207  14.082  0.3661  0.7438 -0.3946
  446TIP3    H222830   2.002   4.342  14.140  1.3760  0.5381 -0.5340
  447TIP3   OH222831   4.140   0.094  16.441  0.1341  0.2018 -0.2326
  447TIP3    H122832   4.168   0.065  16.527  1.5797  0.9606 -0.4117
  447TIP3    H222833   4.077   0.164  16.458  0.0290 -0.0018  0.2143
  448TIP3   OH222834   1.342   0.188   3.059 -0.1300  0.3194 -0.0402
  448TIP3    H122835   1.427   0.205   3.018 -0.5809 -0.1850 -1.2372
  448TIP3    H222836   1.362   0.126   3.129  0.8373  2.1228  1.3638
  449TIP3   OH222837   1.500   2.555   2.364 -0.6072 -0.1774 -0.3625
  449TIP3    H122838   1.452   2.492   2.417  0.0856 -0.4662 -0.0567
  449TIP3    H222839   1.437   2.624   2.344 -1.0778 -0.4358  0.2137
  450TIP3   OH222840   5.616   3.111  17.015  0.1549 -0.2426 -0.7212
  450TIP3    H122841   5.696   3.062  17.034 -0.0348  0.2439  1.6484
  450TIP3    H222842   5.642   3.203  17.024 -0.8403 -0.0995  1.0808
  451TIP3   OH222843   4.488   0.259   4.691  0.1808  0.0162 -0.0283
  451TIP3    H122844   4.550   0.195   4.726  1.8058  1.7389  0.3802
  451TIP3    H222845   4.438   0.290   4.767  0.2434  0.1226 -0.0304
  452TIP3   OH222846   3.144   6.152  12.582 -0.1543  0.1066  0.0720
  452TIP3    H122847   3.099   6.231  12.552 -0.3460 -0.4974 -1.2864
  452TIP3    H222848   3.093   6.080  12.546  1.6165 -0.6067 -1.1168
  453TIP3   OH222849   1.853   2.697  13.109  0.2934  0.0438 -0.1083
  453TIP3    H122850   1.868   2.777  13.058 -1.4200  0.6942  0.3305
  453TIP3    H222851   1.932   2.687  13.162  1.5859  0.0297 -1.9746
  454TIP3   OH222852   3.478   3.764  15.949  0.2376 -0.1803  0.7546
  454TIP3    H122853   3.462   3.834  16.012 -0.4444 -0.8144  1.2955
  454TIP3    H222854   3.414   3.778  15.880  0.3782 -0.0288  0.6532
  455TIP3   OH222855   6.173   3.166   0.978 -1.3150 -0.1743  0.3951
  455TIP3    H122856   6.158   3.110   0.902  1.0575  0.1706 -0.4235
  455TIP3    H222857   6.161   3.108   1.053  1.1431 -1.9301 -0.4131
  456TIP3   OH222858   3.219   2.671  14.916  0.4551  0.2161 -0.1929
  456TIP3    H122859   3.218   2.575  14.916  0.1542  0.2144  0.0660
  456TIP3    H222860   3.126   2.695  14.917  0.5307  0.5094 -0.2659
  457TIP3   OH222861   1.294   5.759   4.997  0.4505 -0.1233 -0.1344
  457TIP3    H122862   1.297   5.706   5.076  0.8557 -0.7052 -0.5392
  457TIP3    H222863   1.245   5.706   4.934  0.0268  0.3877 -0.2471
  458TIP3   OH222864   5.081   3.148   0.168 -0.0424  0.5632  0.0967
  458TIP3    H122865   5.023   3.072   0.163  1.8331 -1.0027  0.8516
  458TIP3    H222866   5.082   3.170   0.262 -0.6517  1.6242 -0.1297
  459TIP3   OH222867   6.698   3.957   2.932  0.3532 -0.5125  0.0060
  459TIP3    H122868   6.606   3.950   2.958  0.8362 -2.9655  1.4696
  459TIP3    H222869   6.700   4.026   2.866 -2.8162 -1.5571 -1.3806
  460TIP3   OH222870   1.277   1.625   6.007 -0.8076  0.0823 -0.0348
  460TIP3    H122871   1.264   1.563   6.078  0.8588 -0.7972 -0.4616
  460TIP3    H222872   1.319   1.574   5.938 -1.1093  1.2572 -1.1212
  461TIP3   OH222873   5.996   5.537   3.335 -0.2328 -0.1328 -0.6236
  461TIP3    H122874   5.984   5.628   3.362  3.1121  0.2244  0.0451
  461TIP3    H222875   5.978   5.486   3.415  0.9555  0.2149 -0.1216
  462TIP3   OH222876   2.167   6.646   1.301 -0.0442  0.2241 -0.1767
  462TIP3    H122877   2.074   6.627   1.292 -0.1056 -0.0704  0.9301
  462TIP3    H222878   2.191   6.687   1.219 -1.0281 -0.2020 -0.6967
  463TIP3   OH222879   5.097   3.164  11.711  0.2728  0.5030  0.4982
  463TIP3    H122880   5.081   3.250  11.673 -2.1641 -0.1330 -0.0831
  463TIP3    H222881   5.034   3.156  11.782 -1.4489 -1.7580 -1.1505
  464TIP3   OH222882   0.757   1.245  14.910  0.0501  0.1451 -0.0307
  464TIP3    H122883   0.787   1.312  14.973 -0.8272  0.4012  0.1197
  464TIP3    H222884   0.695   1.192  14.960 -0.8164  0.4794 -0.7431
  465TIP3   OH222885   5.080   5.465  15.033 -0.0629  0.0372 -0.0210
  465TIP3    H122886   5.110   5.477  14.943  0.6066  0.9489  0.3158
  465TIP3    H222887   5.002   5.520  15.039 -1.3654 -1.6525 -0.6380
  466TIP3   OH222888   0.558   5.930  12.049 -0.2968  0.3215 -0.0745
  466TIP3    H122889   0.472   5.908  12.015 -0.6811 -0.2165  1.1910
  466TIP3    H222890   0.594   5.847  12.080 -0.0215  0.7833  0.9082
  467TIP3   OH222891   4.145   0.208  12.124 -0.0788 -0.1782 -0.4936
  467TIP3    H122892   4.163   0.265  12.049 -0.4517 -0.8394 -1.0982
  467TIP3    H222893   4.067   0.246  12.164 -1.0536 -0.9151 -1.6037
  468TIP3   OH222894   1.586   2.685   5.125  0.0739  0.0880 -0.5612
  468TIP3    H122895   1.609   2.766   5.079 -0.2857  0.5165  0.0058
  468TIP3    H222896   1.544   2.714   5.205 -0.1453 -0.6688 -0.3956
  469TIP3   OH222897   0.145   5.405  12.964  0.2632  0.2481 -0.1109
  469TIP3    H122898   0.221   5.461  12.952  0.4352  0.2142  0.7164
  469TIP3    H222899   0.142   5.390  13.059 -0.9726  0.5220 -0.1020
  470TIP3   OH222900   4.210   3.341  16.919 -0.3911  0.2958 -0.0830
  470TIP3    H122901   4.306   3.347  16.918 -0.3287 -0.5541 -0.0830
  470TIP3    H222902   4.189   3.288  16.843 -0.6330 -2.0723  1.5273
  471TIP3   OH222903   6.470   4.083   3.001 -0.6972 -0.1926  0.0150
  471TIP3    H122904   6.457   4.149   3.070 -1.4334 -1.5309  1.2289
  471TIP3    H222905   6.381   4.057   2.976 -0.4547 -1.5864  0.4737
  472TIP3   OH222906   1.719   6.452   1.868  0.0741 -0.4668  0.7887
  472TIP3    H122907   1.684   6.496   1.791 -1.1175  1.4312  2.3245
  472TIP3    H222908   1.785   6.392   1.834 -0.2118  0.5188 -1.6602
  473TIP3   OH222909   0.912   6.648  13.548 -0.0567 -0.7449 -0.1247
  473TIP3    H122910   0.983   6.634  13.611  0.0788 -1.6311 -0.4542
  473TIP3    H222911   0.957   6.657  13.464 -0.2516  0.1786 -0.1327
  474TIP3   OH222912   1.698   0.041   1.114  0.6789  0.0983  0.1843
  474TIP3    H122913   1.733   0.069   1.029  0.2825 -1.0160 -0.3596
  474TIP3    H222914   1.672   0.122   1.157  2.0722  0.7929 -0.2251
  475TIP3   OH222915   2.580   3.854  10.496  0.7966 -0.0389 -0.4760
  475TIP3    H122916   2.664   3.827  10.459  0.2916 -1.5060 -0.6111
  475TIP3    H222917   2.548   3.777  10.543  0.0403  0.8559  0.5400
  476TIP3   OH222918   3.740   4.992   3.368 -0.4315 -0.1019  0.7038
  476TIP3    H122919   3.771   5.033   3.287 -2.2817  0.0663  0.0412
  476TIP3    H222920   3.681   5.056   3.407 -0.1781 -0.5066  1.7973
  477TIP3   OH222921   4.677   0.103  14.965  0.3282  0.2550 -0.3384
  477TIP3    H122922   4.619   0.179  14.972  0.5316  0.5547 -1.6262
  477TIP3    H222923   4.705   0.085  15.055 -3.1880 -1.0588  0.6602
  478TIP3   OH222924   6.255   2.546   1.288 -0.5288  0.1236  0.2052
  478TIP3    H122925   6.170   2.503   1.288  0.4768 -2.0010  0.0182
  478TIP3    H222926   6.256   2.597   1.369 -2.6568  1.7583 -0.6989
  479TIP3   OH222927   0.401   0.530  12.221  0.1715  0.3828  0.4513
  479TIP3    H122928   0.375   0.587  12.148  0.6133  0.5715  0.4382
  479TIP3    H222929   0.452   0.587  12.279  0.1904  0.1230  0.6936
  480TIP3   OH222930   0.817   0.312   3.441 -0.2210  0.0934  0.1932
  480TIP3    H122931   0.891   0.371   3.454  1.1581 -1.2534 -1.0991
  480TIP3    H222932   0.766   0.353   3.371  0.4088  0.0846 -0.2851
  481TIP3   OH222933   1.581   1.334  15.957 -0.0484  0.0378 -0.4633
  481TIP3    H122934   1.627   1.414  15.982 -1.1231  1.1317 -1.8050
  481TIP3    H222935   1.494   1.343  15.994 -0.7340  0.3509 -2.0436
  482TIP3   OH222936   3.381   0.639  11.832  0.2169 -0.2720 -0.6597
  482TIP3    H122937   3.477   0.648  11.830  0.4721 -2.3426  0.2704
  482TIP3    H222938   3.357   0.614  11.743  0.3131  1.7514 -1.3091
  483TIP3   OH222939   2.343   3.035  16.906  0.1268 -0.7319 -0.3292
  483TIP3    H122940   2.410   3.055  16.971 -1.4782 -1.8923  1.7823
  483TIP3    H222941   2.330   3.117  16.859  1.2291  0.1909  0.9119
  484TIP3   OH222942   3.511   5.920  16.659  0.0161  0.1363 -0.1659
  484TIP3    H122943   3.444   5.920  16.728 -0.0484 -0.9136 -0.2039
  484TIP3    H222944   3.461   5.912  16.578  0.1662 -0.3140 -0.2170
  485TIP3   OH222945   5.287   1.807   2.947  0.0499  0.1012  0.0538
  485TIP3    H122946   5.372   1.852   2.948 -0.3755  0.9457 -0.5274
  485TIP3    H222947   5.226   1.870   2.985 -0.6709  0.2654 -1.3253
  486TIP3   OH222948   5.203   1.066  14.518 -0.1775  0.4059 -0.0449
  486TIP3    H122949   5.141   1.131  14.485 -1.4056 -1.4718 -1.6281
  486TIP3    H222950   5.152   1.013  14.579 -0.3545 -1.4450 -1.7116
  487TIP3   OH222951   2.361   6.476  12.069 -0.1961  0.1072 -0.5754
  487TIP3    H122952   2.415   6.407  12.030  0.6034  0.9118 -0.9375
  487TIP3    H222953   2.281   6.476  12.017 -0.7482 -1.3881  0.2331
  488TIP3   OH222954   4.950   6.217  12.551  0.3249 -0.0467 -0.2405
  488TIP3    H122955   4.898   6.138  12.539  2.4284 -1.8009  1.3117
  488TIP3    H222956   4.914   6.259  12.629  0.3596 -0.4768  0.0061
  489TIP3   OH222957   0.668   1.177   5.949 -0.1830 -0.5412  0.1685
  489TIP3    H122958   0.702   1.094   5.984 -0.4340 -0.9093 -0.4478
  489TIP3    H222959   0.649   1.229   6.027  2.1911 -0.1426  0.5399
  490TIP3   OH222960   0.661   1.742  15.003 -0.6004  0.0479 -0.1764
  490TIP3    H122961   0.603   1.776  14.935 -0.9215  1.0147  0.5569
  490TIP3    H222962   0.672   1.815  15.064 -1.8679 -1.3339  1.8506
  491TIP3   OH222963   1.637   4.774  11.376  0.6713  1.0436 -0.8837
  491TIP3    H122964   1.693   4.800  11.448 -0.4629  0.7954  0.1210
  491TIP3    H222965   1.549   4.772  11.413  0.3415 -1.5135 -1.6088
  492TIP3   OH222966   2.132   0.934   5.821 -0.1397 -0.1034 -0.9505
  492TIP3    H122967   2.120   0.839   5.823 -0.2398 -0.0891  0.6252
  492TIP3    H222968   2.221   0.947   5.789  0.1277 -0.7652 -0.4919
  493TIP3   OH222969   4.966   2.941  10.734 -0.0065  0.0236  0.5024
  493TIP3    H122970   4.974   2.960  10.827  2.5257  3.5245 -0.2198
  493TIP3    H222971   4.889   2.991  10.706 -1.4760 -1.9467  0.7807
  494TIP3   OH222972   6.070   5.906   2.626  0.0657 -0.2710 -0.4749
  494TIP3    H122973   6.009   5.833   2.634 -0.1396 -0.3972 -2.5180
  494TIP3    H222974   6.121   5.904   2.707 -0.1003 -2.5284 -0.3578
  495TIP3   OH222975   0.845   5.587   3.517  0.0840 -0.1489 -0.1535
  495TIP3    H122976   0.875   5.528   3.447 -0.9230  0.5928 -1.2542
  495TIP3    H222977   0.757   5.555   3.538  0.4547 -0.4835  0.9314
  496TIP3   OH222978   1.943   3.102  11.416  0.3428  0.3623  0.2747
  496TIP3    H122979   1.933   3.119  11.322 -1.5134  0.5190  0.4692
  496TIP3    H222980   1.888   3.026  11.432  3.0207 -1.6385  0.7249
  497TIP3   OH222981   6.477   1.622   1.053  0.1958 -0.0768  0.5462
  497TIP3    H122982   6.482   1.629   1.148  1.1341 -0.1941  0.5156
  497TIP3    H222983   6.415   1.551   1.037  0.3868 -0.3693  1.0882
  498TIP3   OH222984   5.062   3.440   2.125 -0.4791 -0.3510 -0.5611
  498TIP3    H122985   5.125   3.456   2.196  0.3028 -1.4104 -0.9693
  498TIP3    H222986   5.012   3.521   2.117 -0.7165 -0.2781  1.3215
  499TIP3   OH222987   6.817   5.740   2.298  0.1886 -0.3229 -0.3922
  499TIP3    H122988   6.776   5.805   2.355  0.5764 -0.8464  0.5109
  499TIP3    H222989   6.822   5.782   2.213 -0.1210  0.6015  0.0342
  500TIP3   OH222990   4.371   5.494   2.926 -0.2559  0.2577 -0.0972
  500TIP3    H122991   4.396   5.428   2.861 -1.4427  0.9819 -1.3392
  500TIP3    H222992   4.303   5.452   2.978 -0.1007  0.0569 -0.0570
  501TIP3   OH222993   5.901   0.790   0.238 -0.4238 -0.2137  0.2764
  501TIP3    H122994   5.917   0.696   0.230  2.9376  0.2362 -0.0298
  501TIP3    H222995   5.985   0.830   0.214 -1.9259  2.9081 -0.2618
  502TIP3   OH222996   2.272   0.767   5.112  0.5090 -0.1958 -0.1639
  502TIP3    H122997   2.311   0.854   5.123  0.2678  0.2977 -2.5540
  502TIP3    H222998   2.234   0.769   5.024 -1.2324 -2.0882  0.4615
  503TIP3   OH222999   0.929   1.396  12.832  0.1347 -0.3453 -0.6359
  503TIP3    H123000   0.998   1.422  12.770 -0.7318 -0.0370 -1.4895
  503TIP3    H223001   0.850   1.388  12.778 -0.8748  0.9336  0.5906
  504TIP3   OH223002   5.421   6.259   0.191  0.2153 -0.0611  0.2335
  504TIP3    H123003   5.339   6.230   0.152  0.2508 -1.0878  0.8896
  504TIP3    H223004   5.445   6.190   0.253  1.7217  0.0742 -0.1403
  505TIP3   OH223005   4.687   0.137   6.160 -0.3657  0.1510  0.7477
  505TIP3    H123006   4.650   0.221   6.133 -1.3025 -0.9576 -1.6765
  505TIP3    H223007   4.612   0.077   6.163  0.2112 -0.5570  2.8823
  506TIP3   OH223008   2.468   4.784   3.230  0.2203  0.2111 -0.6212
  506TIP3    H123009   2.532   4.716   3.208  1.1658  0.7469  0.3755
  506TIP3    H223010   2.519   4.849   3.278 -0.7632  1.4120 -1.1694
  507TIP3   OH223011   2.600   0.204   3.709 -0.1588 -0.8413  0.2759
  507TIP3    H123012   2.596   0.300   3.702  1.0373 -0.7609  0.4841
  507TIP3    H223013   2.645   0.188   3.792  0.2750 -1.5674 -0.0910
  508TIP3   OH223014   2.594   4.448   5.597 -0.2450  0.2413  0.0541
  508TIP3    H123015   2.641   4.395   5.661 -1.6156 -0.8478  0.1920
  508TIP3    H223016   2.535   4.387   5.553  0.5582  0.9804 -2.2001
  509TIP3   OH223017   5.056   6.619   6.072  0.2321 -0.8855 -0.2234
  509TIP3    H123018   5.041   6.530   6.102 -0.8584 -0.5789  0.1810
  509TIP3    H223019   5.141   6.643   6.109 -1.5409 -0.0793  3.8039
  510TIP3   OH223020   1.204   5.415  16.012 -0.0355  0.4178  0.1960
  510TIP3    H123021   1.155   5.479  16.063  2.5637  1.1188  2.0451
  510TIP3    H223022   1.226   5.460  15.931 -0.2287  1.0322  0.4812
  511TIP3   OH223023   3.679   5.856   2.669  0.0380 -0.0394 -1.1829
  511TIP3    H123024   3.647   5.822   2.752  1.6583 -0.0486 -0.5279
  511TIP3    H223025   3.655   5.949   2.670 -0.5186 -0.1821 -1.0029
  512TIP3   OH223026   3.871   1.552  16.875 -0.0703 -0.1563 -0.2247
  512TIP3    H123027   3.820   1.602  16.811 -1.3303 -1.5067 -0.3095
  512TIP3    H223028   3.824   1.564  16.957  1.2905  1.1953  0.4151
  513TIP3   OH223029   5.009   2.570  11.724 -0.4364 -0.0781  0.2719
  513TIP3    H123030   5.008   2.659  11.690  1.7883 -0.1888 -0.2162
  513TIP3    H223031   5.073   2.572  11.795  0.8438 -1.5910 -0.7668
  514TIP3   OH223032   3.907   0.168   4.965 -0.4288 -0.1727 -0.2040
  514TIP3    H123033   3.884   0.118   5.043 -0.8998 -1.7617 -1.3114
  514TIP3    H223034   3.824   0.202   4.932 -0.2625  0.2957 -0.1453
  515TIP3   OH223035   3.839   2.704   5.482  0.2188 -0.9652 -0.2742
  515TIP3    H123036   3.826   2.761   5.557 -2.0955 -1.2245 -0.4002
  515TIP3    H223037   3.827   2.615   5.517  0.1420 -1.1488 -0.7520
  516TIP3   OH223038   2.237   3.379   5.660  0.2347  0.1428  0.1854
  516TIP3    H123039   2.291   3.432   5.602  0.8777 -1.4759 -0.7802
  516TIP3    H223040   2.282   3.380   5.744  0.7090  0.4143 -0.0729
  517TIP3   OH223041   3.560   2.332  14.750 -0.6299  0.0101  0.2236
  517TIP3    H123042   3.644   2.376  14.766 -0.8536  0.8717 -0.8317
  517TIP3    H223043   3.585   2.249  14.710 -0.2655  0.1394  0.1719
  518TIP3   OH223044   6.552   0.003  14.861 -0.4848  0.0302  0.2388
  518TIP3    H123045   6.539   0.084  14.910 -0.3262  0.7075 -0.8114
  518TIP3    H223046   6.471  -0.047  14.876 -0.8645  0.6662  0.3462
  519TIP3   OH223047   2.202   1.294   6.359  0.2403  0.0693 -0.0339
  519TIP3    H123048   2.250   1.316   6.439 -0.3562 -0.1908  0.3937
  519TIP3    H223049   2.265   1.314   6.289  0.8339  0.1238  0.4964
  520TIP3   OH223050   3.164   3.796   0.674 -0.0032  0.6155 -0.5284
  520TIP3    H123051   3.125   3.745   0.603  0.0890  2.3879 -1.9354
  520TIP3    H223052   3.090   3.825   0.727 -0.0549 -0.9096  0.2596
  521TIP3   OH223053   3.205   3.151   3.133 -0.0804  0.5321 -0.2444
  521TIP3    H123054   3.198   3.154   3.038 -1.1916  0.1815 -0.1821
  521TIP3    H223055   3.118   3.172   3.165 -0.3930 -1.8198  0.6371
  522TIP3   OH223056   6.078   5.445   5.148  0.1104  0.6326  0.1802
  522TIP3    H123057   6.025   5.372   5.180  1.1948 -0.5137 -0.5310
  522TIP3    H223058   6.018   5.498   5.096 -1.2096  1.4444  2.3577
  523TIP3   OH223059   5.335   1.556  13.931  0.1226  0.3469  0.4368
  523TIP3    H123060   5.390   1.482  13.956  1.2699  0.7972 -0.6955
  523TIP3    H223061   5.366   1.582  13.845 -2.6633 -0.1293 -0.8004
  524TIP3   OH223062   3.117   3.953   0.390  0.4911  0.1191 -0.2408
  524TIP3    H123063   3.202   3.996   0.381 -0.2191  2.5557  2.8771
  524TIP3    H223064   3.053   4.022   0.374 -0.9332 -1.3125 -1.0547
  525TIP3   OH223065   4.554   1.145   4.045 -0.6497 -0.4324  0.4971
  525TIP3    H123066   4.540   1.218   4.105 -1.2637 -0.5223  0.4728
  525TIP3    H223067   4.613   1.180   3.978  1.3438 -0.8031  1.9896
  526TIP3   OH223068   3.382   3.809   3.890 -0.1195  0.2498  0.3439
  526TIP3    H123069   3.294   3.776   3.908 -0.0516 -0.2298 -0.1938
  526TIP3    H223070   3.383   3.895   3.931 -1.1515  0.6545 -0.4263
  527TIP3   OH223071   6.068   2.764   4.021 -0.4529  0.1765 -0.0113
  527TIP3    H123072   6.069   2.847   3.973 -1.4117 -0.2105 -0.7237
  527TIP3    H223073   6.156   2.757   4.058  0.9637 -0.3135 -3.1479
  528TIP3   OH223074   4.198   1.939   6.074 -0.1781  0.1152 -0.8080
  528TIP3    H123075   4.267   1.903   6.018  2.2367 -1.2987  2.6780
  528TIP3    H223076   4.205   2.034   6.062  2.1856  0.0018 -0.9027
  529TIP3   OH223077   0.602   5.208   2.832 -0.0102 -0.1927 -0.1711
  529TIP3    H123078   0.641   5.293   2.852  0.7265 -0.4676 -0.3820
  529TIP3    H223079   0.510   5.217   2.853  0.1004  0.6057 -0.0279
  530TIP3   OH223080   6.501   5.899  16.106  0.0036 -0.8016  0.4067
  530TIP3    H123081   6.573   5.942  16.153 -1.2376  0.7277  0.9632
  530TIP3    H223082   6.463   5.840  16.172 -0.3679 -0.2689  0.6793
  531TIP3   OH223083   6.463   2.011  12.240  0.5201 -0.7779 -0.3263
  531TIP3    H123084   6.399   2.075  12.271  1.3658 -0.0923  0.0526
  531TIP3    H223085   6.411   1.947  12.192 -0.6556 -1.1260  1.3377
  532TIP3   OH223086   1.369   6.071  13.736 -0.4498 -0.2673  0.0259
  532TIP3    H123087   1.429   6.006  13.774 -0.8044 -0.3299  0.4917
  532TIP3    H223088   1.426   6.134  13.694 -0.0248 -0.1048  0.8205
  533TIP3   OH223089   5.181   2.115   4.708  0.6551  0.0347  0.0267
  533TIP3    H123090   5.126   2.076   4.775  0.1989 -0.7730 -0.8057
  533TIP3    H223091   5.128   2.114   4.628  1.6784 -0.3040 -0.6773
  534TIP3   OH223092   4.761   0.425   1.124 -0.4099  0.1072  0.5394
  534TIP3    H123093   4.761   0.488   1.195 -0.2162 -1.4306  1.9764
  534TIP3    H223094   4.849   0.430   1.086  0.0356 -0.2324  1.5155
  535TIP3   OH223095   5.437   0.159  14.626  0.0119  0.2258  0.4899
  535TIP3    H123096   5.457   0.152  14.533  0.4017 -2.1209  0.6825
  535TIP3    H223097   5.354   0.113  14.637  0.0991  0.2439  1.3363
  536TIP3   OH223098   6.589   2.676   3.793 -0.2259 -0.0979 -0.7005
  536TIP3    H123099   6.520   2.646   3.853  0.8923 -0.6315  0.3582
  536TIP3    H223100   6.642   2.598   3.777  2.4103  1.0526  1.6406
  537TIP3   OH223101   3.896   0.438  13.920 -0.3531 -0.1452  0.1084
  537TIP3    H123102   3.933   0.368  13.866 -0.0089  0.0927  0.0298
  537TIP3    H223103   3.935   0.518  13.885 -0.9028  0.1100  0.0648
  538TIP3   OH223104   0.796   1.611  13.581 -0.2347 -0.4033  0.0392
  538TIP3    H123105   0.754   1.561  13.512 -0.2413 -1.2422  0.6359
  538TIP3    H223106   0.879   1.565  13.597  0.6703  0.8869 -0.7224
  539TIP3   OH223107   4.597   4.786  14.838  0.1651  0.4043 -0.3985
  539TIP3    H123108   4.598   4.748  14.926  0.2622 -0.3434 -0.7131
  539TIP3    H223109   4.543   4.864  14.846  0.6279  0.6567  0.4539
  540TIP3   OH223110   4.823   0.481   3.263  0.0096 -0.0539 -0.1422
  540TIP3    H123111   4.817   0.429   3.344  0.0744 -0.2220 -0.2444
  540TIP3    H223112   4.914   0.512   3.262 -0.5382  1.7672  0.9616
  541TIP3   OH223113   4.800   4.732  17.170  0.6464  0.1634  0.5791
  541TIP3    H123114   4.774   4.653  17.217  2.0001 -0.3145  0.5666
  541TIP3    H223115   4.729   4.748  17.108  0.8947 -1.7465 -0.2594
  542TIP3   OH223116   5.101   3.903  11.784  0.1502  0.4888  0.0758
  542TIP3    H123117   5.030   3.967  11.795  1.4415  2.1965 -0.9448
  542TIP3    H223118   5.088   3.868  11.696 -0.7454 -0.9918  0.7492
  543TIP3   OH223119   1.917   4.962   2.903 -0.4853 -0.2460 -0.3432
  543TIP3    H123120   2.007   4.948   2.873 -0.1403  0.9641  0.1002
  543TIP3    H223121   1.865   4.965   2.823  0.1732  1.1105 -0.7459
  544TIP3   OH223122   6.757   4.238   3.191  0.3360  0.1148  0.3302
  544TIP3    H123123   6.736   4.147   3.166  1.1368  0.1540 -0.5485
  544TIP3    H223124   6.853   4.240   3.194  0.3171  0.4640  2.2246
  545TIP3   OH223125   0.418   1.256  15.767 -0.0610 -0.1066  0.4062
  545TIP3    H123126   0.463   1.182  15.808  1.0619  0.3357  0.0162
  545TIP3    H223127   0.444   1.332  15.820 -1.5031 -0.0174  1.0293
  546TIP3   OH223128   2.363   1.791  12.827 -0.3349 -0.0475  0.3917
  546TIP3    H123129   2.451   1.771  12.793 -0.8917 -1.7508 -0.1736
  546TIP3    H223130   2.355   1.734  12.904 -0.9658  0.0285  0.3851
  547TIP3   OH223131   1.289   6.730  12.779 -0.0908 -0.3720  0.0533
  547TIP3    H123132   1.373   6.753  12.817 -0.0521 -1.0365  0.3985
  547TIP3    H223133   1.298   6.750  12.686  0.4428 -0.4215  0.0910
  548TIP3   OH223134   2.854   5.126   5.528 -0.2201  0.0512  0.6721
  548TIP3    H123135   2.863   5.126   5.623 -1.2143  0.2393  0.7699
  548TIP3    H223136   2.940   5.097   5.496 -0.3343 -1.4981  1.6590
  549TIP3   OH223137   0.079   4.841   2.753 -0.3672 -0.1606  0.1191
  549TIP3    H123138   0.102   4.900   2.825  0.1992 -0.7049  0.3985
  549TIP3    H223139   0.042   4.764   2.797 -2.5592  0.5839 -0.3025
  550TIP3   OH223140   4.406   0.516  13.208  0.1478 -0.0307 -0.4153
  550TIP3    H123141   4.499   0.520  13.185  0.5554  0.8722  1.2301
  550TIP3    H223142   4.401   0.551  13.297 -2.2611  3.7339 -1.7846
  551TIP3   OH223143   4.369   4.529  12.225 -0.0922  0.0034  0.5208
  551TIP3    H123144   4.401   4.458  12.170  0.3461  1.9025 -1.8660
  551TIP3    H223145   4.278   4.543  12.196 -0.0211  0.6918  0.6039
  552TIP3   OH223146   4.009   6.525   4.130  0.2970 -0.1417 -0.0221
  552TIP3    H123147   4.028   6.606   4.082  1.1808  0.9123  1.9809
  552TIP3    H223148   3.943   6.551   4.195  0.7426 -0.9839  0.7782
  553TIP3   OH223149   3.327   0.296  11.864 -0.0672 -0.4486 -0.7836
  553TIP3    H123150   3.402   0.308  11.805  0.2478  0.4451 -0.2247
  553TIP3    H223151   3.305   0.384  11.893 -0.9050 -0.7741 -0.3965
  554TIP3   OH223152   6.230   0.804  14.130  0.4209 -0.4711  0.1255
  554TIP3    H123153   6.145   0.812  14.088  0.1534 -3.1712  0.0365
  554TIP3    H223154   6.290   0.852  14.072 -0.5731 -0.8951 -1.3037
  555TIP3   OH223155   6.547   6.282  16.507  0.1637 -0.0749 -0.3500
  555TIP3    H123156   6.479   6.253  16.447  1.8747  2.2902 -3.7613
  555TIP3    H223157   6.499   6.317  16.583 -2.1752 -1.7087 -0.9787
  556TIP3   OH223158   3.966   5.612  14.894  0.1812 -0.0280 -0.4029
  556TIP3    H123159   3.883   5.620  14.848 -0.6922  1.3746  1.2631
  556TIP3    H223160   4.026   5.670  14.846 -0.2604  0.1944 -0.6912
  557TIP3   OH223161   4.155   0.435  12.403 -0.0787  0.0778 -0.1619
  557TIP3    H123162   4.061   0.432  12.388  0.0044 -0.8892 -0.5540
  557TIP3    H223163   4.167   0.404  12.493 -0.1426  0.3860 -0.0454
  558TIP3   OH223164   5.639   4.731  15.897  0.3992 -0.6474 -0.0391
  558TIP3    H123165   5.652   4.694  15.984 -0.2699  0.8715  0.7659
  558TIP3    H223166   5.572   4.799  15.910  1.7931  1.0791 -1.3083
  559TIP3   OH223167   2.358   0.652   5.803  0.7162  0.1617  0.4715
  559TIP3    H123168   2.387   0.716   5.867  2.1403 -0.1639  0.1773
  559TIP3    H223169   2.370   0.567   5.845 -0.2369  0.0204  0.4941
  560TIP3   OH223170   3.957   6.791   5.485 -0.8251 -0.4880  0.1391
  560TIP3    H123171   3.959   6.736   5.564  3.4110 -1.4442 -0.3968
  560TIP3    H223172   3.958   6.729   5.413  1.3233  0.1904 -0.4980
  561TIP3   OH223173   4.561   4.141  13.549  0.4261  0.0752 -0.0526
  561TIP3    H123174   4.639   4.189  13.577 -0.9748  3.4968 -1.5153
  561TIP3    H223175   4.502   4.144  13.624  1.1225 -1.4180  0.6109
  562TIP3   OH223176   4.939   0.668   0.359  0.2888  0.3749 -1.0787
  562TIP3    H123177   4.996   0.658   0.435 -0.9787  0.7391 -0.0325
  562TIP3    H223178   4.998   0.670   0.284  1.5373 -0.7207 -0.1735
  563TIP3   OH223179   2.429   1.822  16.048  0.3259 -0.4288 -0.8522
  563TIP3    H123180   2.408   1.910  16.079  1.0645 -0.9479  1.3189
  563TIP3    H223181   2.524   1.815  16.060  0.2470 -1.5839 -0.7814
  564TIP3   OH223182   1.715   4.152  14.265  0.1757 -0.9910 -0.1337
  564TIP3    H123183   1.685   4.132  14.176 -1.6909 -1.7973  0.6265
  564TIP3    H223184   1.767   4.076  14.290 -0.4414 -1.3894 -0.0487
  565TIP3   OH223185   3.385   2.619   0.023  0.1617  0.6377 -0.0346
  565TIP3    H123186   3.390   2.549  -0.042 -1.8280  0.4045 -0.0007
  565TIP3    H223187   3.457   2.678  -0.000  2.2604 -1.6509  0.2888
  566TIP3   OH223188   3.748   2.900  11.592 -0.1618 -1.0058  0.6688
  566TIP3    H123189   3.815   2.967  11.603 -0.7196 -0.8121  3.4569
  566TIP3    H223190   3.796   2.822  11.563  0.8670 -0.1797  0.0892
  567TIP3   OH223191   0.932   5.350   5.634  0.1680  0.7600 -0.2523
  567TIP3    H123192   0.883   5.327   5.713 -0.0349  0.3194 -0.5014
  567TIP3    H223193   0.951   5.266   5.592 -0.1752  1.0173 -0.9419
  568TIP3   OH223194   2.111   0.110  14.517  0.1727  0.4747  0.8276
  568TIP3    H123195   2.129   0.037  14.576 -0.1767 -0.5212 -0.2452
  568TIP3    H223196   2.186   0.169  14.527 -0.6759  1.2374  3.5165
  569TIP3   OH223197   1.194   6.108  16.362 -0.2584 -0.0633  0.3772
  569TIP3    H123198   1.224   6.189  16.321 -0.6959 -1.4400 -3.0485
  569TIP3    H223199   1.274   6.060  16.384  0.1154 -0.5019 -1.7118
  570TIP3   OH223200   6.023   6.207  11.914 -0.0085  0.9271  0.1520
  570TIP3    H123201   5.962   6.243  11.849 -1.1157  2.6371  2.0230
  570TIP3    H223202   6.078   6.146  11.864 -3.7275 -1.4127 -1.5617
  571TIP3   OH223203   1.395   6.803  13.561  0.0664 -0.0236 -0.3357
  571TIP3    H123204   1.456   6.825  13.631  0.0418 -0.5683 -0.1394
  571TIP3    H223205   1.347   6.884  13.545 -0.9989 -0.2632  1.3489
  572TIP3   OH223206   0.671   6.477  12.724  0.2521 -0.5821 -0.7697
  572TIP3    H123207   0.737   6.526  12.773 -1.1713  0.7639 -0.1395
  572TIP3    H223208   0.644   6.537  12.654 -0.8418 -0.8054 -0.5579
  573TIP3   OH223209   1.186   6.727   3.973 -0.9739 -0.0710 -0.3961
  573TIP3    H123210   1.213   6.724   3.881 -0.6455  0.0757 -0.3059
  573TIP3    H223211   1.142   6.643   3.988  2.9039 -2.1480  0.5306
  574TIP3   OH223212   4.073   5.817  11.278 -0.3047 -0.4081  0.0375
  574TIP3    H123213   4.018   5.856  11.346  2.0964  2.7329  0.4364
  574TIP3    H223214   4.027   5.835  11.196 -0.1618  1.7980  0.3895
  575TIP3   OH223215   1.933   5.871  12.411  0.3135  0.0925  0.5233
  575TIP3    H123216   1.995   5.801  12.393  2.4378  1.6789  1.3014
  575TIP3    H223217   1.850   5.826  12.429  1.3380 -2.1200  0.0158
  576TIP3   OH223218   5.971   5.315   1.794  0.1481  0.1425 -0.4462
  576TIP3    H123219   5.889   5.299   1.746 -0.1623 -2.0438  0.6529
  576TIP3    H223220   6.039   5.311   1.727 -0.5072  0.0860 -1.1219
  577TIP3   OH223221   5.958   2.404   2.204 -0.5014 -0.3201  0.3473
  577TIP3    H123222   5.946   2.452   2.122 -1.6185 -1.6133 -0.2909
  577TIP3    H223223   6.033   2.446   2.245 -0.0210  0.4865 -1.2458
  578TIP3   OH223224   5.808   2.859   2.955  0.7062  0.0531 -0.1619
  578TIP3    H123225   5.762   2.775   2.950  1.2242 -0.2832  0.4512
  578TIP3    H223226   5.738   2.924   2.952 -0.2545 -0.4698  3.9224
  579TIP3   OH223227   5.209   4.163   3.707  0.6619  0.0862  0.4090
  579TIP3    H123228   5.166   4.236   3.751  0.7802  1.9513 -2.3071
  579TIP3    H223229   5.136   4.109   3.675  0.4984  0.2658  0.4760
  580TIP3   OH223230   6.359   3.274   4.118  0.4117  0.6291 -0.5755
  580TIP3    H123231   6.433   3.325   4.085 -0.0173  1.7303  0.0946
  580TIP3    H223232   6.282   3.328   4.097 -0.0506  0.2782  0.1959
  581TIP3   OH223233   0.984   6.237   3.438  0.3516 -0.2114  0.2935
  581TIP3    H123234   1.062   6.182   3.431  0.7201  0.4396 -0.9675
  581TIP3    H223235   0.914   6.176   3.464  1.0408 -1.0043  0.3254
  582TIP3   OH223236   5.319   2.802  11.691  0.5189  0.0779  0.5211
  582TIP3    H123237   5.334   2.833  11.780  0.3302  0.3158  0.4748
  582TIP3    H223238   5.396   2.750  11.669  0.2173 -0.6197  1.1001
  583TIP3   OH223239   5.678   1.174  14.378  0.0069  0.4196  0.0486
  583TIP3    H123240   5.615   1.232  14.335  0.0061  1.0524  0.8753
  583TIP3    H223241   5.740   1.232  14.421  1.7620 -0.1899 -1.5434
  584TIP3   OH223242   5.743   2.927   0.155  0.3777  0.0958 -0.4773
  584TIP3    H123243   5.660   2.887   0.132 -0.8871  2.2466  0.0935
  584TIP3    H223244   5.779   2.957   0.072 -2.6840  5.0228 -0.4284
  585TIP3   OH223245   0.087   6.684   2.439  0.5774 -0.3344  0.8818
  585TIP3    H123246   0.003   6.716   2.472 -0.3126 -1.2000 -0.4438
  585TIP3    H223247   0.065   6.603   2.392  2.0194 -0.1224 -0.2320
  586TIP3   OH223248   3.695   3.698   3.861 -0.3703  0.3970 -0.7460
  586TIP3    H123249   3.612   3.721   3.903  0.3460  1.2285  0.2545
  586TIP3    H223250   3.673   3.624   3.804 -1.9561  1.1325 -1.1330
  587TIP3   OH223251   2.823   6.062   2.751  0.0293 -1.1384 -0.2794
  587TIP3    H123252   2.730   6.039   2.743  0.1247 -1.4566 -0.4718
  587TIP3    H223253   2.864   6.024   2.674  0.2743 -0.7530 -0.3363
  588TIP3   OH223254   0.526   5.795   3.516 -0.2053 -0.6807  0.0794
  588TIP3    H123255   0.611   5.839   3.505 -0.2703 -0.3342  0.8517
  588TIP3    H223256   0.548   5.703   3.527 -0.0077 -0.7423 -0.7890
  589TIP3   OH223257   5.475   3.538   0.503 -0.6281 -0.1887  0.0550
  589TIP3    H123258   5.552   3.532   0.447  0.3562  0.4291  1.3229
  589TIP3    H223259   5.480   3.462   0.561  0.0046  0.7824  1.3187
  590TIP3   OH223260   2.740   6.163   4.406  0.2630  0.0625 -0.2083
  590TIP3    H123261   2.814   6.185   4.462  2.5157 -1.4812 -2.3325
  590TIP3    H223262   2.728   6.240   4.350  1.2099 -0.1702 -0.7499
  591TIP3   OH223263   2.750   1.612   1.363  0.8425 -0.3697  0.2400
  591TIP3    H123264   2.754   1.629   1.457 -2.5610  0.8243  0.3011
  591TIP3    H223265   2.733   1.518   1.357 -0.7426 -0.1753  0.9983
  592TIP3   OH223266   0.140   2.543   3.414 -0.3487 -0.1897  0.1137
  592TIP3    H123267   0.048   2.525   3.397  0.2785 -1.3027 -2.6306
  592TIP3    H223268   0.171   2.467   3.463 -0.4820 -0.7580 -0.6642
  593TIP3   OH223269   4.406   1.035  12.724 -0.4730  0.2530  0.0630
  593TIP3    H123270   4.430   0.961  12.668 -0.0167  0.3473  0.1318
  593TIP3    H223271   4.434   1.112  12.675 -0.1229  0.3374  0.3973
  594TIP3   OH223272   6.777   3.120   5.784 -0.2192 -0.6141 -0.2364
  594TIP3    H123273   6.846   3.179   5.754 -1.3239  0.4987 -0.6650
  594TIP3    H223274   6.779   3.128   5.879 -1.2728  1.2386 -0.3306
  595TIP3   OH223275   1.897   6.485  13.766 -0.0921 -0.0106  0.4227
  595TIP3    H123276   1.855   6.402  13.788  1.3402 -1.4306 -1.7374
  595TIP3    H223277   1.873   6.501  13.675  1.8780  0.4649 -0.0626
  596TIP3   OH223278   6.681   6.118  12.299  0.2688  1.1267  0.1153
  596TIP3    H123279   6.765   6.164  12.286  0.0414  1.1689 -1.4203
  596TIP3    H223280   6.619   6.188  12.320  0.2745  1.3389 -0.5286
  597TIP3   OH223281   2.627   3.293   5.442 -0.4213 -0.3356  0.0105
  597TIP3    H123282   2.618   3.286   5.537 -1.3367  1.7290  0.1287
  597TIP3    H223283   2.549   3.250   5.407 -0.2505 -0.8041  0.1995
  598TIP3   OH223284   3.145   1.982  11.094  0.3926 -0.3915 -0.4265
  598TIP3    H123285   3.097   1.902  11.075 -1.9989  1.1880 -1.5012
  598TIP3    H223286   3.237   1.960  11.077  0.0580 -3.3422  1.0474
  599TIP3   OH223287   0.783   0.050  13.594 -0.0020  0.2463  0.0531
  599TIP3    H123288   0.826  -0.031  13.566 -0.1332  0.0175  0.5022
  599TIP3    H223289   0.744   0.028  13.679  1.3549  1.2458  0.9666
  600TIP3   OH223290   3.570   1.207   4.023 -0.0106  0.4013  0.5091
  600TIP3    H123291   3.503   1.146   4.052 -0.0029 -1.5883 -3.0474
  600TIP3    H223292   3.652   1.171   4.058 -0.2356 -0.5451  0.1009
  601TIP3   OH223293   2.036   5.793  14.729  0.4206  0.0780  0.1137
  601TIP3    H123294   2.051   5.881  14.696  2.2379  0.9886  2.9920
  601TIP3    H223295   2.037   5.802  14.825 -3.2088 -2.4962  0.6364
  602TIP3   OH223296   5.441   6.491   4.642 -0.2440 -0.5865 -0.2795
  602TIP3    H123297   5.426   6.403   4.677 -1.2723 -0.6445 -0.8123
  602TIP3    H223298   5.356   6.534   4.650 -0.2649 -0.2845 -1.7925
  603TIP3   OH223299   4.385   3.401   6.537 -0.7467 -0.5319  0.1120
  603TIP3    H123300   4.337   3.482   6.519 -0.8708 -0.6236  0.0271
  603TIP3    H223301   4.318   3.333   6.540 -0.4675 -1.0182 -2.1524
  604TIP3   OH223302   2.546   2.736   2.903 -0.2585  0.0386  0.1558
  604TIP3    H123303   2.536   2.642   2.912 -0.2388  0.1870  2.2683
  604TIP3    H223304   2.603   2.748   2.828 -2.9669 -1.4543 -2.3465
  605TIP3   OH223305   6.012   4.106   2.136  0.4938  0.1012 -0.2376
  605TIP3    H123306   6.015   4.100   2.232  1.4870  1.1673 -0.1797
  605TIP3    H223307   5.993   4.198   2.118 -0.0702 -0.1681 -1.0745
  606TIP3   OH223308   5.535   3.059   1.618  0.2365 -0.0004 -0.4156
  606TIP3    H123309   5.497   3.002   1.685 -0.5655  0.0339 -0.8258
  606TIP3    H223310   5.620   3.085   1.653 -0.2951  0.2508  0.7109
  607TIP3   OH223311   3.999   6.252  12.185 -0.3191 -0.3351  0.2429
  607TIP3    H123312   3.904   6.248  12.184 -0.2950 -0.9173 -0.0816
  607TIP3    H223313   4.024   6.256  12.092 -0.0348  0.0976  0.3315
  608TIP3   OH223314   3.256   6.641   3.143 -0.1399 -0.2144 -0.0913
  608TIP3    H123315   3.254   6.572   3.210 -2.0559 -1.5924 -1.4266
  608TIP3    H223316   3.344   6.637   3.107  0.8683  0.4320  2.1716
  609TIP3   OH223317   3.818   0.314  15.766  0.3481 -0.3364  0.2726
  609TIP3    H123318   3.769   0.276  15.838 -1.1539  0.9559 -0.0238
  609TIP3    H223319   3.894   0.256  15.755  0.3017 -0.8846  2.4660
  610TIP3   OH223320   2.922   0.218  17.182 -0.4524 -0.1453 -0.1963
  610TIP3    H123321   2.921   0.311  17.159  0.4862 -0.6007 -2.2647
  610TIP3    H223322   3.015   0.194  17.178 -0.7237 -1.2519 -0.0487
  611TIP3   OH223323   6.081   6.609   3.923  0.3032  0.3195 -0.6733
  611TIP3    H123324   6.078   6.535   3.861  1.6050 -0.2395 -0.1022
  611TIP3    H223325   5.989   6.630   3.939 -0.0786  0.5477 -2.8556
  612TIP3   OH223326   3.367   3.354   2.376 -0.0931  0.7435 -0.2312
  612TIP3    H123327   3.417   3.429   2.343 -0.2685  1.1282  0.3707
  612TIP3    H223328   3.361   3.368   2.470 -1.7757  0.9678 -0.3396
  613TIP3   OH223329   2.614   3.107  15.499  0.1515  0.0908 -0.3023
  613TIP3    H123330   2.572   3.145  15.422  1.1109 -1.5900 -1.7298
  613TIP3    H223331   2.668   3.178  15.535 -0.2279  0.8740 -1.2401
  614TIP3   OH223332   2.837   3.687   2.154  0.3701  0.5853  0.4131
  614TIP3    H123333   2.878   3.740   2.222  2.1510  0.5831 -0.6006
  614TIP3    H223334   2.865   3.726   2.072 -0.1886 -0.5349 -0.3481
  615TIP3   OH223335   5.707   0.676   2.514 -0.0367  0.5317  0.0924
  615TIP3    H123336   5.730   0.672   2.607 -0.1289  0.6721  0.1201
  615TIP3    H223337   5.715   0.585   2.484  1.1536  0.6667 -0.0450
  616TIP3   OH223338   5.359   0.275  14.873  0.3380  0.3906 -0.1311
  616TIP3    H123339   5.270   0.283  14.839 -0.1888  1.1560  1.3142
  616TIP3    H223340   5.416   0.276  14.796 -0.4668  5.7327 -1.0386
  617TIP3   OH223341   5.887   1.685  13.167  0.0091 -0.5749 -0.5688
  617TIP3    H123342   5.897   1.778  13.183 -1.0185  0.0316 -3.0656
  617TIP3    H223343   5.943   1.643  13.232  0.3184  1.7486  0.7486
  618TIP3   OH223344   1.773   4.771   2.042  0.3251 -0.5032  0.1179
  618TIP3    H123345   1.783   4.703   2.109 -0.7488 -0.8753 -0.0839
  618TIP3    H223346   1.695   4.820   2.070  1.0232  0.5948  0.2055
  619TIP3   OH223347   6.109   1.177   1.093 -0.0501 -0.1085  0.0653
  619TIP3    H123348   6.102   1.127   1.174 -0.2562 -1.9056 -1.0017
  619TIP3    H223349   6.103   1.111   1.024  1.6072  1.1854 -1.4072
  620TIP3   OH223350   3.233   2.895   2.295 -0.1255  0.2551  0.6428
  620TIP3    H123351   3.252   2.804   2.320 -0.5168 -0.3296 -1.0870
  620TIP3    H223352   3.305   2.945   2.333  0.4831 -0.8631  1.0163
  621TIP3   OH223353   6.056   0.502  14.145 -0.3140  0.0285 -0.8607
  621TIP3    H123354   6.017   0.578  14.189 -0.6755 -1.6235  1.9360
  621TIP3    H223355   5.994   0.431  14.161  1.8629 -1.7690  0.2339
  622TIP3   OH223356   4.023   1.449  12.328  0.0303 -0.3710 -0.2235
  622TIP3    H123357   3.966   1.372  12.324 -0.3307 -0.0685 -1.3851
  622TIP3    H223358   4.108   1.415  12.354 -0.2529 -1.0912 -0.2275
  623TIP3   OH223359   4.343   3.616   6.031  0.2550  0.1275 -0.1927
  623TIP3    H123360   4.256   3.593   6.065 -0.2202  3.1852  1.0097
  623TIP3    H223361   4.395   3.632   6.109  0.8957  1.5531 -0.8811
  624TIP3   OH223362   2.475   6.609  12.502 -0.2784 -0.2733  1.0026
  624TIP3    H123363   2.416   6.658  12.558 -1.5736 -0.4795 -0.1409
  624TIP3    H223364   2.476   6.657  12.419  0.6512 -0.6394  0.7828
  625TIP3   OH223365   1.926   3.511   2.720  0.0921 -0.1983  0.0631
  625TIP3    H123366   1.968   3.531   2.636 -3.5017 -0.1847 -1.9018
  625TIP3    H223367   1.927   3.416   2.726  0.9017 -0.1809  0.3634
  626TIP3   OH223368   5.549   4.353   1.152 -0.2665 -0.6706  0.2254
  626TIP3    H123369   5.460   4.348   1.119 -0.3015 -3.6751  0.4566
  626TIP3    H223370   5.603   4.372   1.075 -1.1016  2.2735  0.2634
  627TIP3   OH223371   2.635   3.831   5.770  0.0809 -0.2372  0.4472
  627TIP3    H123372   2.603   3.874   5.691 -0.5171 -2.7324 -0.7656
  627TIP3    H223373   2.558   3.823   5.826  0.4218  1.1778  1.1504
  628TIP3   OH223374   5.673   2.812   1.886 -0.0250 -0.3873 -0.5246
  628TIP3    H123375   5.637   2.761   1.958 -0.3890  0.4334 -0.1054
  628TIP3    H223376   5.597   2.856   1.847  0.4113  0.7736 -0.1096
  629TIP3   OH223377   4.878   2.405  12.867 -0.8350  0.7887 -0.3666
  629TIP3    H123378   4.968   2.394  12.897 -1.9289 -2.1672  2.3778
  629TIP3    H223379   4.852   2.492  12.899  0.1058  0.3899  1.6202
  630TIP3   OH223380   5.397   3.593   6.859  0.2947  0.4008 -0.3711
  630TIP3    H123381   5.386   3.516   6.803 -0.8735  1.2435 -1.3796
  630TIP3    H223382   5.489   3.590   6.887  0.8821 -0.1663 -2.2151
  631TIP3   OH223383   2.478   0.549  13.101 -0.4524  0.1609 -0.0400
  631TIP3    H123384   2.557   0.602  13.087  0.4161 -1.4857 -1.9376
  631TIP3    H223385   2.410   0.595  13.053 -0.0909  0.4213 -0.3157
  632TIP3   OH223386   3.168   4.015   2.799 -0.0995 -0.4787  0.6100
  632TIP3    H123387   3.088   4.056   2.765  0.2847 -0.4390 -0.2736
  632TIP3    H223388   3.186   4.061   2.881  0.4832  1.3705 -0.4808
  633TIP3   OH223389   3.410   3.479  12.274 -0.4507 -0.1556  0.1110
  633TIP3    H123390   3.375   3.560  12.311  0.7985  0.4751 -0.0415
  633TIP3    H223391   3.398   3.488  12.179  2.8669  1.5286 -0.3019
  634TIP3   OH223392   5.349   1.667   0.029  0.3251  0.0060  0.1952
  634TIP3    H123393   5.364   1.599   0.095 -0.3054  0.2223  0.5569
  634TIP3    H223394   5.266   1.642  -0.013  1.3619 -0.8999 -1.4632
  635TIP3   OH223395   1.644   0.128   1.731 -0.3464 -0.0435  0.4457
  635TIP3    H123396   1.644   0.216   1.769 -0.7127  0.3763 -0.4755
  635TIP3    H223397   1.673   0.141   1.641 -1.3564 -0.7149 -0.0041
  636TIP3   OH223398   1.596   4.667  11.976  0.0138  0.6725 -0.1923
  636TIP3    H123399   1.573   4.703  11.890 -2.0129 -1.2267 -0.5259
  636TIP3    H223400   1.513   4.660  12.022  0.7821 -0.4690  1.0688
  637TIP3   OH223401   5.620   0.771  10.984  0.3210  0.2694 -0.1931
  637TIP3    H123402   5.578   0.857  10.981 -2.7687 -1.1078 -0.6645
  637TIP3    H223403   5.691   0.777  10.920  1.1151  2.8477  0.8291
  638TIP3   OH223404   3.403   5.294  15.558  0.2564 -0.0635 -0.0102
  638TIP3    H123405   3.324   5.313  15.508  1.2922  0.5723 -1.4747
  638TIP3    H223406   3.416   5.372  15.613  1.4399  1.2167 -1.9544
  639TIP3   OH223407   5.393   0.453  12.806 -0.0689 -0.3929 -0.1916
  639TIP3    H123408   5.397   0.361  12.778 -1.6231  0.5208 -3.9683
  639TIP3    H223409   5.300   0.470  12.819  0.1503  0.7929 -0.0434
  640TIP3   OH223410   6.733   0.830  15.041  0.2168 -0.2058  0.3395
  640TIP3    H123411   6.806   0.771  15.056  0.3474  0.0636  0.7762
  640TIP3    H223412   6.751   0.906  15.096 -0.7365 -0.4357  0.9834
  641TIP3   OH223413   1.186   2.144  10.672  0.1709  0.0263  0.3712
  641TIP3    H123414   1.269   2.118  10.632  1.0310  3.4724 -0.4301
  641TIP3    H223415   1.135   2.063  10.677  3.3192 -2.1151  0.3457
  642TIP3   OH223416   2.583   4.096  13.943  0.0208 -0.0078  0.1775
  642TIP3    H123417   2.614   4.177  13.985 -0.8313 -0.4031  1.6744
  642TIP3    H223418   2.547   4.125  13.859  1.2557  0.9111 -0.0662
  643TIP3   OH223419   0.991   4.026  13.708 -0.5971  0.1886  0.3975
  643TIP3    H123420   0.971   4.027  13.802  0.7632 -0.9980  0.7239
  643TIP3    H223421   1.049   4.101  13.694 -2.3888  1.5991  0.0731
  644TIP3   OH223422   4.582   0.464  14.368 -0.3615 -0.1460  0.2436
  644TIP3    H123423   4.607   0.399  14.433  0.4744  0.5570  0.6373
  644TIP3    H223424   4.566   0.413  14.288 -0.3019 -0.8926  0.7045
  645TIP3   OH223425   2.591   5.809   1.645 -0.0759 -0.1761 -0.0456
  645TIP3    H123426   2.631   5.892   1.617  0.7561 -0.5021  0.1566
  645TIP3    H223427   2.507   5.835   1.683  1.1089  0.8515  2.0484
  646TIP3   OH223428   0.744   0.164  15.061  0.0002 -0.0962 -0.3773
  646TIP3    H123429   0.706   0.250  15.080  0.5950 -0.0082  0.5135
  646TIP3    H223430   0.831   0.168  15.101 -0.7401 -1.8452  1.6426
  647TIP3   OH223431   6.635   1.508  14.020  0.6119 -0.3869 -0.1674
  647TIP3    H123432   6.666   1.442  14.082  0.0230  0.3600  0.9634
  647TIP3    H223433   6.541   1.492  14.012  0.4772  0.2399  0.0570
  648TIP3   OH223434   2.739   5.399  10.846  0.0840  0.6896  0.3766
  648TIP3    H123435   2.781   5.403  10.931 -1.1830  1.0085  1.0160
  648TIP3    H223436   2.811   5.400  10.783  1.0267  0.6885  1.4320
  649TIP3   OH223437   0.493   1.746  15.396 -0.1561  0.1154 -0.4729
  649TIP3    H123438   0.423   1.797  15.355  1.3838  0.9527 -2.1730
  649TIP3    H223439   0.565   1.807  15.406  1.4390 -1.4751 -1.7027
  650TIP3   OH223440   5.120   2.574  11.963 -0.0243 -0.6973  0.0899
  650TIP3    H123441   5.058   2.528  12.019 -1.1378 -0.1917 -0.6820
  650TIP3    H223442   5.125   2.662  12.000 -0.0925 -0.6198 -0.0824
  651TIP3   OH223443   1.880   2.857   3.513 -0.2248  0.3106  0.2464
  651TIP3    H123444   1.952   2.900   3.560  0.0936  2.0263 -1.6469
  651TIP3    H223445   1.868   2.911   3.435 -3.1306 -0.3321  0.1536
  652TIP3   OH223446   4.657   0.465  14.832  0.0860 -0.5972 -0.2580
  652TIP3    H123447   4.569   0.434  14.810 -0.1245  0.0555 -0.3620
  652TIP3    H223448   4.688   0.508  14.752  0.7669 -1.3934 -0.4354
  653TIP3   OH223449   1.357   2.054  13.400 -0.0833 -0.3291  0.0714
  653TIP3    H123450   1.272   2.090  13.375 -0.2037 -0.8094 -0.2253
  653TIP3    H223451   1.366   1.974  13.347 -1.1765 -2.4332  2.8466
  654TIP3   OH223452   3.329   4.278  12.936  0.3228  0.2152 -0.3185
  654TIP3    H123453   3.359   4.368  12.954  0.0785  0.4850 -1.2058
  654TIP3    H223454   3.358   4.228  13.012  0.8288  0.9629 -0.0009
  655TIP3   OH223455   0.973   0.262  13.595 -0.2330  0.5310  0.2119
  655TIP3    H123456   0.903   0.197  13.586  2.3156 -2.2363 -2.2757
  655TIP3    H223457   1.001   0.254  13.686 -1.7836  0.1821  0.6887
  656TIP3   OH223458   1.963   6.217   1.796 -0.2303 -0.2241  0.4723
  656TIP3    H123459   1.945   6.126   1.821 -1.2990 -0.3396 -0.6694
  656TIP3    H223460   1.951   6.219   1.701  3.7059  0.2110 -0.1909
  657TIP3   OH223461   0.319   4.934   4.322 -0.4709  0.3058  0.3404
  657TIP3    H123462   0.353   4.936   4.232 -2.4243  0.6368 -0.4422
  657TIP3    H223463   0.235   4.889   4.314 -0.6755  0.3454  2.0290
  658TIP3   OH223464   1.192   3.485  16.851 -0.0817 -0.1117  0.0756
  658TIP3    H123465   1.165   3.507  16.940 -0.7940  1.0282 -0.3881
  658TIP3    H223466   1.120   3.517  16.796 -1.4232 -3.9607 -0.7256
  659TIP3   OH223467   5.026   2.397   6.366 -0.3784  0.1765 -0.2989
  659TIP3    H123468   5.026   2.488   6.397 -0.6548  0.4118 -0.9768
  659TIP3    H223469   5.021   2.404   6.271 -0.5797 -0.5571 -0.3481
  660TIP3   OH223470   3.870   5.221   1.984  0.3809 -0.0714 -0.0791
  660TIP3    H123471   3.809   5.277   2.032  0.4735  1.0875 -1.2633
  660TIP3    H223472   3.818   5.188   1.910  0.5096 -1.0763  0.2631
  661TIP3   OH223473   3.983   5.207   0.022 -0.1243 -0.0205 -0.1502
  661TIP3    H123474   3.982   5.284  -0.035  0.3537  1.2797  1.5208
  661TIP3    H223475   3.964   5.242   0.109  1.1276 -1.6559  0.8269
  662TIP3   OH223476   0.296   1.459   3.127  0.0326 -0.1632 -0.4981
  662TIP3    H123477   0.280   1.437   3.035  0.2448  0.0513 -0.5871
  662TIP3    H223478   0.389   1.440   3.140 -0.2918 -1.4930  0.0370
  663TIP3   OH223479   2.420   4.903   0.668  0.2942 -0.1169  0.3909
  663TIP3    H123480   2.328   4.885   0.687  0.5286  0.5024  2.3542
  663TIP3    H223481   2.419   4.980   0.611 -0.3960 -0.6935 -0.4088
  664TIP3   OH223482   1.598   0.826   3.485 -0.3435 -0.6100 -0.3218
  664TIP3    H123483   1.615   0.836   3.391 -0.9422 -0.9141 -0.4701
  664TIP3    H223484   1.683   0.807   3.523  0.4147  2.0835 -0.4239
  665TIP3   OH223485   1.298   2.029  15.198  0.0900  0.0736  0.0106
  665TIP3    H123486   1.314   2.102  15.139  0.5829 -1.1278 -1.4162
  665TIP3    H223487   1.245   1.968  15.146 -2.1701  0.3281  1.8709
  666TIP3   OH223488   4.020   5.857  14.521  0.0073 -0.3754 -0.2275
  666TIP3    H123489   3.953   5.797  14.488 -0.8190  1.1087 -1.3600
  666TIP3    H223490   3.985   5.944  14.504  1.9414  0.4534 -0.2584
  667TIP3   OH223491   6.388   0.250   4.551  0.6028 -0.3286  0.0833
  667TIP3    H123492   6.459   0.307   4.580  1.9664 -1.4543 -0.8766
  667TIP3    H223493   6.394   0.250   4.455  0.7217 -2.0964  0.0462
  668TIP3   OH223494   0.894   6.314   2.613  0.2860  0.3502  0.0200
  668TIP3    H123495   0.850   6.364   2.680  0.0740 -0.1846  0.2855
  668TIP3    H223496   0.983   6.302   2.646  0.0586 -0.2931  0.4208
  669TIP3   OH223497   0.551   2.409   3.117  0.3273  0.4394 -0.1663
  669TIP3    H123498   0.461   2.381   3.100 -0.2674  2.1293  0.1014
  669TIP3    H223499   0.574   2.364   3.199 -0.7830  1.0831  0.5244
  670TIP3   OH223500   3.312   6.202   3.134  0.2867 -0.1503 -0.0860
  670TIP3    H123501   3.406   6.215   3.120  0.1408 -0.3351 -1.3870
  670TIP3    H223502   3.289   6.266   3.201  1.7814 -1.7337  2.0410
  671TIP3   OH223503   4.707   1.709   4.205 -0.1732  0.7565 -0.0068
  671TIP3    H123504   4.740   1.663   4.128 -0.3586 -0.7744  0.7817
  671TIP3    H223505   4.780   1.764   4.233  0.1173  0.8357 -0.8900
  672TIP3   OH223506   0.819   0.343  12.800 -0.2253 -0.2677  0.2360
  672TIP3    H123507   0.841   0.250  12.801  0.9357 -0.0126 -0.0073
  672TIP3    H223508   0.899   0.387  12.826 -0.4419  0.7206 -0.6800
  673TIP3   OH223509   6.734   0.614  11.804 -0.2533 -0.4520 -0.7254
  673TIP3    H123510   6.648   0.656  11.793 -1.7858 -3.6364 -2.1218
  673TIP3    H223511   6.781   0.635  11.723 -0.0351  0.5270 -0.3603
  674TIP3   OH223512   3.477   0.793   3.041 -0.3270 -0.1579  0.5752
  674TIP3    H123513   3.428   0.844   2.976 -0.1451 -0.4183  0.2306
  674TIP3    H223514   3.411   0.768   3.106 -0.6637 -0.5354  0.0994
  675TIP3   OH223515   0.254   5.105   3.613 -0.4691  0.2334  0.1171
  675TIP3    H123516   0.314   5.170   3.650  1.7872 -1.8482  0.3500
  675TIP3    H223517   0.167   5.132   3.643  0.5338  2.3854  1.2460
  676TIP3   OH223518   5.720   1.172  12.948 -0.1196  0.3348  0.9377
  676TIP3    H123519   5.782   1.139  12.882 -0.0096  1.0650  0.6582
  676TIP3    H223520   5.770   1.173  13.029 -0.7943 -2.3115  1.4629
  677TIP3   OH223521   1.203   5.751  14.525  0.3906  0.0901 -0.3138
  677TIP3    H123522   1.287   5.708  14.510 -0.5842 -1.9703 -0.2705
  677TIP3    H223523   1.140   5.696  14.479 -0.9234  1.6639 -0.4470
  678TIP3   OH223524   5.601   4.921   5.763  0.5875 -0.0365 -0.2917
  678TIP3    H123525   5.634   5.008   5.785  0.5562 -0.3039  0.8722
  678TIP3    H223526   5.652   4.862   5.817 -1.4316 -0.5020  1.2167
  679TIP3   OH223527   6.099   2.976  14.072  0.0100  0.3056 -0.0546
  679TIP3    H123528   6.052   2.952  13.992  0.9166 -0.9316 -0.2451
  679TIP3    H223529   6.182   3.011  14.040  1.7510 -3.0936  0.2909
  680TIP3   OH223530   2.719   4.272   5.782 -0.0063  0.1839 -0.1332
  680TIP3    H123531   2.770   4.249   5.860 -1.5448  0.0181  0.8719
  680TIP3    H223532   2.629   4.251   5.806 -0.4207 -0.7562 -2.3035
  681TIP3   OH223533   2.636   3.227   1.319 -0.5417 -0.6057  0.1981
  681TIP3    H123534   2.705   3.232   1.386  0.6230 -3.1510 -0.6691
  681TIP3    H223535   2.578   3.300   1.340  0.4372 -0.5088  3.1954
  682TIP3   OH223536   1.695   2.536  11.113 -0.1299 -0.2794  0.9926
  682TIP3    H123537   1.699   2.454  11.162  0.0888 -1.4948 -0.9281
  682TIP3    H223538   1.771   2.533  11.055 -0.6365  0.8369  0.2216
  683TIP3   OH223539   6.775   2.368  13.188  0.1115  0.2238  0.4103
  683TIP3    H123540   6.739   2.457  13.192 -1.0281 -0.1793 -0.4036
  683TIP3    H223541   6.706   2.313  13.225 -0.0634 -0.5455 -0.9922
  684TIP3   OH223542   4.314   0.568   5.447 -0.2098  0.1875 -0.0305
  684TIP3    H123543   4.403   0.552   5.479  0.0275 -1.2612 -1.3509
  684TIP3    H223544   4.262   0.581   5.527  0.7167 -1.4366  0.8828
  685TIP3   OH223545   5.621   0.171  11.363 -0.5254  0.2083  0.0514
  685TIP3    H123546   5.613   0.106  11.293 -0.0274  0.0124  0.1732
  685TIP3    H223547   5.659   0.247  11.320 -1.7537  0.6862 -0.2480
  686TIP3   OH223548   1.165   3.733  14.869  0.9165  0.6294  0.5543
  686TIP3    H123549   1.235   3.670  14.887 -2.5305 -3.7638  0.2829
  686TIP3    H223550   1.145   3.772  14.954  1.1459 -1.1085  1.4525
  687TIP3   OH223551   2.103   1.907  15.529 -0.7603 -0.5385  0.0246
  687TIP3    H123552   2.066   1.820  15.545 -0.5419 -0.9396 -1.4965
  687TIP3    H223553   2.194   1.891  15.504 -0.1758  0.2842  1.5244
  688TIP3   OH223554   6.465   6.737  16.956 -0.4628 -0.2308  0.4206
  688TIP3    H123555   6.526   6.663  16.952 -0.1082  0.0722  0.0477
  688TIP3    H223556   6.512   6.804  17.006 -1.1807 -0.6108  1.6322
  689TIP3   OH223557   0.215   0.869   3.901  0.5125  0.1219 -0.2356
  689TIP3    H123558   0.254   0.917   3.973 -1.1086  1.1720 -0.0058
  689TIP3    H223559   0.271   0.889   3.825  0.7030  1.1877  0.1740
  690TIP3   OH223560   0.824   4.682   1.896  0.7213  0.4342  0.1648
  690TIP3    H123561   0.908   4.663   1.856  0.1790 -2.8128  0.3001
  690TIP3    H223562   0.802   4.604   1.947 -2.1026  1.3766  0.6348
  691TIP3   OH223563   2.097   2.196   0.725 -0.3651 -0.3861  0.1756
  691TIP3    H123564   2.102   2.149   0.641 -0.0734 -1.7528  0.9239
  691TIP3    H223565   2.180   2.244   0.730 -0.4730 -0.1371 -0.4133
  692TIP3   OH223566   0.195   0.296  11.374 -0.0873 -0.0937 -0.3240
  692TIP3    H123567   0.175   0.202  11.380  1.2216 -0.3065  1.3886
  692TIP3    H223568   0.257   0.312  11.445 -1.1115  2.3227  0.0960
  693TIP3   OH223569   1.261   4.354  11.828 -0.4937 -0.0186  0.1771
  693TIP3    H123570   1.264   4.437  11.782  0.1613  1.0859  2.1180
  693TIP3    H223571   1.348   4.316  11.816 -1.0023 -0.8153 -1.2954
  694TIP3   OH223572   4.316   1.013  11.268  0.2458  0.0729 -0.1165
  694TIP3    H123573   4.325   1.092  11.214  1.3371 -1.3645 -2.1780
  694TIP3    H223574   4.238   0.969  11.232  0.3207 -0.3507  0.2307
  695TIP3   OH223575   6.238   1.297  12.416  0.9310 -0.9791 -0.3295
  695TIP3    H123576   6.241   1.275  12.509  0.4877  0.4675  0.0487
  695TIP3    H223577   6.328   1.286  12.386  1.4645  0.2820  0.7151
  696TIP3   OH223578   3.268   4.880   5.593  0.6384 -0.3058 -0.3877
  696TIP3    H123579   3.328   4.939   5.638  0.6061 -0.6276  0.0846
  696TIP3    H223580   3.205   4.854   5.661  0.5003 -0.6753 -0.6558
  697TIP3   OH223581   0.535   3.239   3.263  0.0048 -0.3976 -0.2877
  697TIP3    H123582   0.464   3.185   3.229  0.1410 -0.4729 -0.4522
  697TIP3    H223583   0.581   3.182   3.325 -0.9571  0.1111  0.9334
  698TIP3   OH223584   3.298   0.911  11.856  0.1467 -0.1659 -0.4759
  698TIP3    H123585   3.294   0.817  11.837  0.5560 -0.3575  0.3302
  698TIP3    H223586   3.385   0.938  11.827  0.4614 -0.2883  0.3078
  699TIP3   OH223587   3.926   1.448  12.959 -0.9759  0.5170  0.9931
  699TIP3    H123588   3.970   1.376  13.005 -0.0463  0.5827  0.2313
  699TIP3    H223589   3.835   1.418  12.951 -0.4890 -0.8565  0.1663
  700TIP3   OH223590   5.841   4.587   1.351  0.0823  0.3339  0.7146
  700TIP3    H123591   5.794   4.511   1.383 -2.7456  1.2446 -0.9455
  700TIP3    H223592   5.854   4.570   1.257  0.3728  1.4183  0.5357
  701TIP3   OH223593   3.760   3.714  16.821 -0.4642 -0.7176  0.2554
  701TIP3    H123594   3.721   3.791  16.779 -0.2338 -0.8404 -0.1872
  701TIP3    H223595   3.704   3.641  16.793 -0.1763 -0.8320 -0.0172
  702TIP3   OH223596   2.337   3.696  11.819 -0.0960 -0.5729 -0.0176
  702TIP3    H123597   2.374   3.783  11.832  0.8436 -1.0014  0.2590
  702TIP3    H223598   2.398   3.654  11.757 -0.2956 -1.1820  0.1973
  703TIP3   OH223599   2.042   5.756  13.769  0.1816 -0.1040  0.1173
  703TIP3    H123600   2.021   5.736  13.678  1.0156  0.8151 -0.3016
  703TIP3    H223601   2.005   5.683  13.819 -0.8501 -0.3021 -0.8849
  704TIP3   OH223602   1.057   3.485   2.678 -0.0852  0.0903 -0.5639
  704TIP3    H123603   1.096   3.472   2.765  2.8325  0.8868 -1.6259
  704TIP3    H223604   1.132   3.499   2.621 -1.9795  0.6733 -3.0508
  705TIP3   OH223605   0.734   0.759  16.781 -0.0191 -0.5241 -0.1537
  705TIP3    H123606   0.717   0.848  16.752 -1.2025 -0.7902 -0.3126
  705TIP3    H223607   0.830   0.754  16.788  0.1197  0.4478 -1.1014
  706TIP3   OH223608   0.112   1.985   2.914  0.0075 -0.2880  0.3619
  706TIP3    H123609   0.057   2.055   2.948 -2.9452 -1.5534 -1.3450
  706TIP3    H223610   0.119   2.003   2.820  1.3545 -0.9568  0.2993
  707TIP3   OH223611   6.507   4.769   0.494 -0.8697  0.5891  0.5709
  707TIP3    H123612   6.530   4.857   0.464  2.4212 -0.4190 -0.2572
  707TIP3    H223613   6.519   4.772   0.589  1.2891  0.6050  0.3542
  708TIP3   OH223614   6.245   2.728  13.158 -0.1188 -0.0490 -0.4768
  708TIP3    H123615   6.296   2.649  13.176  0.4271 -0.0568 -1.8891
  708TIP3    H223616   6.297   2.775  13.093 -0.6669  1.2466 -0.0057
  709TIP3   OH223617   4.658   3.425   6.625 -0.5811  0.1879  0.2507
  709TIP3    H123618   4.688   3.334   6.626 -0.0561  0.3555  1.6561
  709TIP3    H223619   4.567   3.420   6.594 -0.1947 -0.6765 -0.7890
  710TIP3   OH223620   3.931   1.626  13.647  0.1414  0.2644 -0.6689
  710TIP3    H123621   3.893   1.683  13.714 -0.7986 -0.7206 -0.3271
  710TIP3    H223622   3.943   1.682  13.571 -1.3788  0.7985 -0.5550
  711TIP3   OH223623   5.606   4.262  16.410 -0.1201  0.3847  0.5886
  711TIP3    H123624   5.520   4.264  16.453  0.3539 -0.8582  1.6615
  711TIP3    H223625   5.586   4.254  16.317 -1.1701  0.6377  0.7788
  712TIP3   OH223626   1.952   0.571  14.481 -0.2394 -0.2074  0.2409
  712TIP3    H123627   1.935   0.476  14.485  1.1349 -0.5177 -0.5154
  712TIP3    H223628   1.896   0.602  14.410  1.0273 -0.9120 -1.1244
  713TIP3   OH223629   1.517   0.753  16.947 -0.0305 -0.1393  0.1868
  713TIP3    H123630   1.610   0.771  16.960  0.0163  1.0388 -1.4204
  713TIP3    H223631   1.478   0.840  16.932 -1.1549 -0.7208 -0.3837
  714TIP3   OH223632   1.757   4.720  13.855  0.4068  0.1799  0.1357
  714TIP3    H123633   1.827   4.785  13.861  1.1208 -0.4202 -1.3608
  714TIP3    H223634   1.802   4.636  13.842 -0.5570 -0.0810 -2.0478
  715TIP3   OH223635   1.002   2.023  15.975 -0.1582  0.0992  0.6628
  715TIP3    H123636   1.037   1.983  15.895  0.2715  0.1582  0.8163
  715TIP3    H223637   1.028   2.115  15.968 -0.4989  0.1953  0.6648
  716TIP3   OH223638   2.143   6.187  14.974 -0.1010  0.0312  0.1274
  716TIP3    H123639   2.078   6.153  14.912  0.0853 -1.2298  0.5959
  716TIP3    H223640   2.222   6.136  14.956  0.1043  0.0139  1.0448
  717TIP3   OH223641   6.799   4.208   3.942 -0.4748 -0.9796 -0.1358
  717TIP3    H123642   6.863   4.147   3.904  0.8689  0.7429 -0.7389
  717TIP3    H223643   6.754   4.246   3.867  0.9996  1.1619 -0.0165
  718TIP3   OH223644   1.564   4.597   5.570 -0.1037 -0.0222  0.0972
  718TIP3    H123645   1.639   4.564   5.620 -0.7590  0.4060  1.4283
  718TIP3    H223646   1.555   4.688   5.599  0.1093  0.5626 -1.5996
  719TIP3   OH223647   5.775   3.213   0.318 -0.2098  0.4690  0.0267
  719TIP3    H123648   5.868   3.223   0.296 -0.6160  0.9604 -1.6143
  719TIP3    H223649   5.771   3.130   0.366  0.9043 -0.2742 -1.0969
  720TIP3   OH223650   2.716   2.634  12.057 -0.2324 -0.6024  0.7948
  720TIP3    H123651   2.751   2.598  11.976  0.6418 -2.3422  1.8653
  720TIP3    H223652   2.776   2.704  12.081 -0.5982  0.0438 -0.1147
  721TIP3   OH223653   4.786   6.026  17.105  0.1409  0.2757  0.2803
  721TIP3    H123654   4.699   5.986  17.111  0.0054  0.6386  0.7641
  721TIP3    H223655   4.789   6.088  17.177  0.0728  1.7072 -0.9014
  722TIP3   OH223656   6.219   0.163   3.046 -0.7064 -0.2158 -0.0047
  722TIP3    H123657   6.257   0.116   3.120  1.1185  0.6270 -0.3588
  722TIP3    H223658   6.148   0.106   3.016  0.0843 -1.7432  0.8729
  723TIP3   OH223659   0.874   4.000  15.332  0.3846 -0.0802  0.0588
  723TIP3    H123660   0.822   3.944  15.390 -0.8895 -0.2285 -1.1930
  723TIP3    H223661   0.965   3.980  15.355 -0.0000 -2.9619 -0.5819
  724TIP3   OH223662   2.450   0.924  11.885 -0.2751 -0.6874  0.5616
  724TIP3    H123663   2.508   0.886  11.951  0.7952 -2.1722 -1.1731
  724TIP3    H223664   2.426   0.851  11.829 -0.9888  0.5783 -0.8461
  725TIP3   OH223665   1.967   0.089   6.176  0.3638 -0.6468  0.1390
  725TIP3    H123666   2.022   0.022   6.135 -0.3242 -1.4919  0.5461
  725TIP3    H223667   1.929   0.045   6.253 -2.0602 -0.6454 -0.9422
  726TIP3   OH223668   6.122   4.252  15.368 -0.7644 -0.3761 -0.4700
  726TIP3    H123669   6.145   4.336  15.330 -1.2930 -0.3425 -0.7222
  726TIP3    H223670   6.194   4.232  15.428 -0.4866  0.1055 -0.6396
  727TIP3   OH223671   4.671   3.120  11.458  0.4918  0.4544 -0.4575
  727TIP3    H123672   4.765   3.101  11.464  0.3417 -0.3122 -0.4940
  727TIP3    H223673   4.643   3.077  11.377 -0.0960 -0.2249  0.0905
  728TIP3   OH223674   0.322   2.168  14.158  0.4941 -0.2073 -0.1503
  728TIP3    H123675   0.228   2.152  14.162 -0.2321  1.9303 -3.7757
  728TIP3    H223676   0.359   2.087  14.123 -0.4314 -0.1794 -1.2314
  729TIP3   OH223677   3.431   3.315  14.524  0.1212  0.3348 -0.5533
  729TIP3    H123678   3.447   3.245  14.462  2.1037 -1.1067  1.4213
  729TIP3    H223679   3.345   3.296  14.561  0.9225 -1.5403  0.4602
  730TIP3   OH223680   0.488   2.136  10.688  0.3619  0.0920 -0.1790
  730TIP3    H123681   0.574   2.171  10.667 -0.0194  1.2589  0.0993
  730TIP3    H223682   0.495   2.042  10.671  2.4669 -0.3240  2.4022
  731TIP3   OH223683   1.902   2.270  13.454  0.6183 -0.5995 -0.0067
  731TIP3    H123684   1.935   2.346  13.503  0.2453 -0.3261 -0.1860
  731TIP3    H223685   1.878   2.207  13.522  1.6129 -0.8491  0.1312
  732TIP3   OH223686   6.071   2.648   1.532  0.7224 -0.1645 -0.0404
  732TIP3    H123687   6.159   2.654   1.569  0.3816 -1.0148  0.9508
  732TIP3    H223688   6.013   2.652   1.608  0.0293 -2.5600 -0.3451
  733TIP3   OH223689   2.303   3.258  13.289  0.4435  0.3699  0.5198
  733TIP3    H123690   2.302   3.201  13.366  0.2190  0.9172  0.9254
  733TIP3    H223691   2.377   3.227  13.237  0.7680  0.1804  1.0926
  734TIP3   OH223692   2.729   2.962   0.905  0.5938 -0.1278 -0.1072
  734TIP3    H123693   2.695   3.031   0.849  0.7024 -0.8618 -1.1195
  734TIP3    H223694   2.657   2.939   0.963 -0.2397 -0.7589 -1.3415
  735TIP3   OH223695   5.425   3.457   1.744  0.6297 -0.6171  0.6133
  735TIP3    H123696   5.355   3.480   1.683  0.3052 -0.9862  0.8402
  735TIP3    H223697   5.421   3.524   1.812 -0.3847 -1.3698  1.3321
  736TIP3   OH223698   4.195   6.458  14.096  0.2360  0.2924  0.0795
  736TIP3    H123699   4.270   6.402  14.081 -0.5520 -0.9590  0.6569
  736TIP3    H223700   4.224   6.545  14.070  1.4556 -0.3950 -0.9265
  737TIP3   OH223701   1.161   4.759  13.291  0.0330 -0.1376 -0.6132
  737TIP3    H123702   1.179   4.852  13.284 -0.3287  0.1084  1.3282
  737TIP3    H223703   1.210   4.730  13.367 -3.7292 -0.4302  1.9586
  738TIP3   OH223704   0.391   1.718   4.020  0.2892 -0.0565  0.2659
  738TIP3    H123705   0.428   1.714   4.108 -0.7090 -0.7658  0.6740
  738TIP3    H223706   0.452   1.668   3.966 -0.2166 -1.5157  0.9871
  739TIP3   OH223707   2.809   6.161  13.060  0.3804 -0.1324  0.8810
  739TIP3    H123708   2.876   6.209  13.107  0.9280 -0.0205  0.0164
  739TIP3    H223709   2.852   6.133  12.979 -0.5352 -0.2883  0.4350
  740TIP3   OH223710   4.510   4.502  11.149 -0.0184 -0.2180 -0.2096
  740TIP3    H123711   4.487   4.571  11.086 -0.6410 -1.7577 -1.7531
  740TIP3    H223712   4.429   4.453  11.160  0.6806 -1.3309  0.0241
  741TIP3   OH223713   5.893   4.766  12.319 -0.1263  0.1311 -0.0255
  741TIP3    H123714   5.980   4.731  12.299  0.2359  0.6056  0.6836
  741TIP3    H223715   5.878   4.834  12.253 -0.3807 -0.6077 -0.7482
  742TIP3   OH223716   5.972   2.053   3.689 -0.0114 -0.0157 -0.1315
  742TIP3    H123717   5.962   2.119   3.620  1.3277 -0.0312 -0.3741
  742TIP3    H223718   6.065   2.028   3.685 -0.0951 -0.6196  1.1311
  743TIP3   OH223719   0.522   1.870   4.746  0.0475  0.1574  0.0177
  743TIP3    H123720   0.541   1.800   4.808 -0.0311 -1.0758 -1.3003
  743TIP3    H223721   0.435   1.849   4.712 -0.3886  1.4424  0.2952
  744TIP3   OH223722   0.277   5.059   1.504  0.0539 -0.2685  0.4047
  744TIP3    H123723   0.305   5.109   1.581  1.0191 -1.5464  0.9091
  744TIP3    H223724   0.225   4.987   1.539 -0.5813 -0.1568 -0.2607
  745TIP3   OH223725   1.626   0.285  15.616  0.1698  0.3108  0.3419
  745TIP3    H123726   1.704   0.327  15.579 -0.1025  0.2825 -0.2590
  745TIP3    H223727   1.563   0.283  15.545  0.0979 -0.9201  0.4174
  746TIP3   OH223728   1.745   6.364  16.176  0.0705 -0.1067  0.3475
  746TIP3    H123729   1.826   6.317  16.194  0.2091 -0.5723 -1.2875
  746TIP3    H223730   1.740   6.431  16.244  1.6440 -0.3016  0.6943
  747TIP3   OH223731   0.174   6.009   5.082 -0.4983  0.8852 -0.6134
  747TIP3    H123732   0.176   5.949   5.156 -0.2495  0.7842 -0.7026
  747TIP3    H223733   0.244   5.979   5.024 -0.8437  0.8169 -1.0064
  748TIP3   OH223734   2.413   5.981  15.150 -0.3398  0.4481  0.6150
  748TIP3    H123735   2.377   5.935  15.225  0.2078 -1.9585 -0.5042
  748TIP3    H223736   2.502   6.006  15.177 -1.1392  2.3063  1.7483
  749TIP3   OH223737   4.553   0.102   4.001 -0.0743 -0.3136  0.2709
  749TIP3    H123738   4.531   0.025   4.054 -3.9691 -0.6905 -1.5592
  749TIP3    H223739   4.471   0.153   3.998  1.5355  2.4090 -1.0477
  750TIP3   OH223740   6.482   3.912   4.951  0.2197 -0.5536  0.4045
  750TIP3    H123741   6.568   3.870   4.952  0.5514 -0.0019 -1.7029
  750TIP3    H223742   6.445   3.891   5.037  2.0330 -1.6486  0.9782
  751TIP3   OH223743   4.777   6.197   3.004 -0.0744 -0.3325  0.3864
  751TIP3    H123744   4.780   6.239   2.918 -0.2986 -2.9643 -1.0126
  751TIP3    H223745   4.684   6.188   3.024 -0.2053 -3.1272 -1.0060
  752TIP3   OH223746   5.159   1.187   5.411  0.0925  0.2715 -0.8566
  752TIP3    H123747   5.083   1.129   5.421  0.2733  0.2587  0.6342
  752TIP3    H223748   5.216   1.141   5.350 -0.5868 -0.2611 -1.1067
  753TIP3   OH223749   2.075   1.482   3.536 -0.1550 -0.5248 -0.2303
  753TIP3    H123750   2.024   1.513   3.461 -0.2527 -1.3678 -0.5282
  753TIP3    H223751   2.151   1.541   3.539  0.5884 -1.3130 -1.8799
  754TIP3   OH223752   3.856   4.733  12.554  0.3752 -0.2986 -0.5924
  754TIP3    H123753   3.923   4.752  12.489  0.2380 -0.5999 -0.8240
  754TIP3    H223754   3.773   4.738  12.506  0.0813  1.6316  0.0095
  755TIP3   OH223755   1.183   5.844  11.592  0.4621 -0.1372  0.8099
  755TIP3    H123756   1.120   5.910  11.620  0.1508 -0.9671  2.1707
  755TIP3    H223757   1.136   5.791  11.527  0.7860  1.0643 -0.4586
  756TIP3   OH223758   0.967   6.432   3.645 -0.3586 -0.6703 -0.4155
  756TIP3    H123759   0.953   6.363   3.580  0.2200 -0.4103 -0.8259
  756TIP3    H223760   1.039   6.485   3.609 -0.2706 -0.3136  0.2674
  757TIP3   OH223761   6.105   1.166   1.616 -0.2484 -0.7265  0.1624
  757TIP3    H123762   6.020   1.184   1.575  0.2395  2.1024  0.1664
  757TIP3    H223763   6.083   1.130   1.702 -1.5143  0.8348  0.5392
  758TIP3   OH223764   2.551   6.172  12.591 -0.0755  0.5756 -0.4149
  758TIP3    H123765   2.555   6.264  12.617 -2.3262 -0.0254  2.5158
  758TIP3    H223766   2.518   6.174  12.501  0.7265  2.6174 -0.7118
  759TIP3   OH223767   3.443   4.203  13.190  0.4280  0.1041 -0.3761
  759TIP3    H123768   3.497   4.275  13.222  0.9631 -1.1585  1.8210
  759TIP3    H223769   3.364   4.207  13.244  0.7509 -1.2771  0.2653
  760TIP3   OH223770   6.583   6.619  12.421  0.3924 -0.2457  0.0791
  760TIP3    H123771   6.492   6.611  12.450  0.1264 -1.3012 -0.9696
  760TIP3    H223772   6.592   6.552  12.353  0.9967  2.0666 -2.2636
  761TIP3   OH223773   3.479   2.331  13.765  0.2784  0.2531  0.7745
  761TIP3    H123774   3.468   2.240  13.794  0.9028  0.4270  1.5958
  761TIP3    H223775   3.437   2.334  13.679  1.9138 -1.2771 -0.1290
  762TIP3   OH223776   6.712   0.371  11.012 -0.3959 -0.1399  0.4545
  762TIP3    H123777   6.634   0.426  11.009 -0.2084  0.1531  0.9175
  762TIP3    H223778   6.752   0.383  10.926  0.0437  1.0457  0.8039
  763TIP3   OH223779   2.573   6.021  12.832 -0.1582 -0.5043  0.0923
  763TIP3    H123780   2.481   5.995  12.844 -0.1160 -1.0961 -0.7764
  763TIP3    H223781   2.569   6.093  12.769 -0.1013  0.2506  0.9197
  764TIP3   OH223782   0.474   3.972  11.726 -0.1202 -0.5308 -0.4467
  764TIP3    H123783   0.485   4.042  11.790 -2.5937 -2.2044  2.0304
  764TIP3    H223784   0.442   4.017  11.648  0.2375  1.2879  0.3870
  765TIP3   OH223785   4.603   4.263   2.918 -0.0601 -0.2162 -0.2583
  765TIP3    H123786   4.609   4.174   2.881 -0.6464  0.1339 -1.2345
  765TIP3    H223787   4.555   4.252   3.000  0.6863 -0.9259  0.0938
  766TIP3   OH223788   0.924   1.199   5.028 -0.3787  0.2784  0.1600
  766TIP3    H123789   0.834   1.216   4.999  0.0826  1.4997 -0.6334
  766TIP3    H223790   0.955   1.283   5.060  0.6111 -0.0483  0.0880
  767TIP3   OH223791   4.835   1.357   3.155  0.4086  0.3653 -0.5413
  767TIP3    H123792   4.789   1.441   3.148 -1.7245 -0.6882 -0.0460
  767TIP3    H223793   4.765   1.292   3.163  1.9949 -1.5001 -1.1056
  768TIP3   OH223794   3.029   2.741  15.838 -0.7314  0.0354  0.0853
  768TIP3    H123795   3.068   2.770  15.921  1.9225 -0.3380 -0.9293
  768TIP3    H223796   3.011   2.648  15.851  0.8028 -0.3098 -0.1011
  769TIP3   OH223797   0.270   1.086   1.177 -0.4984  0.1289  0.6984
  769TIP3    H123798   0.300   1.177   1.186  0.2810 -0.1479  0.9645
  769TIP3    H223799   0.190   1.093   1.125 -0.0003  0.9006 -0.0008
  770TIP3   OH223800   4.337   0.945   0.423 -0.2438  0.6289  0.6932
  770TIP3    H123801   4.428   0.973   0.413 -0.1212  0.0705  0.2278
  770TIP3    H223802   4.342   0.853   0.447 -0.7158 -0.1480 -1.9218
  771TIP3   OH223803   0.037   4.076   2.214  0.0370  0.0122  0.3885
  771TIP3    H123804  -0.002   4.148   2.263  1.8161  0.7253  0.8633
  771TIP3    H223805   0.035   4.002   2.275  0.2752  0.3091  0.7636
  772TIP3   OH223806   6.626   0.755   3.456  0.3043 -0.3895 -0.1781
  772TIP3    H123807   6.563   0.817   3.417  0.2204  0.2995  1.0165
  772TIP3    H223808   6.643   0.692   3.386 -1.2875 -0.2725 -0.7139
  773TIP3   OH223809   1.397   6.264  17.157 -0.0832 -0.0679  0.1286
  773TIP3    H123810   1.398   6.325  17.084  0.8108 -1.1751 -0.8153
  773TIP3    H223811   1.377   6.179  17.118  0.2821 -0.6640  1.1832
  774TIP3   OH223812   0.486   0.230  11.049 -0.2667  0.2209 -0.6213
  774TIP3    H123813   0.478   0.189  11.135 -0.7158  1.9212  0.2018
  774TIP3    H223814   0.579   0.226  11.028 -0.3362 -1.4528 -0.7284
  775TIP3   OH223815   0.979   0.836  12.194 -0.1717 -0.7550  0.0058
  775TIP3    H123816   0.951   0.792  12.114 -1.6817  0.8502 -0.4038
  775TIP3    H223817   0.951   0.927  12.183  0.3290 -0.3045  2.0038
  776TIP3   OH223818   2.079   6.253   4.162  0.1188 -0.0449  0.3921
  776TIP3    H123819   2.098   6.162   4.137  1.2479  0.1637  0.4739
  776TIP3    H223820   2.089   6.254   4.257 -0.7822 -0.0279  0.5007
  777TIP3   OH223821   0.851   1.471  14.585  0.0068 -0.3008  0.3995
  777TIP3    H123822   0.851   1.482  14.490  1.1439 -0.2375  0.3950
  777TIP3    H223823   0.759   1.477  14.610 -0.2470  0.3217 -0.6283
  778TIP3   OH223824   5.174   1.918  16.277  0.5180  0.4112 -0.9454
  778TIP3    H123825   5.187   1.945  16.367  0.2150 -1.2546 -0.3772
  778TIP3    H223826   5.079   1.925  16.263  0.1939 -1.8155 -0.2529
  779TIP3   OH223827   2.698   1.541  11.401  0.2933 -0.9277 -0.2825
  779TIP3    H123828   2.644   1.575  11.472  0.6049 -1.9651  0.4840
  779TIP3    H223829   2.788   1.562  11.426  0.3073  0.3796 -1.3242
  780TIP3   OH223830   1.669   2.553  16.736  0.8023  0.2155  0.1530
  780TIP3    H123831   1.718   2.629  16.768  2.2356 -1.0545  1.0961
  780TIP3    H223832   1.662   2.495  16.812  0.2303 -0.8438 -0.6876
  781TIP3   OH223833   4.968   3.569  11.249  0.0441 -0.7030 -0.3920
  781TIP3    H123834   5.060   3.595  11.246 -0.4088  1.1168  0.0050
  781TIP3    H223835   4.921   3.648  11.222 -1.4102 -1.5560 -0.4104
  782TIP3   OH223836   3.264   2.676   6.712  0.2477 -0.1930 -0.0212
  782TIP3    H123837   3.213   2.746   6.671  0.2559 -0.5417 -0.6302
  782TIP3    H223838   3.330   2.722   6.764  0.2309  0.2496 -0.3867
  783TIP3   OH223839   4.196   1.985   6.419 -0.3956 -0.0682  0.2385
  783TIP3    H123840   4.190   1.965   6.512  1.2741  0.7639  0.5666
  783TIP3    H223841   4.287   1.968   6.396 -0.8206 -0.4561 -1.3076
  784TIP3   OH223842   0.600   0.485   0.160  0.5735  0.0843 -0.2155
  784TIP3    H123843   0.608   0.503   0.067  4.9750  0.3811  0.0403
  784TIP3    H223844   0.544   0.556   0.193 -0.3718  0.4540 -2.4200
  785TIP3   OH223845   0.746   0.395  10.240  0.5143 -0.1448 -0.2712
  785TIP3    H123846   0.830   0.422  10.202  1.2630  0.1579  1.5305
  785TIP3    H223847   0.729   0.460  10.308 -1.0146 -0.4142 -0.3750
  786TIP3   OH223848   4.095   1.106  16.634 -0.9925 -0.3820  0.1026
  786TIP3    H123849   4.068   1.175  16.696 -0.1773 -1.0116  1.1913
  786TIP3    H223850   4.031   1.112  16.563 -1.5538  0.8158  0.6682
  787TIP3   OH223851   6.142   1.062  10.594  0.0313  0.4964  0.9135
  787TIP3    H123852   6.192   1.084  10.516 -0.4894 -0.6967  0.2063
  787TIP3    H223853   6.188   0.987  10.632 -0.7506 -0.1076  0.6981
  788TIP3   OH223854   4.610   0.393   3.115 -0.3322  0.0826 -0.2952
  788TIP3    H123855   4.580   0.309   3.151  1.7462 -0.9550 -0.7734
  788TIP3    H223856   4.683   0.418   3.173  1.6558 -0.5193 -2.3831
  789TIP3   OH223857   0.544   4.358  13.292  0.5180  0.9619 -0.0139
  789TIP3    H123858   0.464   4.367  13.240  1.3122  1.7418 -1.1536
  789TIP3    H223859   0.516   4.310  13.370 -0.4474 -1.4685 -1.7426
  790TIP3   OH223860   2.207   6.199  16.482  0.3376  0.7399  0.3919
  790TIP3    H123861   2.211   6.111  16.446  1.0984  0.2974  1.5132
  790TIP3    H223862   2.280   6.245  16.442  1.4209  0.1358  1.5796
  791TIP3   OH223863   1.794   1.030   4.627 -0.3602  0.0350 -0.5421
  791TIP3    H123864   1.807   1.056   4.536  0.1206 -1.8514 -1.0685
  791TIP3    H223865   1.707   0.989   4.628 -0.5040  0.3432 -0.0746
  792TIP3   OH223866   1.013   3.566   4.217  0.2319  0.1185  0.3934
  792TIP3    H123867   1.007   3.623   4.141  1.7455  1.7857  1.4514
  792TIP3    H223868   0.983   3.480   4.185 -1.6485  1.3289 -1.3717
  793TIP3   OH223869   5.875   0.052   0.272  0.3944 -1.0840  0.1278
  793TIP3    H123870   5.814  -0.012   0.309  1.2031 -1.3318  1.0873
  793TIP3    H223871   5.829   0.088   0.196 -1.4939 -0.3052  1.5505
  794TIP3   OH223872   6.601   5.058  16.070 -0.4057  0.1150  0.5602
  794TIP3    H123873   6.581   5.131  16.129  0.9879  0.4994  0.6059
  794TIP3    H223874   6.654   5.098  16.000 -2.7549 -0.1398 -1.4914
  795TIP3   OH223875   5.482   3.940  14.494 -0.2715  0.2832  0.6868
  795TIP3    H123876   5.468   3.972  14.583 -0.8624  0.6192  0.4782
  795TIP3    H223877   5.577   3.946  14.481 -0.3971  2.6093  0.4307
  796TIP3   OH223878   4.827   6.076  14.943  0.0443  0.2654  0.2685
  796TIP3    H123879   4.820   6.168  14.918  1.4794  0.2340 -0.3585
  796TIP3    H223880   4.897   6.074  15.009  0.5319 -0.4443 -0.2492
  797TIP3   OH223881   0.395   3.527   5.746 -0.6024 -0.1381  0.0091
  797TIP3    H123882   0.404   3.465   5.674  0.0462 -0.5328  0.4228
  797TIP3    H223883   0.468   3.588   5.734 -1.0407  0.3648 -0.2000
  798TIP3   OH223884   5.341   2.256  14.038  0.2024 -0.2574  0.6967
  798TIP3    H123885   5.282   2.303  13.979  1.5577  0.9337  0.2226
  798TIP3    H223886   5.428   2.275  14.004  1.0145  0.1646  2.8916
  799TIP3   OH223887   5.756   3.427  16.013  0.0159  0.6959  0.6056
  799TIP3    H123888   5.733   3.348  15.964 -0.9849 -0.0430  2.1760
  799TIP3    H223889   5.838   3.457  15.973 -0.0180 -0.6622 -0.5612
  800TIP3   OH223890   4.098   6.700  13.107  0.7066  0.0870  0.1593
  800TIP3    H123891   4.148   6.647  13.169 -1.4500 -1.6028  0.5844
  800TIP3    H223892   4.067   6.637  13.042 -2.5214  0.5634  1.0428
  801TIP3   OH223893   3.181   1.648  15.482  0.4689  0.2862  0.5963
  801TIP3    H123894   3.134   1.616  15.559  0.8482  2.2722  1.7261
  801TIP3    H223895   3.261   1.595  15.479 -0.5931 -1.3877  0.1338
  802TIP3   OH223896   6.397   4.449  11.476  0.2464  0.0176  0.2446
  802TIP3    H123897   6.367   4.475  11.389 -0.7184  1.6234  0.9919
  802TIP3    H223898   6.450   4.523  11.506  0.3978 -0.4195  1.1009
  803TIP3   OH223899   6.551   1.172   5.257  0.5009  0.0193 -0.1262
  803TIP3    H123900   6.583   1.202   5.342  0.0813  0.9010 -0.2720
  803TIP3    H223901   6.526   1.252   5.211 -1.1364 -0.5584 -0.3173
  804TIP3   OH223902   5.365   2.549   2.778  0.0457  0.0407 -0.2491
  804TIP3    H123903   5.330   2.479   2.723  1.4692 -0.3798 -0.6629
  804TIP3    H223904   5.345   2.521   2.868  0.3965 -0.7828 -0.4205
  805TIP3   OH223905   2.881   6.368  14.004 -0.2235 -0.9994 -0.2060
  805TIP3    H123906   2.808   6.394  13.947  0.8649  0.7163 -0.8949
  805TIP3    H223907   2.847   6.380  14.093 -1.0194 -0.9468 -0.5099
  806TIP3   OH223908   5.856   6.109   3.251 -0.1779 -0.8140 -0.0761
  806TIP3    H123909   5.874   6.191   3.203  0.1043 -1.2942 -0.8106
  806TIP3    H223910   5.761   6.099   3.245 -0.0142 -1.7629 -2.1003
  807TIP3   OH223911   4.124   3.880   3.264 -0.3058  0.0817 -0.0736
  807TIP3    H123912   4.141   3.974   3.259 -1.8865  0.4461  0.7166
  807TIP3    H223913   4.077   3.868   3.346  2.6401 -1.9045  1.5223
  808TIP3   OH223914   4.582   3.814  11.579 -0.0054  0.0765 -0.4799
  808TIP3    H123915   4.524   3.784  11.509 -0.3372  0.7067 -0.4792
  808TIP3    H223916   4.651   3.861  11.533 -0.9488  1.6877 -0.3204
  809TIP3   OH223917   6.687   1.530  14.981  0.1581 -0.0376  0.1920
  809TIP3    H123918   6.626   1.495  15.047 -1.0139 -0.1835 -0.9130
  809TIP3    H223919   6.687   1.463  14.912  0.2747  0.7322 -0.5667
  810TIP3   OH223920   3.257   4.953   6.254  0.0105  0.0347  0.0823
  810TIP3    H123921   3.171   4.926   6.283 -0.1879 -0.1970 -0.6885
  810TIP3    H223922   3.295   4.875   6.214  0.4526  0.2157  0.1385
  811TIP3   OH223923   1.209   1.916  12.570  0.5383 -0.2089 -0.3740
  811TIP3    H123924   1.208   1.998  12.619 -0.0244 -0.5422  0.1954
  811TIP3    H223925   1.301   1.900  12.550  0.9057 -0.5647  1.4604
  812TIP3   OH223926   0.825   3.594  16.806 -0.0157 -0.6028 -0.2926
  812TIP3    H123927   0.810   3.681  16.769  2.4163 -1.3534 -3.5042
  812TIP3    H223928   0.765   3.537  16.759  0.3201 -1.0371 -0.2052
  813TIP3   OH223929   3.939   3.241  14.085 -0.4224 -0.5862 -1.4412
  813TIP3    H123930   4.025   3.262  14.049  0.1221 -0.9444 -0.3978
  813TIP3    H223931   3.939   3.145  14.092  0.0272 -0.4861  0.6873
  814TIP3   OH223932   6.206   4.706   2.337  0.7396  0.0829  0.2681
  814TIP3    H123933   6.137   4.771   2.355  1.5956  0.9128  0.6447
  814TIP3    H223934   6.206   4.698   2.242 -0.2381 -0.3449  0.2840
  815TIP3   OH223935   6.700   6.408  13.055 -0.0017  0.4839  0.0337
  815TIP3    H123936   6.634   6.353  13.096 -0.2781  1.6693  1.2683
  815TIP3    H223937   6.783   6.366  13.075 -0.1892  0.6444  1.2037
  816TIP3   OH223938   4.215   2.164   1.868  0.3197  0.5669 -0.5224
  816TIP3    H123939   4.265   2.102   1.922 -0.3862  0.9872  0.6474
  816TIP3    H223940   4.281   2.209   1.816  1.0185  0.1097 -0.0536
  817TIP3   OH223941   6.824   2.159  12.093 -0.2005 -0.4592  0.5428
  817TIP3    H123942   6.794   2.244  12.125 -0.2832 -0.7798  1.3368
  817TIP3    H223943   6.826   2.103  12.170 -0.6487 -1.3313 -0.0490
  818TIP3   OH223944   1.137   3.676  16.620  0.1642 -0.1728 -0.0105
  818TIP3    H123945   1.212   3.668  16.561 -0.3758 -0.4538 -0.6706
  818TIP3    H223946   1.149   3.761  16.663  0.2422  0.3339 -0.9975
  819TIP3   OH223947   2.917   2.109   3.221 -0.4409  0.6809  0.1996
  819TIP3    H123948   2.975   2.040   3.188 -1.5264  0.2349 -0.8567
  819TIP3    H223949   2.942   2.187   3.172  1.4245  1.3486  2.0515
  820TIP3   OH223950   3.878   3.940   4.484 -0.1901  0.5604  0.1599
  820TIP3    H123951   3.893   4.018   4.537  0.7021  0.7507 -0.3483
  820TIP3    H223952   3.954   3.885   4.499 -2.1495 -1.6771  2.8941
  821TIP3   OH223953   6.332   3.210   4.934  0.4239 -0.3115  0.2785
  821TIP3    H123954   6.392   3.206   4.860  3.4955 -1.1199  2.5871
  821TIP3    H223955   6.301   3.121   4.945 -0.1072 -0.1727 -0.0684
  822TIP3   OH223956   4.014   3.730   1.578 -0.1759  0.5729  0.2458
  822TIP3    H123957   3.966   3.704   1.657  0.1933  0.9731  0.6136
  822TIP3    H223958   4.050   3.648   1.544  0.2922  0.4750  0.9295
  823TIP3   OH223959   0.109   6.295  13.077  0.3693  0.1416 -0.2243
  823TIP3    H123960   0.189   6.258  13.113  0.6928  2.0509  1.1984
  823TIP3    H223961   0.098   6.252  12.992  1.4935 -2.0069  0.6397
  824TIP3   OH223962   5.175   3.368  15.868 -0.0013  0.8064 -0.4342
  824TIP3    H123963   5.262   3.328  15.877  0.1649  0.7805 -2.0107
  824TIP3    H223964   5.192   3.462  15.874  0.2858  0.8498 -1.7891
  825TIP3   OH223965   0.711   3.386  11.639 -0.2187  0.4370  0.0402
  825TIP3    H123966   0.649   3.335  11.691 -1.2940 -0.1062 -1.6745
  825TIP3    H223967   0.710   3.473  11.678 -0.5821 -0.0915  1.2317
  826TIP3   OH223968   3.242   5.804   5.975 -0.3474  0.1136 -0.0675
  826TIP3    H123969   3.266   5.876   6.033 -0.2214 -0.5473  0.7374
  826TIP3    H223970   3.278   5.827   5.890  2.6192 -0.5026  0.9185
  827TIP3   OH223971   6.604   3.225  14.224  0.2728 -0.2075  0.1431
  827TIP3    H123972   6.564   3.165  14.288  1.3016  0.0793  1.0892
  827TIP3    H223973   6.530   3.267  14.181 -0.4933 -2.2334 -0.6334
  828TIP3   OH223974   3.636   5.083  11.343  0.0741  0.3641  0.2034
  828TIP3    H123975   3.716   5.096  11.292  0.4334 -0.1435  0.6237
  828TIP3    H223976   3.572   5.049  11.281 -0.2811  2.1563 -0.4713
  829TIP3   OH223977   2.237   0.500  11.938 -0.2278 -0.2301 -0.1450
  829TIP3    H123978   2.211   0.540  11.856 -1.9973 -0.8644  0.0647
  829TIP3    H223979   2.218   0.566  12.005 -1.7616 -0.8079  0.0432
  830TIP3   OH223980   0.854   2.689  15.569 -0.3469  0.3780  0.4717
  830TIP3    H123981   0.766   2.677  15.603 -0.1338 -2.7275  0.1984
  830TIP3    H223982   0.860   2.628  15.495  2.1090  0.2391  0.6806
  831TIP3   OH223983   1.860   6.404  12.437  0.0503 -0.0460  0.6588
  831TIP3    H123984   1.931   6.466  12.425 -0.5478  0.2677 -1.9964
  831TIP3    H223985   1.784   6.446  12.396 -0.5129 -2.2107 -0.7080
  832TIP3   OH223986   1.366   3.911   2.887  0.0688 -0.1417  0.3069
  832TIP3    H123987   1.410   3.972   2.946 -0.3813  1.1787 -0.6576
  832TIP3    H223988   1.387   3.824   2.921  3.5735  0.3647 -0.2109
  833TIP3   OH223989   6.347   0.764  16.572 -0.0524 -0.4753 -0.4312
  833TIP3    H123990   6.401   0.838  16.542 -0.8840  0.2700 -0.1211
  833TIP3    H223991   6.328   0.715  16.492  0.9165 -0.6463 -0.5735
  834TIP3   OH223992   5.618   2.049  16.398  0.0633  0.3286  0.6364
  834TIP3    H123993   5.549   2.060  16.332 -1.7000 -1.3660  2.0771
  834TIP3    H223994   5.570   2.037  16.480  2.1659  1.0478  2.0402
  835TIP3   OH223995   1.309   5.215   0.304  0.3721 -0.0736  0.1500
  835TIP3    H123996   1.360   5.249   0.230  1.1813 -0.1169  0.6756
  835TIP3    H223997   1.311   5.285   0.369  0.3665 -0.3558  0.4546
  836TIP3   OH223998   5.047   5.715  16.766  0.5764 -0.0040  0.8080
  836TIP3    H123999   5.075   5.794  16.811  0.0464  0.3405  0.5410
  836TIP3    H224000   5.118   5.697  16.703  0.0004  1.1534 -0.2280
  837TIP3   OH224001   1.508   5.620   3.550  0.0526 -0.0981  0.3205
  837TIP3    H124002   1.539   5.530   3.555  1.1990  0.2763  0.1913
  837TIP3    H224003   1.572   5.664   3.494 -0.5099  0.7937  0.3633
  838TIP3   OH224004   1.534   3.034  16.826 -0.7505 -0.2898 -0.0673
  838TIP3    H124005   1.442   3.009  16.817 -0.8175 -0.0902  0.0523
  838TIP3    H224006   1.531   3.127  16.848 -0.7037 -1.0221  3.7827
  839TIP3   OH224007   0.330   1.805  11.757 -0.1430 -0.4273 -0.2024
  839TIP3    H124008   0.243   1.766  11.766 -0.1170 -0.5223 -0.3552
  839TIP3    H224009   0.314   1.899  11.751 -0.4861 -0.5625 -3.0595
  840TIP3   OH224010   5.960   4.335   1.746  0.0366  0.3878  0.0935
  840TIP3    H124011   6.007   4.375   1.672 -1.0954 -0.3018 -1.0526
  840TIP3    H224012   5.886   4.291   1.705  0.0218 -1.0118  1.5452
  841TIP3   OH224013   0.452   0.044   3.470  0.4927 -0.4992 -0.0451
  841TIP3    H124014   0.451   0.062   3.376  0.8328  1.7266  0.2997
  841TIP3    H224015   0.545   0.036   3.492  0.3791 -1.8985 -0.0194
  842TIP3   OH224016   6.404   0.707  15.923  0.0967  0.1682  0.3093
  842TIP3    H124017   6.473   0.766  15.953 -0.6627  0.9925  0.4820
  842TIP3    H224018   6.392   0.729  15.831  0.6726 -0.5971  0.0434
  843TIP3   OH224019   5.138   3.285  12.537  0.4036  0.0501 -0.2215
  843TIP3    H124020   5.197   3.281  12.462  0.1237  1.4369 -0.5437
  843TIP3    H224021   5.054   3.314  12.500 -0.0761 -0.4782  0.4423
  844TIP3   OH224022   1.203   6.632  16.686  0.1815  0.1692 -0.1180
  844TIP3    H124023   1.216   6.606  16.595  0.4720  0.5901 -0.2024
  844TIP3    H224024   1.292   6.634  16.724  0.1537  0.8402 -0.0669
  845TIP3   OH224025   4.720   4.467   2.037 -0.2724  0.0738 -0.6967
  845TIP3    H124026   4.684   4.473   2.125 -0.2974  0.2869 -0.7226
  845TIP3    H224027   4.666   4.525   1.984 -0.8748 -0.7936 -1.0558
  846TIP3   OH224028   2.181   4.633   0.408  0.5553 -0.3154  0.4257
  846TIP3    H124029   2.252   4.589   0.455  0.5937 -0.2842  0.3971
  846TIP3    H224030   2.144   4.695   0.471  1.9382  1.2104 -0.1884
  847TIP3   OH224031   3.957   5.900   1.391 -0.5176  0.4658 -0.3026
  847TIP3    H124032   3.879   5.913   1.445 -0.4940 -0.2582 -0.0808
  847TIP3    H224033   3.957   5.806   1.372  0.8393  0.2938  0.5186
  848TIP3   OH224034   1.600   6.829  16.321 -0.2249 -0.3731 -0.4901
  848TIP3    H124035   1.657   6.902  16.296 -2.1546  1.1267 -0.7092
  848TIP3    H224036   1.538   6.867  16.382  0.6906 -2.6210  2.0415
  849TIP3   OH224037   2.940   6.006  14.986  0.2063  0.3160 -0.9988
  849TIP3    H124038   2.913   6.029  15.075 -1.3480 -1.5216 -0.9315
  849TIP3    H224039   3.012   5.944  14.998 -0.3674 -0.3552 -0.9979
  850TIP3   OH224040   3.022   4.014  16.959 -0.0166  0.3585 -0.3903
  850TIP3    H124041   3.057   4.098  16.929  1.3069 -0.7385 -2.1049
  850TIP3    H224042   3.099   3.964  16.985 -0.6633 -0.8125 -0.6837
  851TIP3   OH224043   4.450   3.769  11.353 -0.4621 -0.3520 -0.5358
  851TIP3    H124044   4.397   3.695  11.321 -1.3365  0.0783 -0.0891
  851TIP3    H224045   4.460   3.825  11.276 -1.7889  0.2232 -0.3122
  852TIP3   OH224046   0.187   5.895  11.584  0.1395 -1.0605  0.3836
  852TIP3    H124047   0.196   5.810  11.629  0.0714 -0.2994  1.9184
  852TIP3    H224048   0.143   5.951  11.649 -0.3378 -0.0105 -0.8181
  853TIP3   OH224049   3.682   2.871  13.134  0.4375  0.3907 -0.2691
  853TIP3    H124050   3.702   2.869  13.041  0.2088  0.3552 -0.3195
  853TIP3    H224051   3.765   2.853  13.178  0.6409  0.8978 -0.4512
  854TIP3   OH224052   3.083   4.423  15.814  0.3172 -0.2397  0.1859
  854TIP3    H124053   3.127   4.506  15.834  3.2580 -1.7297  0.5387
  854TIP3    H224054   3.145   4.377  15.756 -0.5579 -2.7187  1.0894
  855TIP3   OH224055   3.177   5.209  14.627 -0.2021 -0.5347 -0.1664
  855TIP3    H124056   3.139   5.142  14.683 -0.4910  0.5751  1.0350
  855TIP3    H224057   3.271   5.206  14.646 -0.0079 -1.5594 -1.2147
  856TIP3   OH224058   5.300   6.234   4.712  0.5086 -0.1958  0.2570
  856TIP3    H124059   5.278   6.232   4.805 -0.0407 -1.2875  0.1177
  856TIP3    H224060   5.216   6.228   4.667  0.7331  0.8120 -0.3287
  857TIP3   OH224061   3.215   0.174  12.718  0.0160  0.3428 -0.0847
  857TIP3    H124062   3.133   0.125  12.722 -0.2372  0.4935 -2.1953
  857TIP3    H224063   3.271   0.133  12.783 -1.4242 -0.3454  0.7740
  858TIP3   OH224064   0.697   4.936   5.158 -0.1573 -0.0788  0.4475
  858TIP3    H124065   0.706   4.961   5.066  0.6317  1.6745  0.9675
  858TIP3    H224066   0.673   4.843   5.155  1.0386 -0.3832 -1.4926
  859TIP3   OH224067   4.113   5.994   3.399  0.1293  0.3104 -0.0022
  859TIP3    H124068   4.184   5.931   3.411  0.3539  0.5702  0.0589
  859TIP3    H224069   4.157   6.073   3.365  0.1163  1.0352  1.6049
  860TIP3   OH224070   1.710   4.095   4.238  0.6781 -0.2105 -0.5656
  860TIP3    H124071   1.711   4.191   4.238 -0.8791 -0.1562 -0.8634
  860TIP3    H224072   1.625   4.073   4.199  1.1715 -1.7210 -0.8301
  861TIP3   OH224073   5.140   2.064  13.986  0.1298 -0.3137  0.3391
  861TIP3    H124074   5.150   2.074  13.891 -0.0003 -0.4988  0.3068
  861TIP3    H224075   5.211   2.117  14.023 -1.1419  1.6117  0.1955
  862TIP3   OH224076   6.564   5.400   3.693  0.3042  0.1841 -0.1385
  862TIP3    H124077   6.512   5.463   3.744  0.7963  0.8860 -0.4993
  862TIP3    H224078   6.583   5.329   3.755 -0.3422  0.3346  0.2404
  863TIP3   OH224079   5.802   1.922  14.547  1.2130 -0.0743 -0.7202
  863TIP3    H124080   5.731   1.888  14.602  0.2485  1.0404 -1.2340
  863TIP3    H224081   5.876   1.865  14.567  0.9765  0.3953  1.8792
  864TIP3   OH224082   4.446   1.982   5.004  0.6085  0.0419  0.3813
  864TIP3    H124083   4.442   2.078   4.998 -1.0666  0.1362  2.1730
  864TIP3    H224084   4.374   1.958   5.062  2.2165 -2.1401  1.6642
  865TIP3   OH224085   4.487   2.003   1.661 -0.2193 -0.3037 -0.1241
  865TIP3    H124086   4.400   1.985   1.695 -0.1298 -0.1128  0.2060
  865TIP3    H224087   4.530   1.917   1.658  0.1419 -0.1953  1.2724
  866TIP3   OH224088   0.207   2.846  11.501 -0.3665  0.1839 -0.4730
  866TIP3    H124089   0.253   2.924  11.532  1.9567 -0.8412 -1.1549
  866TIP3    H224090   0.169   2.872  11.417  1.5688  0.2472 -1.3784
  867TIP3   OH224091   1.728   1.141   1.306 -0.4623 -0.2967 -0.2858
  867TIP3    H124092   1.783   1.169   1.233 -0.6396 -1.6177 -0.9571
  867TIP3    H224093   1.738   1.046   1.309 -0.4356 -0.2742  1.4401
  868TIP3   OH224094   4.423   0.572  14.655  0.0675 -0.4063  0.4589
  868TIP3    H124095   4.454   0.613  14.735  0.5736  0.7124 -0.2791
  868TIP3    H224096   4.404   0.481  14.679 -0.3533  0.0592  1.9673
  869TIP3   OH224097   0.305   5.375  12.192 -0.2260 -0.2710 -0.6595
  869TIP3    H124098   0.375   5.371  12.127  0.0132 -1.9576 -0.3642
  869TIP3    H224099   0.265   5.288  12.188 -0.1887 -0.4328  1.4355
  870TIP3   OH224100   1.542   6.523  11.642 -0.0637  0.2278 -0.7269
  870TIP3    H124101   1.602   6.453  11.618 -1.8513 -1.2055 -1.1916
  870TIP3    H224102   1.485   6.485  11.708  1.2752  2.4423  1.9386
  871TIP3   OH224103   1.356   1.641   0.377  0.2944 -1.0408 -0.4233
  871TIP3    H124104   1.288   1.708   0.384  1.7453  0.4641 -0.1235
  871TIP3    H224105   1.312   1.560   0.402 -1.1481  0.0411  0.7416
  872TIP3   OH224106   5.408   0.274   2.010 -0.5632 -0.2636  0.4487
  872TIP3    H124107   5.421   0.216   1.935  0.0600  0.1288  0.2511
  872TIP3    H224108   5.373   0.216   2.078 -1.0885 -0.6297 -0.1195
  873TIP3   OH224109   0.021   3.005   1.879 -0.2872  0.0773  0.1133
  873TIP3    H124110  -0.047   2.938   1.891 -0.1388 -0.1639 -0.3635
  873TIP3    H224111   0.090   2.961   1.829 -0.4905  0.7769 -0.8218
  874TIP3   OH224112   2.039   1.779  13.639 -0.3749 -0.8917 -0.0690
  874TIP3    H124113   2.074   1.733  13.716 -1.4740  1.6877  2.1741
  874TIP3    H224114   2.114   1.789  13.581  1.0791 -1.0425  1.6760
  875TIP3   OH224115   5.450   3.561   3.586 -0.2090  0.5102  0.4025
  875TIP3    H124116   5.451   3.506   3.664  2.5779  0.1630  0.2468
  875TIP3    H224117   5.456   3.650   3.619 -1.3693  0.5310  0.5931
  876TIP3   OH224118   0.379   3.474   0.745 -0.1181  0.2217  0.2716
  876TIP3    H124119   0.285   3.459   0.731 -0.1234 -0.4963  0.9672
  876TIP3    H224120   0.386   3.566   0.770 -0.5619  0.4425 -0.3939
  877TIP3   OH224121   1.961   4.553   4.527  0.1197  0.2915  0.1964
  877TIP3    H124122   1.909   4.617   4.480 -0.7630  0.1760  0.9904
  877TIP3    H224123   2.051   4.588   4.523 -0.1171  0.8366 -0.5950
  878TIP3   OH224124   2.596   5.334   4.106  0.0156  0.1064  0.1984
  878TIP3    H124125   2.576   5.308   4.196 -1.5789  0.7524  0.0667
  878TIP3    H224126   2.647   5.414   4.115  0.0951  0.0195  0.5294
  879TIP3   OH224127   4.035   2.405   5.462 -0.4873 -0.3536  0.0002
  879TIP3    H124128   3.980   2.373   5.391 -3.2852  0.5617  1.6219
  879TIP3    H224129   3.996   2.370   5.542  1.7791 -0.2842  1.2515
  880TIP3   OH224130   4.264   5.289  16.366  0.0454 -0.2160  0.0376
  880TIP3    H124131   4.321   5.365  16.379  0.3895 -0.4092 -0.3331
  880TIP3    H224132   4.178   5.327  16.350 -0.2126  0.0654  1.8294
  881TIP3   OH224133   0.332   2.849   6.271 -0.3816 -0.0775 -0.0604
  881TIP3    H124134   0.317   2.944   6.275  1.2870  0.1578  2.5958
  881TIP3    H224135   0.404   2.833   6.332 -1.3588 -3.2127  0.4413
  882TIP3   OH224136   3.112   4.036   3.407  0.1238 -0.0760 -0.0022
  882TIP3    H124137   3.099   3.961   3.350 -2.2231  0.6993 -0.5960
  882TIP3    H224138   3.206   4.035   3.427  0.8491 -0.9810 -2.9876
  883TIP3   OH224139   3.709   3.320  11.461  0.1081  0.7569  0.6848
  883TIP3    H124140   3.642   3.387  11.471 -1.0355 -0.4053  1.1152
  883TIP3    H224141   3.669   3.240  11.497  0.1220 -0.9913 -2.8159
  884TIP3   OH224142   3.786   1.334  12.582  0.1184  0.0494  0.0536
  884TIP3    H124143   3.842   1.278  12.529  2.8809  0.9121  1.8367
  884TIP3    H224144   3.759   1.278  12.655  0.2481  0.1564  0.1845
  885TIP3   OH224145   4.145   3.522  12.536 -0.4675 -0.3447  0.1906
  885TIP3    H124146   4.152   3.485  12.624  0.1035 -0.4874  0.0926
  885TIP3    H224147   4.134   3.616  12.550  0.0332 -0.3177  0.4106
  886TIP3   OH224148   2.263   6.794   1.070 -0.4752 -0.0167  0.0687
  886TIP3    H124149   2.271   6.834   0.983 -1.2264 -0.3684 -0.1722
  886TIP3    H224150   2.345   6.748   1.083  0.7246  2.1377  0.6485
  887TIP3   OH224151   2.095   4.314   5.780 -0.1218  0.4330  0.0257
  887TIP3    H124152   2.009   4.306   5.737 -0.5173  0.2261  0.8253
  887TIP3    H224153   2.090   4.396   5.828  0.0392  0.3079  0.2591
  888TIP3   OH224154   4.513   3.360   0.612 -0.4054  0.6363  0.0655
  888TIP3    H124155   4.460   3.363   0.533 -1.7263  1.4056  0.9434
  888TIP3    H224156   4.485   3.436   0.663 -1.0160 -0.8815  2.1461
  889TIP3   OH224157   4.850   3.471   5.815 -0.2605 -0.5736  0.6255
  889TIP3    H124158   4.835   3.426   5.732  2.8027 -0.0589 -0.3269
  889TIP3    H224159   4.800   3.552   5.808  0.6496 -0.1232 -1.1229
  890TIP3   OH224160   2.195   5.439  14.771 -1.0794  0.4469 -0.2856
  890TIP3    H124161   2.250   5.421  14.846 -0.8494  0.6169 -0.4109
  890TIP3    H224162   2.134   5.506  14.801 -1.2560  0.2141 -0.1286
  891TIP3   OH224163   0.405   4.815   2.056 -0.3770 -0.2858  0.0564
  891TIP3    H124164   0.311   4.806   2.071 -0.3356  1.2117  1.4951
  891TIP3    H224165   0.445   4.785   2.137  0.3350 -0.0192 -0.1911
  892TIP3   OH224166   6.781   5.725  16.948 -0.0517 -0.3319  0.2985
  892TIP3    H124167   6.838   5.798  16.973 -0.4753 -0.2393  0.9953
  892TIP3    H224168   6.834   5.647  16.963  0.5356 -0.1739 -0.7979
  893TIP3   OH224169   2.707   2.226  11.410 -0.3310 -0.0550  0.0505
  893TIP3    H124170   2.802   2.220  11.408  0.0782  3.7528 -0.4261
  893TIP3    H224171   2.678   2.195  11.325  0.5278 -0.7935  0.0225
  894TIP3   OH224172   3.205   3.760  12.248  0.5741 -0.0053 -0.0161
  894TIP3    H124173   3.211   3.824  12.318 -1.9978  2.1831 -1.5974
  894TIP3    H224174   3.282   3.777  12.193  2.5103 -1.6231  2.0026
  895TIP3   OH224175   6.450   6.305  11.709 -0.2094  0.1511  0.0295
  895TIP3    H124176   6.534   6.349  11.720 -0.1103  0.1232 -0.5812
  895TIP3    H224177   6.394   6.371  11.669 -0.2062 -0.1150 -0.4240
  896TIP3   OH224178   3.037   0.388   4.634 -0.0448 -0.1305 -0.2924
  896TIP3    H124179   2.953   0.383   4.680 -0.5702  1.2951 -1.0328
  896TIP3    H224180   3.102   0.363   4.700 -1.0625 -1.8097  0.1392
  897TIP3   OH224181   1.286   0.296  11.757  0.0057 -0.0042  0.1049
  897TIP3    H124182   1.217   0.341  11.805 -0.7203  0.2204 -1.1287
  897TIP3    H224183   1.245   0.216  11.724  0.6710 -0.4647  0.3525
  898TIP3   OH224184   5.400   5.934   5.197  0.1042 -0.0432 -0.1167
  898TIP3    H124185   5.353   5.985   5.262 -0.4875 -0.6204 -0.0825
  898TIP3    H224186   5.338   5.867   5.169 -0.4012  1.3295 -2.6960
  899TIP3   OH224187   1.916   1.231  14.436 -0.0700  0.2365 -0.2492
  899TIP3    H124188   1.993   1.287  14.440  0.1934 -0.1816  1.1846
  899TIP3    H224189   1.842   1.291  14.427  0.4211  0.6123 -2.3550
  900TIP3   OH224190   6.552   0.690   3.693 -0.3731 -0.2312  0.6876
  900TIP3    H124191   6.607   0.760   3.729 -0.6563 -0.1402  0.9399
  900TIP3    H224192   6.588   0.675   3.606 -0.7736  0.7407  0.3403
  901TIP3   OH224193   1.134   2.450   1.452 -0.1990  0.3027  0.1095
  901TIP3    H124194   1.131   2.430   1.358 -1.1586 -0.0663  0.2109
  901TIP3    H224195   1.076   2.525   1.462 -1.2164 -0.5251  0.6077
  902TIP3   OH224196   1.033   2.044   3.459  0.5086 -0.0361  0.5448
  902TIP3    H124197   1.009   2.137   3.451  2.2809  0.5358  1.3997
  902TIP3    H224198   1.038   2.028   3.553 -1.2332 -1.4405  0.4415
  903TIP3   OH224199   5.659   3.403  10.659  0.0419  0.0859 -0.9755
  903TIP3    H124200   5.596   3.335  10.636  1.2635 -1.1802 -0.7913
  903TIP3    H224201   5.613   3.460  10.721 -1.0971 -0.4237 -1.3339
  904TIP3   OH224202   5.151   4.194  16.817  0.3787  0.2596 -0.2108
  904TIP3    H124203   5.146   4.232  16.729 -2.6350 -2.3009 -1.3358
  904TIP3    H224204   5.173   4.102  16.802  1.4665  0.1134  1.9017
  905TIP3   OH224205   1.386   1.023  12.147  0.0411 -0.3914  0.9083
  905TIP3    H124206   1.347   0.962  12.209  1.3094  0.1337  2.2863
  905TIP3    H224207   1.461   1.060  12.194  1.6150 -0.6435 -1.2333
  906TIP3   OH224208   1.367   6.186  14.471  0.0377 -0.6510  0.0615
  906TIP3    H124209   1.449   6.207  14.517 -0.0808 -0.0251  0.0067
  906TIP3    H224210   1.395   6.149  14.387  0.2678 -0.4014  0.0266
  907TIP3   OH224211   6.007   2.605   4.761  0.0313  0.0072 -0.1662
  907TIP3    H124212   6.077   2.671   4.765  0.8189 -0.7865 -0.3168
  907TIP3    H224213   6.004   2.580   4.668 -1.8147  1.4183 -0.5416
  908TIP3   OH224214   5.799   3.537  14.443  0.0989 -0.4550 -0.4884
  908TIP3    H124215   5.744   3.570  14.372  0.0117  2.5986  0.8233
  908TIP3    H224216   5.873   3.598  14.445  0.6210 -1.0944  1.3400
  909TIP3   OH224217   1.655   1.288   1.576 -0.0519  0.2281 -0.5053
  909TIP3    H124218   1.660   1.215   1.514  1.2491  0.2757 -0.4785
  909TIP3    H224219   1.647   1.248   1.662  0.0275  0.1317 -0.5437
  910TIP3   OH224220   2.330   4.601   3.790 -0.1154 -0.1528  0.3837
  910TIP3    H124221   2.314   4.509   3.767  0.5163 -0.7999  2.3219
  910TIP3    H224222   2.424   4.605   3.807  0.1629  1.2754 -1.2817
  911TIP3   OH224223   5.493   3.667  16.190  0.1885  0.0862  0.2656
  911TIP3    H124224   5.514   3.619  16.110  1.5833  2.9049 -1.2046
  911TIP3    H224225   5.567   3.649  16.248 -1.3402 -2.8477  1.5059
  912TIP3   OH224226   6.387   2.978   0.592  0.5358 -0.0637  0.5415
  912TIP3    H124227   6.375   2.977   0.497 -0.7373  1.5397  0.6470
  912TIP3    H224228   6.362   2.890   0.620  0.2587 -0.3483 -0.5493
  913TIP3   OH224229   4.344   6.285   5.297  0.3017 -0.1651  0.4717
  913TIP3    H124230   4.298   6.360   5.332 -0.8439 -1.2102  1.2607
  913TIP3    H224231   4.410   6.323   5.238  0.6932  1.4998  1.9141
  914TIP3   OH224232   2.149   6.689  13.178  0.4140 -0.2977  0.1727
  914TIP3    H124233   2.120   6.767  13.130  1.1651 -0.0494  0.1016
  914TIP3    H224234   2.170   6.722  13.265  0.1249 -0.5413  0.3343
  915TIP3   OH224235   5.988   0.231   4.254  0.6301  0.3517 -0.1580
  915TIP3    H124236   6.046   0.161   4.226  0.9366  0.1221  0.9830
  915TIP3    H224237   6.011   0.245   4.346  0.1375  1.5177 -0.1981
  916TIP3   OH224238   2.146   3.704  14.892 -0.0294  0.8904  0.3536
  916TIP3    H124239   2.075   3.733  14.950  0.0738  2.8836 -0.4243
  916TIP3    H224240   2.212   3.669  14.951 -1.6683 -1.2124  1.0983
  917TIP3   OH224241   3.986   1.727   5.514 -0.3007 -0.2774 -0.5392
  917TIP3    H124242   3.967   1.708   5.606  2.2262 -0.8419 -0.0610
  917TIP3    H224243   3.934   1.805   5.495 -0.6416  0.0558  1.4706
  918TIP3   OH224244   5.504   1.749   0.372  0.1115  0.0497 -0.8146
  918TIP3    H124245   5.545   1.777   0.453 -1.3015  0.8266 -0.3261
  918TIP3    H224246   5.495   1.654   0.380 -0.0403  0.1290 -0.0458
  919TIP3   OH224247   2.399   5.843  16.824  0.3142 -0.3504 -0.0222
  919TIP3    H124248   2.469   5.789  16.860  0.8182 -0.0352 -0.5221
  919TIP3    H224249   2.352   5.785  16.764  0.4281 -0.4276 -0.0367
  920TIP3   OH224250   3.098   2.493   4.020  0.4455 -0.1683  0.2516
  920TIP3    H124251   3.159   2.469   3.949  0.9459  1.0063  0.2670
  920TIP3    H224252   3.065   2.579   3.995 -1.7260 -1.0421 -0.0719
  921TIP3   OH224253   0.895   5.411  14.699  0.2616  0.1961 -0.3923
  921TIP3    H124254   0.919   5.349  14.631 -0.6418 -0.1216 -0.4373
  921TIP3    H224255   0.800   5.401  14.708  0.3859  0.0881  1.0433
  922TIP3   OH224256   3.523   1.142   5.296  0.8149  0.6418 -0.3974
  922TIP3    H124257   3.542   1.235   5.303  1.6563  0.4696 -0.3657
  922TIP3    H224258   3.440   1.131   5.343  0.1797  1.5347 -1.2529
  923TIP3   OH224259   0.881   1.760  10.715 -0.0521 -0.0051 -0.0585
  923TIP3    H124260   0.844   1.721  10.794 -0.4096 -0.7855 -0.6043
  923TIP3    H224261   0.817   1.741  10.646  0.1741  0.8091 -0.5134
  924TIP3   OH224262   3.838   5.002   5.555 -0.4819  0.2437  0.1657
  924TIP3    H124263   3.805   5.084   5.592 -1.3776  0.9448 -2.0088
  924TIP3    H224264   3.771   4.937   5.577 -1.2656  0.7624 -0.6264
  925TIP3   OH224265   0.535   5.691   3.233 -0.2045 -0.1054  0.1815
  925TIP3    H124266   0.549   5.702   3.139 -0.3519  0.2087  0.1951
  925TIP3    H224267   0.507   5.778   3.263 -0.4283 -0.2756  0.4661
  926TIP3   OH224268   5.039   3.962  13.510 -0.1553  0.1326  0.0970
  926TIP3    H124269   4.957   3.916  13.524 -0.4112  0.6448  0.3037
  926TIP3    H224270   5.038   4.034  13.573  1.2038 -0.8123  1.2623
  927TIP3   OH224271   6.108   0.096  17.162 -0.2490  0.3481  0.2358
  927TIP3    H124272   6.059   0.040  17.101  0.1090 -0.3409  0.5753
  927TIP3    H224273   6.048   0.168  17.182 -0.5886  0.2716 -0.4645
  928TIP3   OH224274   6.734   6.602   4.757  0.4726 -0.4874 -0.3172
  928TIP3    H124275   6.738   6.668   4.826  0.4048 -1.3415  0.5217
  928TIP3    H224276   6.810   6.620   4.702  0.9148 -0.2251  0.3727
  929TIP3   OH224277   0.574   0.879   5.178  0.5579 -0.7241 -0.1787
  929TIP3    H124278   0.572   0.790   5.143 -0.7962 -1.2113  1.0206
  929TIP3    H224279   0.514   0.928   5.122  4.1815  0.5669 -3.3716
  930TIP3   OH224280   4.991   1.696   4.059  0.3634  0.0167  0.0151
  930TIP3    H124281   4.971   1.725   4.148 -0.4858 -0.1856 -0.0977
  930TIP3    H224282   5.068   1.746   4.034  0.1994  0.5833  0.6148
  931TIP3   OH224283   1.791   4.901  11.108  0.0594 -0.4127 -0.6669
  931TIP3    H124284   1.808   4.954  11.030  0.2601  0.4874 -0.0265
  931TIP3    H224285   1.697   4.910  11.123  0.1536  0.0743 -0.3465
  932TIP3   OH224286   2.720   2.398   1.586  0.3055  0.0473  0.2852
  932TIP3    H124287   2.804   2.370   1.624 -0.1059 -1.2540  0.2865
  932TIP3    H224288   2.665   2.321   1.591 -1.2404  1.1674  1.1895
  933TIP3   OH224289   0.827   2.166   1.844 -0.3640 -0.0080 -0.0477
  933TIP3    H124290   0.801   2.253   1.875 -1.3442 -0.5258  0.6212
  933TIP3    H224291   0.770   2.106   1.891  2.1302 -1.2477  1.6018
  934TIP3   OH224292   3.676   4.599  14.021 -0.6372  0.1255 -0.0564
  934TIP3    H124293   3.703   4.520  13.974 -0.4733 -1.6114  2.7443
  934TIP3    H224294   3.754   4.627  14.069 -1.3883  0.3563  1.0737
  935TIP3   OH224295   6.322   5.435  16.263  0.2749  0.3099 -0.3092
  935TIP3    H124296   6.311   5.361  16.322 -0.2303 -0.3901 -1.2503
  935TIP3    H224297   6.412   5.428  16.231  0.8502  1.2048  1.0151
  936TIP3   OH224298   0.165   2.224   4.277 -0.4946  0.4246  0.7323
  936TIP3    H124299   0.232   2.198   4.341 -0.5764 -0.5569  0.4383
  936TIP3    H224300   0.096   2.159   4.287 -1.0765  1.0036  0.5156
  937TIP3   OH224301   5.653   0.872  13.198 -0.5900  0.1151 -0.2591
  937TIP3    H124302   5.749   0.866  13.202 -0.5721  0.0727 -0.7001
  937TIP3    H224303   5.623   0.799  13.253 -0.3712 -0.0746 -0.3879
  938TIP3   OH224304   5.024   0.305   1.665  0.1438  0.2006 -0.2764
  938TIP3    H124305   5.020   0.236   1.599 -0.3282  0.4919 -0.5592
  938TIP3    H224306   4.976   0.378   1.627 -0.4532  0.2491  0.5356
  939TIP3   OH224307   0.253   6.013  15.317  0.2088 -0.4289  1.0702
  939TIP3    H124308   0.185   5.949  15.338  0.2682 -0.2511  1.8520
  939TIP3    H224309   0.334   5.963  15.314 -0.1296 -0.9460 -1.5443
  940TIP3   OH224310   2.152   4.421   6.478  0.2135  0.2272 -0.0840
  940TIP3    H124311   2.081   4.409   6.415 -0.0165  0.2751  0.1639
  940TIP3    H224312   2.138   4.510   6.512  0.8560  0.5351 -0.6087
  941TIP3   OH224313   6.428   4.649  13.958 -0.1955 -0.1741  0.8768
  941TIP3    H124314   6.412   4.721  14.018  0.3784 -0.5841  1.5322
  941TIP3    H224315   6.479   4.586  14.008  1.7757  0.2160 -0.5210
  942TIP3   OH224316   1.489   5.112  10.416 -0.1585  0.0500  0.1461
  942TIP3    H124317   1.498   5.172  10.490 -3.2451  2.4327 -1.1989
  942TIP3    H224318   1.526   5.161  10.342  1.9785 -1.8947 -0.1828
  943TIP3   OH224319   4.219   0.624  12.117  0.2807 -0.4485 -0.1786
  943TIP3    H124320   4.252   0.706  12.079 -0.7811 -0.8042 -2.0079
  943TIP3    H224321   4.124   0.635  12.118  0.0946 -1.7548 -0.7755
  944TIP3   OH224322   4.514   1.781   3.130 -0.0726 -0.7601 -0.2270
  944TIP3    H124323   4.489   1.776   3.037  0.9134  3.5878 -0.9234
  944TIP3    H224324   4.434   1.806   3.175  0.1845  0.6536 -0.5140
  945TIP3   OH224325   1.269   2.229   3.209  0.5708 -0.1563 -0.1466
  945TIP3    H124326   1.248   2.225   3.115 -0.0192 -0.5277 -0.0084
  945TIP3    H224327   1.299   2.319   3.223 -0.3464  0.2207 -0.4964
  946TIP3   OH224328   1.902   0.573   0.637 -0.2803  0.3495  0.3507
  946TIP3    H124329   1.883   0.665   0.621 -3.0790 -0.5006 -2.3586
  946TIP3    H224330   1.959   0.547   0.565 -1.8868 -0.5801 -0.6609
  947TIP3   OH224331   6.123   3.911   6.358  0.1298  0.4834  0.1302
  947TIP3    H124332   6.179   3.935   6.283 -3.0373  1.6664 -2.0885
  947TIP3    H224333   6.064   3.845   6.323 -0.0343 -0.6047  2.3292
  948TIP3   OH224334   3.369   2.253   0.142  0.0578 -0.1119 -0.2310
  948TIP3    H124335   3.451   2.294   0.112 -0.0159 -0.3123 -0.7086
  948TIP3    H224336   3.322   2.324   0.185  0.6649 -0.0909  0.4292
  949TIP3   OH224337   0.858   4.273   3.666  0.5117  0.5809 -0.2040
  949TIP3    H124338   0.903   4.191   3.645  0.5625  0.7320 -0.6804
  949TIP3    H224339   0.928   4.338   3.673  0.6870  0.2405  2.0208
  950TIP3   OH224340   1.162   4.727   1.168 -0.0526  0.1245 -0.0275
  950TIP3    H124341   1.154   4.818   1.196  0.0728 -0.0992  0.7338
  950TIP3    H224342   1.110   4.677   1.231 -1.5018 -0.1778 -1.3685
  951TIP3   OH224343   6.723   5.966  16.478  0.3345  0.9945  0.2701
  951TIP3    H124344   6.759   6.045  16.518 -0.6518  1.0501  1.0994
  951TIP3    H224345   6.701   5.991  16.389  0.2002  1.6090  0.4742
  952TIP3   OH224346   3.545   4.119   6.569 -0.3036  0.0376 -0.7069
  952TIP3    H124347   3.520   4.177   6.497 -2.1243 -0.6431 -0.6590
  952TIP3    H224348   3.622   4.073   6.536  0.7900  1.9422 -1.0021
  953TIP3   OH224349   5.637   4.908  13.003  0.7210  0.0083 -0.3034
  953TIP3    H124350   5.646   4.830  13.057  0.4335  0.2275  0.0667
  953TIP3    H224351   5.630   4.980  13.067  2.3639  0.4958 -0.6317
  954TIP3   OH224352   2.792   2.696  17.116 -0.2061  0.3981  0.3176
  954TIP3    H124353   2.728   2.647  17.167  1.6338 -1.1613  1.2558
  954TIP3    H224354   2.757   2.785  17.113 -2.8322 -0.5389 -0.0017
  955TIP3   OH224355   2.072   5.246  16.528 -0.4810  0.0017  0.5656
  955TIP3    H124356   2.012   5.183  16.566 -0.4955  0.1750  0.8293
  955TIP3    H224357   2.159   5.206  16.539 -0.5552 -0.3135  0.0546
  956TIP3   OH224358   5.703   6.324  12.404 -0.2714 -0.1497 -0.1482
  956TIP3    H124359   5.632   6.367  12.451  0.7562 -0.1836  1.5024
  956TIP3    H224360   5.660   6.254  12.354 -1.4251  0.0816  0.4927
  957TIP3   OH224361   5.828   0.576   1.481 -0.1102 -0.2744 -0.2895
  957TIP3    H124362   5.804   0.590   1.390 -0.4034  0.5267 -0.0972
  957TIP3    H224363   5.859   0.661   1.512 -0.2927 -0.4582  0.4364
  958TIP3   OH224364   0.532   6.517  16.562  0.0208 -0.3003 -0.4092
  958TIP3    H124365   0.553   6.424  16.553 -0.8340 -0.3632 -2.4991
  958TIP3    H224366   0.527   6.549  16.472 -2.2601  1.1564  0.1318
  959TIP3   OH224367   4.695   6.617  16.239 -0.0772 -0.0266  0.2945
  959TIP3    H124368   4.650   6.533  16.253  0.7402 -0.6578 -0.6892
  959TIP3    H224369   4.722   6.644  16.327  1.0695 -1.6225  0.4834
  960TIP3   OH224370   3.733   2.284  16.035 -0.2171  0.1178  0.0498
  960TIP3    H124371   3.682   2.267  16.115 -2.5133  1.4898 -1.0120
  960TIP3    H224372   3.773   2.369  16.051 -2.4972  1.4886 -0.9904
  961TIP3   OH224373   4.350   3.454   4.279  0.0045 -0.0931 -0.3272
  961TIP3    H124374   4.284   3.433   4.214  0.3690 -1.9184 -0.1576
  961TIP3    H224375   4.300   3.465   4.360 -0.2825  0.5409 -0.5852
  962TIP3   OH224376   6.435   4.770   1.060  0.1515 -0.9831  0.3443
  962TIP3    H124377   6.520   4.732   1.038  0.4926  0.8296 -1.8795
  962TIP3    H224378   6.423   4.839   0.995 -3.8551 -2.3334 -0.6397
  963TIP3   OH224379   0.004   0.072   0.427  0.2800 -0.1551  0.4600
  963TIP3    H124380  -0.045   0.009   0.374 -0.4421  0.5356  0.2911
  963TIP3    H224381   0.066   0.018   0.477  0.7351 -0.8575 -0.8044
  964TIP3   OH224382   1.959   5.163  16.208 -0.1325  0.1119 -0.3400
  964TIP3    H124383   2.054   5.162  16.218 -0.1205 -3.0521  0.3825
  964TIP3    H224384   1.926   5.135  16.293 -1.5983 -0.2789 -1.0131
  965TIP3   OH224385   5.463   6.752   6.449  0.2370  0.2645 -0.0239
  965TIP3    H124386   5.519   6.734   6.523  0.7951  0.2455 -0.4450
  965TIP3    H224387   5.508   6.712   6.374 -1.6956 -2.2811  0.0339
  966TIP3   OH224388   1.045   0.572   1.672 -0.1521  0.4878 -0.3053
  966TIP3    H124389   1.083   0.501   1.723 -1.3258  0.0728  0.0271
  966TIP3    H224390   1.048   0.540   1.581 -0.9822 -0.1524 -0.1230
  967TIP3   OH224391   3.703   6.494   0.779 -0.1413  0.3550  0.5835
  967TIP3    H124392   3.637   6.476   0.712  1.3664  1.0845 -1.1942
  967TIP3    H224393   3.751   6.411   0.788  0.2925  0.5350 -0.0097
  968TIP3   OH224394   0.618   1.072   3.868 -0.4073  0.7576  0.0599
  968TIP3    H124395   0.542   1.090   3.924 -1.5676 -0.6932 -0.9688
  968TIP3    H224396   0.685   1.039   3.928 -0.1391  3.0542  1.1483
  969TIP3   OH224397   2.545   3.862  13.706  0.4856 -0.0552  0.0068
  969TIP3    H124398   2.592   3.779  13.697  0.8547 -0.0209  1.5082
  969TIP3    H224399   2.585   3.920  13.641 -0.2800 -1.2485 -1.5930
  970TIP3   OH224400   1.148   2.643   3.673 -0.0566  0.0739 -0.1836
  970TIP3    H124401   1.098   2.564   3.694 -0.5678  0.7634  1.3545
  970TIP3    H224402   1.140   2.697   3.751  1.1381  1.2206 -0.8255
  971TIP3   OH224403   1.617   1.635  13.473 -0.3009  0.2190  0.2639
  971TIP3    H124404   1.563   1.650  13.395 -0.3163 -0.5000  0.1283
  971TIP3    H224405   1.555   1.608  13.541 -0.2835  0.8145  0.5234
  972TIP3   OH224406   1.465   4.536   1.058  0.5126 -0.1463  0.2391
  972TIP3    H124407   1.460   4.627   1.028 -1.0325 -0.0273  0.7280
  972TIP3    H224408   1.477   4.543   1.152  2.2618 -0.4874  0.0621
  973TIP3   OH224409   2.331   1.722  15.741 -0.5275 -0.3962  0.5021
  973TIP3    H124410   2.340   1.817  15.747  1.3830 -0.5708  1.0695
  973TIP3    H224411   2.275   1.699  15.816 -0.0877  0.1975  1.0294
  974TIP3   OH224412   0.266   3.824   4.442  0.1470  0.4750  0.2632
  974TIP3    H124413   0.308   3.887   4.500 -0.6619  0.7436  0.5811
  974TIP3    H224414   0.228   3.878   4.372  1.0224  0.1637 -0.4703
  975TIP3   OH224415   1.639   5.412   4.687 -0.2096 -0.4295  0.1197
  975TIP3    H124416   1.700   5.485   4.686  1.3176 -1.6462 -0.8423
  975TIP3    H224417   1.563   5.444   4.736  0.5763  1.6255  0.0794
  976TIP3   OH224418   6.604   2.619   1.001  0.0621 -0.2695  0.6284
  976TIP3    H124419   6.589   2.713   0.994  2.3828  0.0832 -1.1074
  976TIP3    H224420   6.699   2.611   1.011  0.2334 -2.4413 -1.5916
  977TIP3   OH224421   4.986   2.861   1.253  0.2810  0.2066  0.7019
  977TIP3    H124422   4.929   2.891   1.323  0.2221 -0.2737  0.8596
  977TIP3    H224423   5.071   2.902   1.272  0.3562 -0.1962  1.2460
  978TIP3   OH224424   1.897   5.428   4.093 -0.2697 -0.1446  0.8836
  978TIP3    H124425   1.898   5.374   4.014  1.5141  0.8532  0.1549
  978TIP3    H224426   1.833   5.497   4.075  0.5778  0.4483 -0.0072
  979TIP3   OH224427   0.797   5.347   6.507  0.5540  0.2350  0.3061
  979TIP3    H124428   0.809   5.428   6.457  0.2673  0.5566  0.7430
  979TIP3    H224429   0.711   5.315   6.479 -0.3084  1.2199  1.6603
  980TIP3   OH224430   2.529   0.206  15.591  0.1042  0.1788 -0.4599
  980TIP3    H124431   2.500   0.294  15.565 -2.8090 -0.6288 -0.3146
  980TIP3    H224432   2.482   0.147  15.532 -0.1547 -1.3588  1.1953
  981TIP3   OH224433   6.595   6.277  15.800 -0.7967 -0.1154 -0.2677
  981TIP3    H124434   6.619   6.273  15.893 -0.9269 -1.5707 -0.2656
  981TIP3    H224435   6.528   6.344  15.795 -1.7471 -0.9336  0.9426
  982TIP3   OH224436   2.245   2.029  16.183  0.3774 -0.2270  0.6785
  982TIP3    H124437   2.228   1.973  16.258 -3.2700  1.9652  1.7399
  982TIP3    H224438   2.174   2.009  16.122 -0.2387  2.1801  0.5151
  983TIP3   OH224439   0.603   2.482  11.536 -0.4056  0.0447  0.1703
  983TIP3    H124440   0.683   2.528  11.514 -0.6661  0.8979  0.9294
  983TIP3    H224441   0.532   2.543  11.514 -0.7950 -0.2961  0.4405
  984TIP3   OH224442   0.047   1.796  16.312 -0.1053 -0.1655 -0.5468
  984TIP3    H124443  -0.020   1.815  16.247  1.2054  0.9063 -1.6457
  984TIP3    H224444   0.024   1.850  16.388 -2.0039 -1.9050  0.2049
  985TIP3   OH224445   4.728   6.688  15.349  0.5270  0.5598  1.0037
  985TIP3    H124446   4.808   6.704  15.400  1.5408  1.3161 -0.7033
  985TIP3    H224447   4.760   6.672  15.260 -1.1187 -1.4396  0.7153
  986TIP3   OH224448   4.061   5.460  15.579 -0.1118  0.4360  0.1638
  986TIP3    H124449   4.114   5.426  15.507 -0.8017 -0.6287  0.1437
  986TIP3    H224450   3.974   5.424  15.564 -0.8136  1.9583  0.3322
  987TIP3   OH224451   3.512   0.639  13.119  0.5394 -0.6323 -0.1250
  987TIP3    H124452   3.448   0.579  13.079 -0.9560  0.7746  0.0211
  987TIP3    H224453   3.503   0.624  13.213 -1.3812  1.1823  0.0596
  988TIP3   OH224454   5.355   0.774   6.266  0.2167  0.0573 -0.4004
  988TIP3    H124455   5.419   0.825   6.318  0.6732 -0.5147 -0.3930
  988TIP3    H224456   5.295   0.737   6.331 -0.6836  1.3316 -0.4691
  989TIP3   OH224457   6.007   5.071   4.856  0.2813  0.2412  0.1887
  989TIP3    H124458   5.926   5.122   4.863  0.8959  1.2420  0.3400
  989TIP3    H224459   6.052   5.109   4.780  1.6613  1.3014  1.4683
  990TIP3   OH224460   0.459   1.244  11.857 -0.3492  0.3539  0.4096
  990TIP3    H124461   0.515   1.292  11.795  0.9319  1.5109  2.3392
  990TIP3    H224462   0.475   1.152  11.837  0.4394  0.6945 -0.6269
  991TIP3   OH224463   4.698   2.816  13.528  0.1570  0.0709 -0.2433
  991TIP3    H124464   4.736   2.859  13.451 -1.2686 -1.6160 -1.9853
  991TIP3    H224465   4.760   2.746  13.549 -1.1040 -1.7460 -2.1733
  992TIP3   OH224466   6.781   4.991   4.727  0.1583 -0.7812 -0.0767
  992TIP3    H124467   6.769   5.084   4.704  3.0230 -0.2580  0.2568
  992TIP3    H224468   6.800   4.991   4.821  0.6191 -1.6614 -0.1570
  993TIP3   OH224469   4.626   0.325   1.457  0.3954 -0.2567  0.3016
  993TIP3    H124470   4.560   0.388   1.483  1.8783  1.5208 -0.0258
  993TIP3    H224471   4.667   0.297   1.538  1.1762  0.9009  0.3317
  994TIP3   OH224472   5.115   1.609  17.150  0.2346  0.1772 -0.0657
  994TIP3    H124473   5.036   1.662  17.152  0.2087  0.1169  0.5325
  994TIP3    H224474   5.085   1.524  17.117  0.1315  0.2801 -0.2426
  995TIP3   OH224475   1.375   2.352  14.910  0.0833  0.0868 -0.2054
  995TIP3    H124476   1.400   2.261  14.924 -1.0722 -0.4508 -1.4536
  995TIP3    H224477   1.432   2.382  14.840 -0.9971 -0.3663 -1.3032
  996TIP3   OH224478   5.519   1.293  14.073 -0.3932 -0.3157  0.1802
  996TIP3    H124479   5.571   1.346  14.134 -0.6590 -1.0721  1.0877
  996TIP3    H224480   5.470   1.233  14.129 -0.5879 -1.0923 -0.7901
  997TIP3   OH224481   3.378   3.488   0.207 -0.2418  0.1447 -0.2587
  997TIP3    H124482   3.339   3.562   0.253  1.4277  0.6740  0.3532
  997TIP3    H224483   3.303   3.441   0.170 -1.3167  2.6674 -1.5523
  998TIP3   OH224484   0.355   3.520   2.686 -0.0535  0.2025 -0.7267
  998TIP3    H124485   0.432   3.499   2.739  0.0760  1.3836 -0.4188
  998TIP3    H224486   0.281   3.510   2.746 -0.0158  0.3556 -0.6534
  999TIP3   OH224487   1.481   2.191   0.427  0.4740  0.0785 -0.1121
  999TIP3    H124488   1.515   2.271   0.467  0.2150  0.9789 -1.6021
  999TIP3    H224489   1.558   2.146   0.394  0.6121 -0.2551  0.6451
 1000TIP3   OH224490   4.539   5.910   3.966 -0.2194  0.0449 -0.0519
 1000TIP3    H124491   4.564   5.859   3.889 -1.3705 -0.1048 -0.3487
 1000TIP3    H224492   4.602   5.884   4.033  1.0619  0.4872 -1.0388
 1001TIP3   OH224493   1.686   5.589  13.253 -0.3431 -0.0142 -0.1055
 1001TIP3    H124494   1.727   5.583  13.339  0.0981 -2.2139 -0.3903
 1001TIP3    H224495   1.638   5.506  13.244 -2.1915  1.0903 -1.1116
 1002TIP3   OH224496   2.523   1.843   6.286 -0.7711  0.3067  0.2086
 1002TIP3    H124497   2.519   1.750   6.309  1.4661  0.1086 -0.0014
 1002TIP3    H224498   2.445   1.857   6.232 -0.5515 -1.7351 -0.7486
 1003TIP3   OH224499   1.167   3.763   4.453 -0.0215 -0.1685 -0.2150
 1003TIP3    H124500   1.084   3.719   4.469  0.5086 -0.6793  1.4449
 1003TIP3    H224501   1.167   3.784   4.360 -1.3082 -1.5989 -0.5683
 1004TIP3   OH224502   6.800   1.974  16.530 -0.1347 -0.2341 -0.2154
 1004TIP3    H124503   6.771   2.062  16.507 -2.0751 -0.9645 -0.7988
 1004TIP3    H224504   6.802   1.974  16.626 -2.0059 -0.0600 -0.1333
 1005TIP3   OH224505   1.518   1.565  11.630 -0.8372 -0.8169 -0.6296
 1005TIP3    H124506   1.513   1.489  11.689 -1.8490 -0.2608  0.0317
 1005TIP3    H224507   1.455   1.627  11.666 -0.2907  0.1964 -1.3824
 1006TIP3   OH224508   2.504   1.007  16.383 -0.2904 -0.1264 -0.6330
 1006TIP3    H124509   2.423   1.038  16.344  0.7001  2.1594 -1.0244
 1006TIP3    H224510   2.502   1.038  16.473  0.3861  0.5057 -0.8199
 1007TIP3   OH224511   4.624   1.172   3.211 -0.2291 -0.2306  0.5498
 1007TIP3    H124512   4.582   1.134   3.133  0.1959  0.5450 -0.0783
 1007TIP3    H224513   4.622   1.102   3.276 -1.6967 -0.4885  0.2474
 1008TIP3   OH224514   3.824   1.587  11.967 -0.1530 -0.9073 -0.0375
 1008TIP3    H124515   3.755   1.534  11.928 -0.7848  0.5327 -0.9723
 1008TIP3    H224516   3.786   1.675  11.972  1.3126 -0.2629  0.2323
 1009TIP3   OH224517   6.772   6.811   5.911  0.0562 -0.6245  0.0162
 1009TIP3    H124518   6.680   6.788   5.926  0.6045 -2.8481  0.4375
 1009TIP3    H224519   6.816   6.726   5.900  2.3818  0.2331  1.7287
 1010TIP3   OH224520   1.078   0.301  15.786 -0.4885 -0.2061 -0.0930
 1010TIP3    H124521   1.015   0.372  15.771 -1.5373 -1.4148 -1.7900
 1010TIP3    H224522   1.079   0.252  15.704  1.4767 -1.1939  0.4588
 1011TIP3   OH224523   2.479   2.161  11.839 -0.2886 -0.1092  0.3920
 1011TIP3    H124524   2.412   2.114  11.889 -0.0559  0.3274  1.1301
 1011TIP3    H224525   2.526   2.213  11.904  1.1404 -0.8140 -0.0283
 1012TIP3   OH224526   2.120   4.424  12.133  0.0388 -0.0740 -0.3055
 1012TIP3    H124527   2.049   4.410  12.196  0.2615 -0.2327 -0.0862
 1012TIP3    H224528   2.197   4.389  12.176  0.0445 -0.9774 -1.0037
 1013TIP3   OH224529   0.891   5.056   6.012  0.4535  0.2636  0.0768
 1013TIP3    H124530   0.874   5.105   6.093  1.6711  0.7874  0.0372
 1013TIP3    H224531   0.982   5.077   5.990 -0.1703  1.0450 -2.0544
 1014TIP3   OH224532   0.552   4.405  15.749 -0.4103 -0.1821 -0.0811
 1014TIP3    H124533   0.587   4.376  15.833 -0.2486  1.4729  0.4426
 1014TIP3    H224534   0.583   4.338  15.687  0.1012 -1.0176  1.0310
 1015TIP3   OH224535   3.705   6.075   3.318 -0.1027 -0.0940 -0.0822
 1015TIP3    H124536   3.707   6.157   3.368 -1.1468  0.9422 -1.6539
 1015TIP3    H224537   3.648   6.093   3.244  0.3685 -1.9807 -0.9777
 1016TIP3   OH224538   3.074   0.077  14.582 -0.0534  0.3162 -0.4083
 1016TIP3    H124539   3.132   0.113  14.649  0.0029 -0.9013  0.2252
 1016TIP3    H224540   3.085   0.135  14.507  1.3631  0.5761 -0.0264
 1017TIP3   OH224541   6.698   1.292  14.208  0.3417  0.3822  0.0895
 1017TIP3    H124542   6.748   1.212  14.194  0.1526  0.5167 -1.5769
 1017TIP3    H224543   6.609   1.270  14.182  0.3548  1.1971 -0.7006
 1018TIP3   OH224544   4.815   4.452   0.119 -0.2150 -0.4117 -0.4645
 1018TIP3    H124545   4.842   4.410   0.038 -0.5125 -1.2043 -0.1662
 1018TIP3    H224546   4.887   4.511   0.141  0.5652 -1.3178 -0.5156
 1019TIP3   OH224547   6.640   5.406  11.679 -0.7049 -0.1309  0.1427
 1019TIP3    H124548   6.641   5.370  11.590  1.1252 -0.5304  0.2915
 1019TIP3    H224549   6.675   5.495  11.669 -0.3400 -0.2337  0.4755
 1020TIP3   OH224550   4.505   2.443  15.216 -0.2452  0.1389 -0.2321
 1020TIP3    H124551   4.483   2.535  15.203  0.8700  0.5134  0.3937
 1020TIP3    H224552   4.468   2.398  15.140 -1.1617  1.0345 -0.3348
 1021TIP3   OH224553   2.785   1.315   6.021 -0.0256  0.5358  0.1534
 1021TIP3    H124554   2.739   1.305   6.104  1.3736 -0.6767  0.8158
 1021TIP3    H224555   2.785   1.227   5.983  0.5499  0.7986 -0.4786
 1022TIP3   OH224556   5.640   2.270   1.889 -0.6009 -0.1363 -0.5067
 1022TIP3    H124557   5.621   2.180   1.860  2.0801 -1.0884  0.3658
 1022TIP3    H224558   5.617   2.270   1.982  1.6945 -0.8073  0.1458
 1023TIP3   OH224559   5.685   1.925   4.831  0.0833 -0.7145  0.4328
 1023TIP3    H124560   5.777   1.903   4.834  0.0138 -1.4132 -1.4404
 1023TIP3    H224561   5.654   1.891   4.747 -0.7689  3.5697 -1.3071
 1024TIP3   OH224562   2.137   1.806   4.550 -0.6118 -0.7344  0.5754
 1024TIP3    H124563   2.049   1.833   4.523 -1.1408 -2.5749  0.2729
 1024TIP3    H224564   2.122   1.729   4.605  0.7400  0.0305  2.0991
 1025TIP3   OH224565   5.079   2.523  16.932  0.1301 -0.4757  0.1066
 1025TIP3    H124566   5.013   2.454  16.940 -0.8293  0.5399  1.8541
 1025TIP3    H224567   5.035   2.601  16.967  1.7688  0.6030 -0.1335
 1026TIP3   OH224568   6.151   4.862   0.071  0.5857  0.5603 -0.6010
 1026TIP3    H124569   6.172   4.952   0.095 -0.5928  0.3109  1.6097
 1026TIP3    H224570   6.112   4.870  -0.016  2.8432  1.8243 -1.5815
 1027TIP3   OH224571   3.755   3.669  15.965  0.4179 -0.2954  0.1489
 1027TIP3    H124572   3.801   3.722  15.900  1.0201 -1.2139 -0.1972
 1027TIP3    H224573   3.665   3.701  15.963  0.0304 -1.3222 -2.2884
 1028TIP3   OH224574   3.356   3.840  15.041 -0.2234 -0.3124 -0.2322
 1028TIP3    H124575   3.274   3.882  15.016 -0.4763  0.4619  1.7928
 1028TIP3    H224576   3.418   3.868  14.973 -0.9712  1.3475 -0.2855
 1029TIP3   OH224577   0.544   4.106   1.548 -0.1167  0.1714 -0.0191
 1029TIP3    H124578   0.487   4.177   1.577  0.0900  1.0733 -1.7003
 1029TIP3    H224579   0.495   4.064   1.476  0.8030  0.2100 -0.6886
 1030TIP3   OH224580   0.763   2.694  11.263  0.2624  0.5984  0.0260
 1030TIP3    H124581   0.823   2.653  11.326  0.4600  0.5709 -0.1803
 1030TIP3    H224582   0.791   2.661  11.178  0.4003  1.1287 -0.1421
 1031TIP3   OH224583   0.586   6.634   5.777  0.1527  0.1749 -0.1171
 1031TIP3    H124584   0.614   6.704   5.718  1.3599  0.5244  0.8174
 1031TIP3    H224585   0.506   6.667   5.818  1.1309  1.4073  0.9060
 1032TIP3   OH224586   0.283   3.172   6.003 -0.3573  0.5604  0.8779
 1032TIP3    H124587   0.306   3.114   5.930  0.7359 -1.4778  2.7065
 1032TIP3    H224588   0.216   3.123   6.051 -1.2256  1.9705  1.1421
 1033TIP3   OH224589   3.547   1.951   6.135 -0.1036  0.0091  0.2519
 1033TIP3    H124590   3.518   1.861   6.147 -1.4285  0.4180  0.2475
 1033TIP3    H224591   3.568   1.982   6.223 -3.3596  0.8724  0.8652
 1034TIP3   OH224592   5.809   3.141   2.217 -0.4565 -0.3129  0.0093
 1034TIP3    H124593   5.782   3.232   2.200  0.9914  0.5451  1.8935
 1034TIP3    H224594   5.775   3.123   2.305  2.7926 -0.0151  1.4730
 1035TIP3   OH224595   5.863   5.551   0.939 -0.5031 -0.2203  0.6060
 1035TIP3    H124596   5.941   5.496   0.933 -1.2220 -1.0936 -1.6269
 1035TIP3    H224597   5.895   5.640   0.926  0.0699 -0.6379 -1.0587
 1036TIP3   OH224598   5.946   2.331   5.284 -0.2297  0.0917  0.4063
 1036TIP3    H124599   5.874   2.368   5.233 -0.7547 -0.6854  0.5612
 1036TIP3    H224600   5.908   2.311   5.369 -0.2233 -1.6342  0.0410
 1037TIP3   OH224601   1.223   5.263   1.552 -0.4920  0.3570 -0.5550
 1037TIP3    H124602   1.274   5.339   1.580 -2.2850  1.6933 -0.7495
 1037TIP3    H224603   1.132   5.290   1.562 -1.2137 -1.9770 -0.1195
 1038TIP3   OH224604   6.265   4.857  16.042  0.5326 -0.5404  0.1685
 1038TIP3    H124605   6.180   4.820  16.067  0.8753 -0.0541  2.2142
 1038TIP3    H224606   6.318   4.781  16.018 -0.7065 -0.7829 -2.1004
 1039TIP3   OH224607   2.056   0.754  14.663 -0.5108 -0.5872 -0.2451
 1039TIP3    H124608   2.029   0.707  14.585 -0.2738 -1.9055  0.4397
 1039TIP3    H224609   1.987   0.736  14.727 -0.2479 -0.2786  0.1326
 1040TIP3   OH224610   0.550   1.159   5.698  0.4844 -0.5013 -0.0198
 1040TIP3    H124611   0.462   1.195   5.710  0.9873  1.1690 -0.9720
 1040TIP3    H224612   0.591   1.167   5.785  0.2046  0.2049  0.0573
 1041TIP3   OH224613   4.607   5.941  14.798 -0.6870  0.3433 -0.8868
 1041TIP3    H124614   4.683   5.994  14.822  0.2131 -0.8154 -1.0368
 1041TIP3    H224615   4.643   5.873  14.741 -2.1326  0.7536 -2.3744
 1042TIP3   OH224616   2.448   0.364   4.856  0.3649  0.1612 -0.1036
 1042TIP3    H124617   2.357   0.391   4.863  0.2779  0.6993 -2.4187
 1042TIP3    H224618   2.449   0.302   4.783  0.9986 -4.2960  3.3003
 1043TIP3   OH224619   5.905   1.798   4.412  0.1086 -0.7431 -0.0841
 1043TIP3    H124620   5.833   1.851   4.447 -0.3434 -0.1435 -1.8301
 1043TIP3    H224621   5.964   1.787   4.487 -0.1889  1.5329  0.5818
 1044TIP3   OH224622   1.767   6.017   3.920  0.0307  0.1669  0.1710
 1044TIP3    H124623   1.862   6.012   3.905  0.0541  0.9662 -0.0077
 1044TIP3    H224624   1.731   5.942   3.873  0.2388  1.7709 -2.8083
 1045TIP3   OH224625   2.728   2.550   4.355  0.3847 -0.2905  0.0292
 1045TIP3    H124626   2.730   2.613   4.427  1.6485 -0.7881  0.4646
 1045TIP3    H224627   2.808   2.568   4.305 -0.7523  0.4322 -1.6228
 1046TIP3   OH224628   2.018   6.662  11.533 -0.1900  0.0748 -0.1449
 1046TIP3    H124629   2.103   6.705  11.529 -0.2856  0.2447 -0.4069
 1046TIP3    H224630   1.957   6.729  11.563 -0.2766  0.0249 -0.2065
 1047TIP3   OH224631   3.941   4.692   3.201 -0.3875  0.0809  0.3602
 1047TIP3    H124632   3.850   4.684   3.173 -1.1633  1.4489  2.2604
 1047TIP3    H224633   3.944   4.775   3.249  2.0331  0.4056 -0.2239
 1048TIP3   OH224634   2.290   0.157   0.235 -0.5842 -0.2003  0.2194
 1048TIP3    H124635   2.277   0.163   0.330 -0.4308  0.3566  0.2039
 1048TIP3    H224636   2.291   0.062   0.218  3.9128 -0.6417  1.4291
 1049TIP3   OH224637   5.355   1.126   0.792  0.0676  0.5056 -0.1034
 1049TIP3    H124638   5.288   1.112   0.860  0.0363  0.9810 -0.0360
 1049TIP3    H224639   5.419   1.057   0.808 -1.5445 -1.4607 -1.6088
 1050TIP3   OH224640   2.601   2.419  12.746 -0.7988 -0.0867 -0.6021
 1050TIP3    H124641   2.588   2.327  12.771  0.9906 -0.4591 -0.8610
 1050TIP3    H224642   2.513   2.454  12.736 -1.5327 -1.5949  0.1534
 1051TIP3   OH224643   0.075   2.515  14.923  0.0665 -0.9646 -0.3176
 1051TIP3    H124644  -0.004   2.467  14.900 -0.1013 -0.1301 -1.5798
 1051TIP3    H224645   0.117   2.534  14.839  1.8218 -1.7158  0.3289
 1052TIP3   OH224646   4.511   1.725  13.539  0.0633 -0.2240  0.0227
 1052TIP3    H124647   4.458   1.678  13.604 -0.9858  0.3994 -0.3670
 1052TIP3    H224648   4.553   1.795  13.588 -0.0738 -0.2534  0.1822
 1053TIP3   OH224649   2.680   4.480  13.546 -0.3714  0.1388 -0.3720
 1053TIP3    H124650   2.673   4.404  13.487  2.3631  0.8014 -1.6732
 1053TIP3    H224651   2.774   4.496  13.554 -0.8019  2.1286  1.5995
 1054TIP3   OH224652   2.837   3.752  16.644  0.7246  0.1613 -0.1448
 1054TIP3    H124653   2.879   3.721  16.724  0.8050  1.3685  0.3023
 1054TIP3    H224654   2.869   3.693  16.576  1.6460 -0.1186  0.5081
 1055TIP3   OH224655   5.109   3.540  14.529 -0.1023 -0.8826 -0.2149
 1055TIP3    H124656   5.159   3.468  14.569 -0.5071 -0.7831  0.5011
 1055TIP3    H224657   5.172   3.610  14.519 -0.1392 -0.6524  0.9652
 1056TIP3   OH224658   1.988   0.588   2.897 -0.8275 -0.3944  0.1290
 1056TIP3    H124659   1.895   0.606   2.910 -1.2257 -1.3947 -1.2054
 1056TIP3    H224660   1.992   0.497   2.870  0.4730 -0.1228 -0.6719
 1057TIP3   OH224661   0.208   3.960  13.241  0.4062 -0.0577  0.3642
 1057TIP3    H124662   0.219   4.039  13.295 -1.2693 -0.3914  1.2430
 1057TIP3    H224663   0.114   3.946  13.237  0.6102 -1.3535 -0.8054
 1058TIP3   OH224664   1.676   3.283   3.637 -0.5020  0.0977  0.0183
 1058TIP3    H124665   1.630   3.216   3.586 -2.1005  0.6025  0.7374
 1058TIP3    H224666   1.612   3.354   3.646  0.3771  0.7660  1.1782
 1059TIP3   OH224667   2.878   1.452  17.109  0.5015 -0.2757  0.4120
 1059TIP3    H124668   2.797   1.460  17.160  0.7246 -0.4536  0.7962
 1059TIP3    H224669   2.908   1.363  17.126  0.3068 -0.5149 -0.4417
 1060TIP3   OH224670   1.174   0.802   0.368 -0.1500 -0.3625 -0.0892
 1060TIP3    H124671   1.155   0.874   0.308  2.5701  1.1359  0.6731
 1060TIP3    H224672   1.225   0.740   0.316  2.0711  0.8619  0.5005
 1061TIP3   OH224673   6.124   2.541   0.529  0.2758  0.4770  1.1847
 1061TIP3    H124674   6.188   2.501   0.471  0.8810  1.0760  1.4220
 1061TIP3    H224675   6.043   2.493   0.513 -0.0217  1.6944 -1.3807
 1062TIP3   OH224676   5.721   5.400   3.464 -0.0054 -0.2610 -0.1492
 1062TIP3    H124677   5.692   5.433   3.549 -2.6950 -1.3749 -0.5259
 1062TIP3    H224678   5.662   5.442   3.401  0.6329 -0.9707 -1.2409
 1063TIP3   OH224679   4.621   2.749  11.919  0.0600 -0.4053 -0.0575
 1063TIP3    H124680   4.564   2.825  11.930  1.7114  1.0077 -0.6485
 1063TIP3    H224681   4.563   2.678  11.894 -1.5320  0.7040  0.3746
 1064TIP3   OH224682   3.500   1.696  13.490 -0.0214 -0.2942 -0.0325
 1064TIP3    H124683   3.423   1.647  13.517 -0.8932  0.5145 -0.9660
 1064TIP3    H224684   3.482   1.722  13.399  1.9718 -1.3295 -0.7991
 1065TIP3   OH224685   3.723   0.335  17.006  0.1024 -0.1897  0.4032
 1065TIP3    H124686   3.736   0.430  17.010 -0.2870 -0.1343  0.4210
 1065TIP3    H224687   3.779   0.300  17.075  1.2949 -0.0916 -0.4923
 1066TIP3   OH224688   5.076   3.056  15.745  0.4831 -0.2773 -0.5087
 1066TIP3    H124689   5.116   3.038  15.661 -0.3670  0.9065 -1.2044
 1066TIP3    H224690   5.074   3.152  15.751 -0.7207 -0.3175  0.2135
 1067TIP3   OH224691   5.005   0.292   2.900  0.2202 -0.4315 -0.0663
 1067TIP3    H124692   5.097   0.265   2.900 -0.2909 -2.3522 -0.8874
 1067TIP3    H224693   5.006   0.382   2.934  2.1980 -1.0138  1.5940
 1068TIP3   OH224694   6.293   6.826   1.728 -0.1290  0.2854 -0.1982
 1068TIP3    H124695   6.213   6.774   1.716  0.1698  0.0706 -1.3884
 1068TIP3    H224696   6.290   6.854   1.820 -0.9500 -0.7374  0.1063
 1069TIP3   OH224697   6.204   6.637  13.062  0.6646  0.0153 -0.1338
 1069TIP3    H124698   6.252   6.678  12.990  0.4100 -0.5318 -0.6254
 1069TIP3    H224699   6.194   6.706  13.127 -0.7416  1.0668 -1.4054
 1070TIP3   OH224700   3.049   0.576   1.601  0.3754  0.2590  0.0559
 1070TIP3    H124701   3.027   0.660   1.559  0.2711  0.4348  0.4626
 1070TIP3    H224702   3.114   0.537   1.543  0.7480  0.8188  0.0932
 1071TIP3   OH224703   3.740   2.163  12.233  0.2977 -0.6742  0.2699
 1071TIP3    H124704   3.802   2.099  12.197  1.1556  0.6679 -0.7876
 1071TIP3    H224705   3.659   2.147  12.185  0.8959 -0.1301 -0.9687
 1072TIP3   OH224706   1.411   3.947   4.921 -0.4349 -0.1472 -0.0016
 1072TIP3    H124707   1.502   3.944   4.891 -0.9384  0.5014 -1.7041
 1072TIP3    H224708   1.380   3.857   4.911 -0.4985 -0.0022 -1.1506
 1073TIP3   OH224709   3.932   5.050   0.614 -0.5296 -0.2756  0.0192
 1073TIP3    H124710   3.929   5.119   0.548 -0.3910 -0.2626  0.0271
 1073TIP3    H224711   3.972   5.091   0.690  0.4495 -0.6307 -0.2958
 1074TIP3   OH224712   5.875   3.993  11.587  0.2163 -0.0846  0.3159
 1074TIP3    H124713   5.943   3.979  11.522 -0.9759  1.0799 -1.2805
 1074TIP3    H224714   5.799   3.946  11.553  0.1232 -1.2204  1.9748
 1075TIP3   OH224715   0.449   1.536   4.247 -0.3016 -0.5930 -0.8659
 1075TIP3    H124716   0.514   1.480   4.206 -0.1927 -1.0471 -0.0824
 1075TIP3    H224717   0.460   1.522   4.341  1.3310  2.4795 -0.4638
 1076TIP3   OH224718   0.205   5.921  13.161  0.5453 -0.5992  0.0332
 1076TIP3    H124719   0.253   6.004  13.159 -1.1941  0.4372 -1.7197
 1076TIP3    H224720   0.207   5.891  13.071  0.1567 -1.9030  0.4419
 1077TIP3   OH224721   5.774   4.050  16.482 -0.3813  0.3214 -0.2025
 1077TIP3    H124722   5.853   4.101  16.500 -0.7068  0.3438  1.2323
 1077TIP3    H224723   5.709   4.114  16.453 -0.9733  0.8923  2.1596
 1078TIP3   OH224724   2.730   6.738   0.579  0.5188  0.3976 -0.4114
 1078TIP3    H124725   2.741   6.831   0.597 -1.0364  0.7431 -1.0334
 1078TIP3    H224726   2.635   6.724   0.585  0.6861 -1.0592 -0.7414
 1079TIP3   OH224727   3.183   4.648   3.375  0.6746 -0.2257  0.5484
 1079TIP3    H124728   3.205   4.559   3.401  1.6869 -0.7906 -1.9626
 1079TIP3    H224729   3.267   4.694   3.373  0.3088  0.4641  0.7092
 1080TIP3   OH224730   6.536   4.810   5.509  0.0767 -0.0888  0.1954
 1080TIP3    H124731   6.529   4.839   5.600 -0.6869  1.2519 -0.2556
 1080TIP3    H224732   6.595   4.873   5.468 -0.0090 -0.3623 -0.3580
 1081TIP3   OH224733   6.008   0.509  14.821 -0.2822  0.2640 -0.1155
 1081TIP3    H124734   6.055   0.543  14.746  1.5037  2.1585  1.7388
 1081TIP3    H224735   6.033   0.417  14.826  1.0473  0.5734 -0.7778
 1082TIP3   OH224736   5.946   4.664   3.027  0.4001  0.3937 -0.2625
 1082TIP3    H124737   5.994   4.615   3.093  1.3856 -0.9420 -1.9026
 1082TIP3    H224738   5.854   4.648   3.048  0.6157  1.2945  1.6727
 1083TIP3   OH224739   4.988   4.100   4.696 -0.0532 -0.6543 -0.5437
 1083TIP3    H124740   5.061   4.038   4.698 -0.0481 -0.7238 -2.1236
 1083TIP3    H224741   4.991   4.142   4.782  1.1991 -1.3969 -0.1929
 1084TIP3   OH224742   2.746   4.028   2.741 -0.2851 -0.1583 -0.2083
 1084TIP3    H124743   2.697   4.102   2.778  1.3714  0.9980 -0.2125
 1084TIP3    H224744   2.681   3.978   2.692 -1.7949  0.3107  1.2488
 1085TIP3   OH224745   1.254   2.090   5.589 -0.1216  0.8734 -0.2096
 1085TIP3    H124746   1.296   2.100   5.674 -1.3700 -1.5456  0.7950
 1085TIP3    H224747   1.164   2.063   5.609 -0.3525 -0.1217 -2.2715
 1086TIP3   OH224748   3.073   0.390   2.635 -0.0571 -0.7848 -0.3489
 1086TIP3    H124749   3.036   0.377   2.722  0.8189 -0.3455  0.0998
 1086TIP3    H224750   3.130   0.315   2.622  0.7644 -0.2289 -0.0241
 1087TIP3   OH224751   5.021   2.247  16.577 -0.2780  0.4973 -0.3489
 1087TIP3    H124752   4.939   2.246  16.626 -1.0973  0.4618 -1.6608
 1087TIP3    H224753   4.998   2.290  16.494  0.4125 -1.6868 -1.7636
 1088TIP3   OH224754   5.358   1.101   5.232  0.1819  1.0653  0.6230
 1088TIP3    H124755   5.421   1.168   5.204  0.9360  0.2120  0.2084
 1088TIP3    H224756   5.325   1.064   5.151  0.8643 -0.0439  0.8275
 1089TIP3   OH224757   5.414   2.965  11.331 -0.3788  0.0465 -0.2246
 1089TIP3    H124758   5.478   2.898  11.308  0.7096  1.0150 -0.0831
 1089TIP3    H224759   5.434   2.986  11.422 -1.9164 -0.7325  0.3307
 1090TIP3   OH224760   4.183   4.723  13.732  0.1624  0.4877  0.6868
 1090TIP3    H124761   4.206   4.674  13.654 -2.8699  1.4457 -0.9766
 1090TIP3    H224762   4.263   4.771  13.754  1.3097 -0.2973 -1.4483
 1091TIP3   OH224763   6.509   5.031   4.351 -0.6179 -0.0940  0.2637
 1091TIP3    H124764   6.452   5.005   4.278  1.0737  0.9093 -1.5118
 1091TIP3    H224765   6.505   4.957   4.412 -0.6893 -1.8085 -1.7053
 1092TIP3   OH224766   0.850   1.008  13.488  0.3350  0.0247 -0.0659
 1092TIP3    H124767   0.864   0.941  13.555 -2.3100 -0.5583  0.0111
 1092TIP3    H224768   0.882   0.969  13.407  1.7485 -0.0404  0.5046
 1093TIP3   OH224769   0.183   1.406  15.009 -0.3147 -0.1834  0.3700
 1093TIP3    H124770   0.119   1.423  15.078 -0.0568 -0.7065  0.7373
 1093TIP3    H224771   0.267   1.431  15.048 -0.3503  1.2392 -0.3624
 1094TIP3   OH224772   5.087   4.524  13.253 -0.3652  0.2096 -0.4436
 1094TIP3    H124773   5.152   4.498  13.188  1.1935 -0.5793  1.3308
 1094TIP3    H224774   5.008   4.475  13.229  0.7657 -1.6193 -0.5921
 1095TIP3   OH224775   0.806   1.190   6.311  0.4043 -0.2310 -0.7272
 1095TIP3    H124776   0.742   1.258   6.288 -1.8923 -1.4876  1.3595
 1095TIP3    H224777   0.786   1.118   6.250 -0.8340 -0.9248  0.4346
 1096TIP3   OH224778   3.526   6.765   4.797  0.2614 -0.5046  0.0958
 1096TIP3    H124779   3.538   6.704   4.725  0.0785 -0.7561  0.2740
 1096TIP3    H224780   3.583   6.731   4.867  1.4912  0.4989 -0.3785
 1097TIP3   OH224781   3.148   2.096   3.679 -0.8524 -0.3307 -0.6260
 1097TIP3    H124782   3.243   2.108   3.668 -0.9500 -0.0518 -1.2179
 1097TIP3    H224783   3.126   2.025   3.619 -0.9923 -0.4928 -0.3804
 1098TIP3   OH224784   2.058   5.707  16.893  0.0377 -0.1866  0.5121
 1098TIP3    H124785   2.032   5.761  16.818  0.8105 -0.5536 -0.0319
 1098TIP3    H224786   2.120   5.761  16.942  0.7151 -0.5182  0.0367
 1099TIP3   OH224787   1.886   0.612  15.118  1.3240  0.4837 -0.1328
 1099TIP3    H124788   1.850   0.602  15.030  0.9061  1.1626 -0.0526
 1099TIP3    H224789   1.851   0.696  15.149  0.7359 -0.1596  1.0296
 1100TIP3   OH224790   5.447   3.202  16.113  0.0444 -0.1716  0.4723
 1100TIP3    H124791   5.394   3.123  16.115 -3.4714  1.9620  0.9063
 1100TIP3    H224792   5.462   3.218  16.019 -2.0780  0.2603  0.1449
 1101TIP3   OH224793   0.617   5.696  16.175  0.1782  0.2326  0.1994
 1101TIP3    H124794   0.673   5.744  16.236  0.7431  0.6802 -0.6534
 1101TIP3    H224795   0.554   5.650  16.231  1.3534 -0.2237  1.1693
 1102TIP3   OH224796   0.709   0.987  15.518  0.5261  0.0469 -0.2735
 1102TIP3    H124797   0.769   0.919  15.486  0.1124 -0.6115  0.3008
 1102TIP3    H224798   0.741   1.008  15.606 -0.2453 -0.5414  0.1657
 1103TIP3   OH224799   0.377   3.300  14.315  0.7097 -0.0958 -0.5492
 1103TIP3    H124800   0.297   3.271  14.360  1.2234 -1.2908 -0.3782
 1103TIP3    H224801   0.421   3.219  14.290  0.8115  0.5331 -2.5771
 1104TIP3   OH224802   4.830   2.879   2.887 -0.3008  0.0955  0.9735
 1104TIP3    H124803   4.863   2.865   2.976 -0.4966 -0.4803  0.9629
 1104TIP3    H224804   4.785   2.797   2.866  1.0763 -0.4026 -0.2473
 1105TIP3   OH224805   4.976   1.372  13.219 -0.3818 -0.0418 -0.3051
 1105TIP3    H124806   5.038   1.372  13.292 -0.8297  0.3977  0.0883
 1105TIP3    H224807   5.030   1.377  13.141  0.1422 -1.2875 -0.0479
 1106TIP3   OH224808   0.524   6.571   2.808  0.1533  0.1230 -0.0581
 1106TIP3    H124809   0.451   6.616   2.764 -0.1512 -0.9330 -0.6718
 1106TIP3    H224810   0.489   6.547   2.894 -0.0064  0.2166 -0.0961
 1107TIP3   OH224811   0.857   6.044   1.147 -0.1413  0.1992  0.0288
 1107TIP3    H124812   0.852   6.044   1.243  0.9200  1.6700  0.1231
 1107TIP3    H224813   0.789   6.105   1.119  0.0942  0.4118 -0.0907
 1108TIP3   OH224814   5.094   6.450   4.646  0.1856 -0.1403 -0.2157
 1108TIP3    H124815   5.013   6.461   4.695  0.0200  0.3943 -0.6025
 1108TIP3    H224816   5.157   6.507   4.691  0.4922 -0.9323  0.3881
 1109TIP3   OH224817   1.995   4.589   4.011  0.4813  0.4923  0.0530
 1109TIP3    H124818   1.932   4.606   4.081  1.2562  1.5568  0.5355
 1109TIP3    H224819   1.990   4.495   3.996 -2.1762  0.7059 -0.8737
 1110TIP3   OH224820   5.941   0.758  11.553 -0.2526 -0.0251 -0.1542
 1110TIP3    H124821   5.856   0.796  11.573 -0.1468  0.3942 -0.4938
 1110TIP3    H224822   6.003   0.831  11.564  0.5379 -1.0061  3.3258
 1111TIP3   OH224823   5.405   6.028   4.335 -0.4201  0.0897 -0.0064
 1111TIP3    H124824   5.485   6.005   4.288 -1.4276 -1.0519 -1.2560
 1111TIP3    H224825   5.360   6.090   4.278 -0.6916  0.3068  0.4346
 1112TIP3   OH224826   5.896   4.805   2.486  0.3683  0.1259 -0.1758
 1112TIP3    H124827   5.932   4.887   2.453 -1.6374  1.4996  0.8971
 1112TIP3    H224828   5.803   4.822   2.500 -0.4689 -2.7719 -1.2799
 1113TIP3   OH224829   4.876   5.663   4.568 -0.0812  0.7846  0.9857
 1113TIP3    H124830   4.816   5.655   4.643  0.0079 -0.7340  0.9333
 1113TIP3    H224831   4.961   5.636   4.603 -0.0367  0.0708  0.3573
 1114TIP3   OH224832   3.014   0.917  15.592 -0.4980  0.0270 -0.3064
 1114TIP3    H124833   3.007   0.868  15.510 -1.1479  0.2656 -0.3985
 1114TIP3    H224834   3.106   0.940  15.597 -0.5154  0.3353 -1.1676
 1115TIP3   OH224835   2.349   1.334   0.908  0.2312  0.5653 -0.5629
 1115TIP3    H124836   2.430   1.296   0.876  0.6499  0.3513  0.6836
 1115TIP3    H224837   2.280   1.283   0.865  0.7788 -0.6653 -0.0294
 1116TIP3   OH224838   1.833   3.305  10.799  0.2293 -0.0961 -0.6778
 1116TIP3    H124839   1.895   3.351  10.742 -0.3048  0.8992 -0.4793
 1116TIP3    H224840   1.747   3.327  10.765 -0.0822  0.1293  0.2211
 1117TIP3   OH224841   0.834   0.487  11.789  0.0285 -0.1497 -0.1937
 1117TIP3    H124842   0.856   0.427  11.717 -0.2610 -0.4074 -0.0682
 1117TIP3    H224843   0.754   0.451  11.826  0.6575 -0.5190  0.8356
 1118TIP3   OH224844   3.988   1.101  15.529 -0.2551 -0.2395  0.7903
 1118TIP3    H124845   3.905   1.131  15.492  0.2620  0.1623 -0.0830
 1118TIP3    H224846   4.048   1.176  15.519  0.1425 -0.4285  1.6532
 1119TIP3   OH224847   2.358   0.664  15.338  0.0323 -0.2011 -0.3029
 1119TIP3    H124848   2.394   0.751  15.320 -2.4649  0.7217 -1.1577
 1119TIP3    H224849   2.341   0.627  15.251 -3.1015  0.3486 -0.0145
 1120TIP3   OH224850   0.754   1.504   1.469 -0.5801  0.1311 -0.8035
 1120TIP3    H124851   0.790   1.549   1.392 -0.4841  1.8657  0.1960
 1120TIP3    H224852   0.808   1.425   1.477 -0.0058  0.3694 -1.9901
 1121TIP3   OH224853   0.585   2.892   4.332  0.0583 -0.2266 -0.4104
 1121TIP3    H124854   0.573   2.799   4.314 -0.6229 -0.2529  0.1155
 1121TIP3    H224855   0.504   2.933   4.301  0.8655  0.3887 -1.8364
 1122TIP3   OH224856   6.173   2.575  16.416  0.6446  0.4800 -0.7924
 1122TIP3    H124857   6.141   2.594  16.504 -2.1354  0.9548 -1.8014
 1122TIP3    H224858   6.239   2.507  16.428  0.0793  0.2832  1.6179
 1123TIP3   OH224859   6.716   5.065  12.155  0.5637 -0.1962 -0.0974
 1123TIP3    H124860   6.688   5.130  12.219  0.8354 -0.9856  0.8542
 1123TIP3    H224861   6.637   5.013  12.138  0.2221  0.6634 -1.2298
 1124TIP3   OH224862   2.957   6.232   1.878  0.1443 -0.2080 -0.2991
 1124TIP3    H124863   2.989   6.321   1.893 -0.7350  0.0214  0.2695
 1124TIP3    H224864   3.036   6.177   1.883  0.4499  0.3248  1.1782
 1125TIP3   OH224865   3.020   0.017   1.334 -0.2582  0.0421  0.2585
 1125TIP3    H124866   2.991   0.095   1.288  0.0437  0.3839  0.6333
 1125TIP3    H224867   2.961   0.009   1.409 -0.8829 -0.6332 -0.2855
 1126TIP3   OH224868   3.393   3.091   4.482 -0.2471  0.1626  0.7504
 1126TIP3    H124869   3.302   3.074   4.456 -0.1998 -0.7959  1.1430
 1126TIP3    H224870   3.409   3.182   4.459 -1.1456  0.1862  0.1938
 1127TIP3   OH224871   2.394   2.326  12.499 -0.1914 -0.5452  0.2532
 1127TIP3    H124872   2.318   2.333  12.442  0.7041  0.6900 -0.8515
 1127TIP3    H224873   2.376   2.384  12.572  0.3249  1.0389 -0.8163
 1128TIP3   OH224874   4.059   5.509  16.019 -0.2109  0.2031 -0.4841
 1128TIP3    H124875   4.007   5.565  15.961 -0.6767  0.3526  0.0639
 1128TIP3    H224876   4.142   5.498  15.974 -0.9321 -0.5555 -1.6773
 1129TIP3   OH224877   3.405   2.011  15.905 -0.5261  0.0810  0.2564
 1129TIP3    H124878   3.413   1.931  15.853 -1.3827 -0.8135  1.4357
 1129TIP3    H224879   3.484   2.060  15.886 -0.2411 -0.7815 -0.9262
 1130TIP3   OH224880   0.624   5.327   0.662 -0.5360  0.2906 -0.4385
 1130TIP3    H124881   0.621   5.232   0.658 -0.2234  0.1738  1.2302
 1130TIP3    H224882   0.692   5.346   0.728  0.6900  1.7088 -2.0299
 1131TIP3   OH224883   0.181   2.873   2.539  0.4443  0.2703  0.5670
 1131TIP3    H124884   0.206   2.904   2.452  1.0201  0.5094  0.8137
 1131TIP3    H224885   0.262   2.842   2.578 -0.2466 -2.7126 -0.1038
 1132TIP3   OH224886   6.456   3.437  11.955  0.2316  0.0540 -0.5417
 1132TIP3    H124887   6.364   3.431  11.978  0.3165  0.6840 -0.0324
 1132TIP3    H224888   6.458   3.488  11.874 -0.1019 -2.5161 -2.2871
 1133TIP3   OH224889   0.194   5.103  13.685  0.9085 -0.2694  0.2096
 1133TIP3    H124890   0.113   5.058  13.707  1.6658 -1.3313  0.9707
 1133TIP3    H224891   0.195   5.180  13.741 -0.5305  0.9275 -1.2956
 1134TIP3   OH224892   4.558   5.868  14.380  0.2856 -0.1815 -0.1582
 1134TIP3    H124893   4.464   5.871  14.362  0.3361 -1.4783 -0.7028
 1134TIP3    H224894   4.598   5.914  14.306  0.0663  0.7983  0.3179
 1135TIP3   OH224895   1.363   3.422   3.026 -0.1567  0.0656 -0.0801
 1135TIP3    H124896   1.421   3.404   2.952 -1.1971 -1.0683 -0.6385
 1135TIP3    H224897   1.296   3.354   3.022 -0.4184  0.1711  1.7209
 1136TIP3   OH224898   5.008   3.690   5.637 -0.4358 -0.2093 -0.1643
 1136TIP3    H124899   4.948   3.736   5.579  0.0373  0.1148 -0.4074
 1136TIP3    H224900   5.023   3.750   5.710 -1.2335 -0.7201  0.4394
 1137TIP3   OH224901   1.959   2.481   4.823  0.4799  0.2916 -0.0488
 1137TIP3    H124902   1.935   2.402   4.775 -0.3714  1.3427 -1.4148
 1137TIP3    H224903   1.895   2.487   4.894  0.1975  0.0466 -0.2802
 1138TIP3   OH224904   0.959   5.212  14.014 -0.0238  0.4945  0.4512
 1138TIP3    H124905   1.022   5.163  13.962 -1.0523 -1.1143  0.6686
 1138TIP3    H224906   0.987   5.200  14.105 -0.4121  0.1061  0.5211
 1139TIP3   OH224907   4.055   5.346  13.228  0.0785 -0.5108 -0.6023
 1139TIP3    H124908   4.020   5.375  13.144 -1.0870 -2.1375 -0.7283
 1139TIP3    H224909   4.145   5.320  13.209  0.7105  1.5993 -0.7552
 1140TIP3   OH224910   4.418   2.563   0.285  0.4386  0.1934 -0.1239
 1140TIP3    H124911   4.448   2.600   0.201 -0.6565  0.9387 -0.1999
 1140TIP3    H224912   4.333   2.524   0.265 -0.9933  2.4682  1.0834
 1141TIP3   OH224913   1.725   0.831  12.268  0.2165  0.5659  0.0440
 1141TIP3    H124914   1.759   0.896  12.206 -0.0024 -1.4694 -2.4018
 1141TIP3    H224915   1.784   0.835  12.343 -0.1482  3.9099  0.3093
 1142TIP3   OH224916   0.401   2.164   6.054 -0.4715  0.4011  0.4333
 1142TIP3    H124917   0.441   2.181   5.968 -0.3964 -0.2883  0.3191
 1142TIP3    H224918   0.400   2.249   6.097  0.7776  0.5200  0.2906
 1143TIP3   OH224919   2.977   0.756   2.935  0.2339 -0.7707 -0.3524
 1143TIP3    H124920   3.069   0.781   2.936 -0.5244  2.3899 -0.9933
 1143TIP3    H224921   2.957   0.740   2.843 -0.4487  1.3145 -0.6173
 1144TIP3   OH224922   3.350   0.070   3.389 -0.1449  0.0237 -0.6727
 1144TIP3    H124923   3.322   0.159   3.410 -1.4529 -0.1529 -1.5258
 1144TIP3    H224924   3.314   0.054   3.301  0.3958 -1.2071 -0.6935
 1145TIP3   OH224925   2.097   5.713   4.084  0.1451 -0.3487  0.2073
 1145TIP3    H124926   2.032   5.747   4.023 -0.9147 -0.9682  0.9714
 1145TIP3    H224927   2.056   5.721   4.170  0.7192 -1.5694  0.6089
 1146TIP3   OH224928   1.322   1.324   5.133  0.6515 -0.4672 -0.0283
 1146TIP3    H124929   1.315   1.360   5.044  0.7145 -0.0487  0.1331
 1146TIP3    H224930   1.321   1.401   5.190 -1.0551 -0.7982  0.4533
 1147TIP3   OH224931   3.306   5.795  10.359  0.2463  0.3653  0.1989
 1147TIP3    H124932   3.217   5.832  10.361 -0.4593 -0.9770 -2.2365
 1147TIP3    H224933   3.294   5.706  10.327  2.6635  0.9812 -2.9305
 1148TIP3   OH224934   4.265   4.423   0.177 -0.2405 -0.1244 -0.1030
 1148TIP3    H124935   4.259   4.428   0.272 -2.1229 -1.9427 -0.0456
 1148TIP3    H224936   4.222   4.503   0.146  0.6849  0.6420  0.5527
 1149TIP3   OH224937   6.392   1.380  17.156  0.3692  0.3306 -0.8398
 1149TIP3    H124938   6.367   1.443  17.089 -0.2518  1.7657  0.6536
 1149TIP3    H224939   6.450   1.429  17.215  0.5133 -0.7278 -0.0646
 1150TIP3   OH224940   1.679   3.280   1.803  0.1549  0.0619  0.2252
 1150TIP3    H124941   1.737   3.214   1.842 -0.7456  0.1236  1.7331
 1150TIP3    H224942   1.617   3.228   1.750  0.6340 -0.1238 -0.1654
 1151TIP3   OH224943   1.152   0.684  14.733  0.1890  0.3519  0.1405
 1151TIP3    H124944   1.176   0.664  14.642  1.5817  0.4834  0.4661
 1151TIP3    H224945   1.155   0.780  14.738  0.5617  0.3241  0.4483
 1152TIP3   OH224946   4.743   4.046   0.242 -0.1059  0.0440 -0.2101
 1152TIP3    H124947   4.737   4.124   0.297 -0.2291 -0.1528  0.0624
 1152TIP3    H224948   4.836   4.034   0.227  0.1492 -1.2775  1.9939
 1153TIP3   OH224949   1.518   0.347  15.004  0.1909 -0.7292  0.5984
 1153TIP3    H124950   1.458   0.385  14.940  0.2440 -1.9968 -0.2528
 1153TIP3    H224951   1.501   0.395  15.085  0.6708  1.4580 -0.5214
 1154TIP3   OH224952   3.043   4.416  15.530  0.7268 -0.4440 -0.0756
 1154TIP3    H124953   2.991   4.346  15.570  0.9232 -1.8826 -2.1407
 1154TIP3    H224954   2.982   4.490  15.523 -0.1458 -1.1121  0.2121
 1155TIP3   OH224955   2.321   2.533   1.495 -0.6022  0.1443  0.5209
 1155TIP3    H124956   2.244   2.579   1.528 -0.2511  0.1765  1.3172
 1155TIP3    H224957   2.315   2.446   1.533  0.9810  0.8454  2.6141
 1156TIP3   OH224958   1.182   1.712   4.021 -0.6258  0.0021  0.5478
 1156TIP3    H124959   1.151   1.784   4.074 -0.3337  0.7791 -0.3029
 1156TIP3    H224960   1.128   1.715   3.942 -0.3021 -0.4119  0.3031
 1157TIP3   OH224961   2.331   2.467   4.773  0.2132 -0.1967 -0.3546
 1157TIP3    H124962   2.275   2.505   4.840  0.0589 -0.1543 -0.5088
 1157TIP3    H224963   2.413   2.516   4.780 -0.3536  0.9154 -1.2906
 1158TIP3   OH224964   5.810   2.108  12.580 -0.7356  0.0061 -0.5515
 1158TIP3    H124965   5.808   2.038  12.514  1.1144 -0.2088 -0.4367
 1158TIP3    H224966   5.739   2.086  12.640 -1.2160 -0.8698 -1.4036
 1159TIP3   OH224967   6.658   5.999   4.688  0.6665  0.3013  0.2945
 1159TIP3    H124968   6.626   6.025   4.602 -1.2265 -0.4417  0.7251
 1159TIP3    H224969   6.664   5.903   4.683 -1.3710  0.0594  1.5605
 1160TIP3   OH224970   2.007   1.075  11.296 -0.1888  0.3377 -0.6054
 1160TIP3    H124971   1.925   1.035  11.269 -0.3720  0.2253  0.1082
 1160TIP3    H224972   2.011   1.157  11.247 -1.2517  0.8557  0.1514
 1161TIP3   OH224973   5.575   0.720  13.396  0.4121 -0.3032  0.1779
 1161TIP3    H124974   5.552   0.747  13.485  1.2097  1.6558 -0.1457
 1161TIP3    H224975   5.575   0.624  13.399  0.6041 -0.2881  2.3259
 1162TIP3   OH224976   5.847   2.519   4.947  0.1839 -0.2842  0.4907
 1162TIP3    H124977   5.774   2.580   4.940 -0.6394 -1.4397 -2.0683
 1162TIP3    H224978   5.909   2.547   4.879 -0.4360 -2.4750 -1.0871
 1163TIP3   OH224979   6.051   4.629   2.621 -0.1046 -0.5114 -0.5681
 1163TIP3    H124980   6.097   4.691   2.678 -0.6467 -0.4692 -0.1614
 1163TIP3    H224981   5.998   4.684   2.564  1.0996 -0.5113 -1.7335
 1164TIP3   OH224982   6.239   0.556   0.526 -0.3565 -0.2551 -0.0480
 1164TIP3    H124983   6.290   0.481   0.496  0.6177  0.9433 -1.5621
 1164TIP3    H224984   6.166   0.562   0.466 -1.3291 -0.8889  1.0301
 1165TIP3   OH224985   3.753   2.676   3.389 -0.0543 -0.3724 -0.1567
 1165TIP3    H124986   3.681   2.733   3.415 -0.9103 -1.0980 -0.8631
 1165TIP3    H224987   3.739   2.596   3.439 -0.1523 -0.7775 -0.8317
 1166TIP3   OH224988   0.054   5.374   2.534 -0.1587  0.5903 -0.0904
 1166TIP3    H124989   0.021   5.351   2.447  1.5327 -0.1652 -0.5699
 1166TIP3    H224990   0.048   5.293   2.584  3.4197 -0.4506 -1.0252
 1167TIP3   OH224991   4.738   4.214   4.623  0.4256  0.6174  0.1152
 1167TIP3    H124992   4.807   4.148   4.623  1.1132  1.3145 -0.6388
 1167TIP3    H224993   4.691   4.199   4.540 -0.4494  0.0360  0.7017
 1168TIP3   OH224994   4.005   6.530  16.218 -0.4289 -0.6033  0.1156
 1168TIP3    H124995   3.940   6.469  16.182 -2.0509  0.9208  0.3347
 1168TIP3    H224996   4.046   6.568  16.140 -2.0086  0.6769 -0.1459
 1169TIP3   OH224997   3.873   4.026   4.206  0.4178 -0.3941  0.5407
 1169TIP3    H124998   3.886   3.951   4.147  1.3507  0.6332 -0.5967
 1169TIP3    H224999   3.892   3.990   4.293  1.9061 -1.2487 -0.0894
 1170TIP3   OH225000   2.346   4.313   3.823 -0.6926  0.8161  0.3950
 1170TIP3    H125001   2.309   4.358   3.899 -0.5996 -2.0244  2.2784
 1170TIP3    H225002   2.273   4.262   3.788 -0.0051 -0.2851  0.5242
 1171TIP3   OH225003   6.759   0.635  13.388  0.2447  0.0924 -0.0707
 1171TIP3    H125004   6.676   0.650  13.433  0.4220 -3.8206  1.9945
 1171TIP3    H225005   6.820   0.695  13.431 -0.6054 -0.2262  1.6751
 1172TIP3   OH225006   4.208   0.890   6.170 -0.4784 -0.2210 -0.1720
 1172TIP3    H125007   4.131   0.854   6.214  1.5137 -2.6715  1.5625
 1172TIP3    H225008   4.277   0.887   6.236  1.2351  1.6741 -1.7396
 1173TIP3   OH225009   4.956   6.338   1.120 -0.0263  0.3158 -0.8158
 1173TIP3    H125010   5.012   6.272   1.080 -0.3652  0.7372 -2.0280
 1173TIP3    H225011   4.877   6.291   1.145 -0.1726  0.2178 -1.4591
 1174TIP3   OH225012   1.791   2.000   1.539 -0.6763 -0.2127 -0.0036
 1174TIP3    H125013   1.760   1.909   1.543 -3.6965  0.7544  0.6541
 1174TIP3    H225014   1.790   2.029   1.630 -1.1199  0.9079 -0.3581
 1175TIP3   OH225015   5.910   1.962  13.188 -0.4875 -0.0176 -0.0854
 1175TIP3    H125016   5.959   2.021  13.131 -1.4335  0.9287  0.0502
 1175TIP3    H225017   5.931   1.993  13.277 -0.9140  0.0574 -0.0101
 1176TIP3   OH225018   5.695   3.068  12.615  0.3033  0.1733  0.0721
 1176TIP3    H125019   5.701   2.982  12.658  1.8975  0.8325  1.2876
 1176TIP3    H225020   5.602   3.088  12.616  0.1117 -0.5993  1.7819
 1177TIP3   OH225021   4.713   3.320   4.933  0.3684  0.0667 -0.4955
 1177TIP3    H125022   4.716   3.238   4.883  0.2205  0.1505 -0.6424
 1177TIP3    H225023   4.724   3.292   5.024 -0.7789 -0.2250 -0.4343
 1178TIP3   OH225024   0.474   0.276  15.164 -0.0331  0.2412  0.0436
 1178TIP3    H125025   0.495   0.183  15.155  0.2678  0.2905  0.2155
 1178TIP3    H225026   0.516   0.318  15.090 -1.7745  0.0059 -1.1449
 1179TIP3   OH225027   6.340   0.312   0.429  0.1885 -0.3896  0.0046
 1179TIP3    H125028   6.429   0.287   0.453  0.7362  1.7087  0.3000
 1179TIP3    H225029   6.325   0.271   0.344  1.3349 -0.9784  0.0702
 1180TIP3   OH225030   6.210   1.139  12.650  0.3007 -0.3087  0.5961
 1180TIP3    H125031   6.137   1.094  12.608 -0.1879 -0.0321  1.1446
 1180TIP3    H225032   6.279   1.073  12.656  0.3422 -0.3891 -0.5389
 1181TIP3   OH225033   2.560   1.160  14.763 -0.1259 -0.4520  0.5077
 1181TIP3    H125034   2.612   1.179  14.841  0.3127 -0.1525  0.1527
 1181TIP3    H225035   2.566   1.065  14.752  0.0502 -0.4597  0.6707
 1182TIP3   OH225036   1.111   2.781  15.617 -0.1557  0.5519  0.0126
 1182TIP3    H125037   1.124   2.703  15.671  1.6514  0.0542 -1.0751
 1182TIP3    H225038   1.030   2.764  15.569 -1.0271  0.3925  1.4521
 1183TIP3   OH225039   3.107   5.429  14.460  0.3905 -0.1087 -0.4492
 1183TIP3    H125040   3.114   5.357  14.522 -0.0236  0.0057 -0.2618
 1183TIP3    H225041   3.015   5.428  14.433  0.3546  0.4319 -0.3462
 1184TIP3   OH225042   4.728   5.872  13.697  0.3101 -0.1453 -0.1655
 1184TIP3    H125043   4.756   5.948  13.645  1.4259 -0.6160 -0.2858
 1184TIP3    H225044   4.633   5.879  13.699  0.2647  0.2233 -1.7814
 1185TIP3   OH225045   5.129   3.407   6.495  0.5279 -0.1598 -0.4001
 1185TIP3    H125046   5.066   3.368   6.556  0.3494 -2.0860 -1.7407
 1185TIP3    H225047   5.075   3.455   6.432  0.5080 -0.5375 -0.6712
 1186TIP3   OH225048   3.030   1.599   4.438 -0.2143  0.7578 -0.2583
 1186TIP3    H125049   2.993   1.583   4.351  0.9135  1.0728 -0.8162
 1186TIP3    H225050   3.107   1.654   4.421  1.8271 -1.6460  0.6138
 1187TIP3   OH225051   1.335   0.626  15.950  0.2844  0.8407  0.2822
 1187TIP3    H125052   1.251   0.608  15.991 -0.5735  0.5412 -1.4888
 1187TIP3    H225053   1.396   0.565  15.991 -0.9610 -0.8452 -0.2821
 1188TIP3   OH225054   5.767   2.546  14.554 -0.0843  0.5437 -0.2006
 1188TIP3    H125055   5.819   2.467  14.566 -1.0498 -0.4265 -2.0574
 1188TIP3    H225056   5.825   2.617  14.584  0.5370 -0.8569  2.1959
 1189TIP3   OH225057   1.899   1.044   5.088  0.0324  0.0931  0.4789
 1189TIP3    H125058   1.854   1.126   5.107 -0.8288 -0.6737  1.8472
 1189TIP3    H225059   1.873   1.023   4.998 -0.3003  0.9456  0.3644
 1190TIP3   OH225060   6.609   5.434  12.998 -0.3669  0.3352  0.1399
 1190TIP3    H125061   6.654   5.422  13.082 -1.3444  1.1264  0.7996
 1190TIP3    H225062   6.671   5.400  12.933  0.6654  0.2584  1.1229
 1191TIP3   OH225063   4.692   6.435   4.511 -0.0407  0.5746  0.3042
 1191TIP3    H125064   4.719   6.483   4.589  0.1506  0.1212  0.5224
 1191TIP3    H225065   4.597   6.442   4.510 -0.0518  0.5056  0.6325
 1192TIP3   OH225066   2.976   1.674   4.166 -0.0407  0.2316  0.0489
 1192TIP3    H125067   3.030   1.678   4.087 -1.1484  1.5333 -0.6831
 1192TIP3    H225068   3.023   1.728   4.230  1.0318 -1.0957  0.4465
 1193TIP3   OH225069   4.064   2.623  15.315 -0.0751  0.7939  0.0343
 1193TIP3    H125070   4.066   2.528  15.301  0.4183  0.7525  0.3569
 1193TIP3    H225071   4.116   2.659  15.243 -1.5173  0.9474 -0.9784
 1194TIP3   OH225072   4.454   1.126   1.181  0.2874 -0.6430 -0.3406
 1194TIP3    H125073   4.469   1.148   1.089  0.7517  1.7079  0.2310
 1194TIP3    H225074   4.503   1.193   1.229 -2.4892  0.1405  1.6138
 1195TIP3   OH225075   4.654   0.662  15.848 -0.2415  0.7534 -0.4686
 1195TIP3    H125076   4.568   0.630  15.824  0.3673  0.3306 -2.2289
 1195TIP3    H225077   4.712   0.587  15.836  0.5925  1.4186 -0.6837
 1196TIP3   OH225078   1.317   5.078   3.960 -0.4181 -0.6659  0.0553
 1196TIP3    H125079   1.280   5.081   3.872  0.4696  0.8252 -0.3141
 1196TIP3    H225080   1.386   5.011   3.955 -0.0314 -0.2367 -0.5456
 1197TIP3   OH225081   0.005   6.446   2.295 -0.1974 -0.1853 -0.6006
 1197TIP3    H125082   0.075   6.381   2.300  0.4821  0.5548 -0.2643
 1197TIP3    H225083   0.002   6.472   2.203 -1.1442 -1.3875 -0.9407
 1198TIP3   OH225084   6.630   6.070  14.320  0.1102  0.5191 -0.0857
 1198TIP3    H125085   6.586   5.993  14.356  2.6929 -0.0860  2.1213
 1198TIP3    H225086   6.565   6.139  14.324 -0.8724 -0.4498  2.4296
 1199TIP3   OH225087   5.233   6.784   2.546  0.8056  0.3763  0.3521
 1199TIP3    H125088   5.239   6.708   2.487  0.6335  0.9762 -0.4488
 1199TIP3    H225089   5.289   6.760   2.620  0.4612 -0.6903  0.2937
 1200TIP3   OH225090   3.792   0.416   5.221  0.5062 -0.0879 -0.1090
 1200TIP3    H125091   3.835   0.457   5.296 -0.0322  0.5605 -0.1538
 1200TIP3    H225092   3.785   0.324   5.246  1.5839 -0.1431  0.0489
 1201TIP3   OH225093   6.118   1.532  12.285  0.6683  0.0657  0.1737
 1201TIP3    H125094   6.144   1.447  12.321  0.1292  0.1884  0.8791
 1201TIP3    H225095   6.177   1.595  12.326 -1.1543  0.4534  2.4418
 1202TIP3   OH225096   1.315   1.217  13.149  0.4131  0.4853  0.2024
 1202TIP3    H125097   1.238   1.257  13.108 -0.6200 -0.7439  0.8469
 1202TIP3    H225098   1.380   1.287  13.152 -1.1254  1.9627  0.8289
 1203TIP3   OH225099   0.776   5.717  11.316  0.4295  0.2228  0.0640
 1203TIP3    H125100   0.752   5.761  11.398 -1.5297 -0.2848 -0.1813
 1203TIP3    H225101   0.692   5.698  11.274  1.2595 -2.1136 -0.7002
 1204TIP3   OH225102   3.695   3.962   1.019  0.5268  0.5492 -0.2772
 1204TIP3    H125103   3.621   3.981   1.077 -0.2555  0.0665 -1.0941
 1204TIP3    H225104   3.700   3.866   1.018  0.4247  0.5469 -1.1195
 1205TIP3   OH225105   0.049   0.797   3.481  0.3543  0.8104 -0.0684
 1205TIP3    H125106   0.081   0.886   3.495  0.5018  0.7699 -0.1469
 1205TIP3    H225107  -0.046   0.804   3.487  0.3202  1.1269 -0.9334
 1206TIP3   OH225108   6.572   6.743   4.494 -0.4542 -0.7799  0.3703
 1206TIP3    H125109   6.553   6.655   4.463 -0.8402 -1.2121  1.7565
 1206TIP3    H225110   6.535   6.746   4.582 -0.1081  0.6460  0.4962
 1207TIP3   OH225111   6.363   5.600   5.133 -0.2003  0.7422 -0.3717
 1207TIP3    H125112   6.271   5.574   5.144  0.2014 -0.0301  1.5483
 1207TIP3    H225113   6.364   5.648   5.050 -1.8037 -1.5764 -1.8534
 1208TIP3   OH225114   1.035   2.423   1.768 -0.1050  0.0286  0.4306
 1208TIP3    H125115   1.005   2.485   1.701  0.3663  0.2286  0.4009
 1208TIP3    H225116   0.986   2.343   1.750 -0.6461  0.3628  0.4109
 1209TIP3   OH225117   5.056   2.825   3.465  0.8055  0.5072 -0.7110
 1209TIP3    H125118   5.083   2.793   3.551  2.4701 -1.3166 -1.8323
 1209TIP3    H225119   4.962   2.842   3.474  0.8103 -0.2760  1.2872
 1210TIP3   OH225120   1.476   1.022  16.261  0.0085 -0.1130  0.3550
 1210TIP3    H125121   1.504   1.084  16.328  1.3953 -1.2061  0.8265
 1210TIP3    H225122   1.399   0.979  16.300 -0.5814  0.8326  0.2781
 1211TIP3   OH225123   5.351   0.545  13.751  0.0989 -0.0984  0.3794
 1211TIP3    H125124   5.418   0.591  13.801 -0.6773  3.0934 -1.2510
 1211TIP3    H225125   5.400   0.487  13.693  1.1194 -1.5208  2.5266
 1212TIP3   OH225126   6.711   5.136   4.172  0.4907  0.0232  0.0057
 1212TIP3    H125127   6.639   5.127   4.235 -1.0198  0.1796 -1.6047
 1212TIP3    H225128   6.747   5.223   4.189  0.3093 -0.0646  0.8573
 1213TIP3   OH225129   2.655   1.435  16.790 -0.3038 -0.0277 -1.0266
 1213TIP3    H125130   2.749   1.427  16.807  0.0203  2.9681 -0.9703
 1213TIP3    H225131   2.619   1.350  16.817  2.1667 -0.7281  0.3989
 1214TIP3   OH225132   2.614   4.027   4.440 -0.5028  0.1620 -0.0100
 1214TIP3    H125133   2.646   4.051   4.353 -1.4950  0.0547 -0.4247
 1214TIP3    H225134   2.593   3.934   4.433  1.3978 -0.3771  0.9864
 1215TIP3   OH225135   2.441   1.978   5.971 -0.4290  0.1808  0.3095
 1215TIP3    H125136   2.386   1.928   6.032 -1.1893  0.0965 -0.4251
 1215TIP3    H225137   2.444   2.066   6.008  0.5093 -0.2604  1.3513
 1216TIP3   OH225138   6.630   1.259   1.019 -0.2293 -0.4719 -0.3358
 1216TIP3    H125139   6.577   1.214   1.085 -0.3444 -1.9286 -1.3701
 1216TIP3    H225140   6.705   1.294   1.067  0.8133 -3.3383  0.2949
 1217TIP3   OH225141   0.019   3.594  14.999 -0.0350 -0.1672  1.0838
 1217TIP3    H125142   0.074   3.517  15.013 -1.2333 -1.1561  0.5101
 1217TIP3    H225143   0.022   3.640  15.083  0.2781 -1.1147  1.6084
 1218TIP3   OH225144   0.137   0.710   2.585  0.5997  0.1063  0.1067
 1218TIP3    H125145   0.231   0.697   2.570  0.6812  0.1232  0.5802
 1218TIP3    H225146   0.133   0.769   2.660  0.2139  0.9253 -0.5505
 1219TIP3   OH225147   4.474   5.177   3.896  0.3602  1.1304 -0.0152
 1219TIP3    H125148   4.565   5.179   3.925 -0.1699  0.1697  1.8331
 1219TIP3    H225149   4.469   5.096   3.844  0.3277  0.5891  0.8043
 1220TIP3   OH225150   0.837   1.307  16.367  0.6102 -0.1892  0.0169
 1220TIP3    H125151   0.854   1.394  16.332  1.5084 -0.0715  0.7272
 1220TIP3    H225152   0.852   1.315  16.461  1.7969 -1.3707 -0.0518
 1221TIP3   OH225153   0.114   1.097   0.592  0.2846 -0.2781 -0.3659
 1221TIP3    H125154   0.175   1.035   0.632 -1.8201 -1.3490  1.4166
 1221TIP3    H225155   0.035   1.046   0.574 -0.2550  1.1139 -2.2984
 1222TIP3   OH225156   0.276   0.897  10.852  0.2998  0.0202  0.2010
 1222TIP3    H125157   0.246   0.809  10.872 -2.8883  1.3163  1.8693
 1222TIP3    H225158   0.270   0.904  10.757 -1.4068 -0.9732  0.2044
 1223TIP3   OH225159   5.146   6.689   5.039  0.3982 -0.2146  0.0797
 1223TIP3    H125160   5.192   6.617   5.081 -0.4538 -0.4069  0.7055
 1223TIP3    H225161   5.214   6.737   4.992  1.2688 -0.3338  1.1960
 1224TIP3   OH225162   5.635   4.883   6.675  0.6252 -0.1157 -0.7635
 1224TIP3    H125163   5.724   4.851   6.664 -0.2101 -2.4959 -1.2348
 1224TIP3    H225164   5.590   4.812   6.721 -1.4758  0.1472 -2.2621
 1225TIP3   OH225165   4.288   2.531   2.716  0.2756 -0.5330  0.1292
 1225TIP3    H125166   4.383   2.518   2.721  0.2128 -1.7382 -1.1703
 1225TIP3    H225167   4.253   2.444   2.698 -0.9337  0.1527 -0.9850
 1226TIP3   OH225168   4.358   0.497   1.513 -0.3040  0.2451 -0.1562
 1226TIP3    H125169   4.354   0.424   1.574  0.1638 -1.1419 -1.7163
 1226TIP3    H225170   4.268   0.507   1.481 -0.2970  0.0971 -0.2219
 1227TIP3   OH225171   1.470   1.805  16.039  0.2417  0.1488 -0.2010
 1227TIP3    H125172   1.423   1.885  16.015 -0.3642 -0.0884  0.1572
 1227TIP3    H225173   1.405   1.753  16.087  0.4892 -0.7628 -0.8419
 1228TIP3   OH225174   5.496   2.040  14.990  0.2237 -0.2117  0.5931
 1228TIP3    H125175   5.544   2.104  14.937  1.5981  0.9547  3.0394
 1228TIP3    H225176   5.510   1.957  14.946 -0.0759  0.8728 -1.7083
 1229TIP3   OH225177   3.429   1.014  13.660 -0.0934 -0.4657  0.1839
 1229TIP3    H125178   3.368   0.962  13.608 -0.1431  1.0165 -1.3268
 1229TIP3    H225179   3.449   0.959  13.735 -2.0727 -1.6281 -0.0626
 1230TIP3   OH225180   4.935   0.326  12.501  0.0196  0.2442  0.4765
 1230TIP3    H125181   5.027   0.339  12.479 -0.0962 -0.3498 -0.4163
 1230TIP3    H225182   4.907   0.408  12.542  1.5199 -0.3161  2.8236
 1231TIP3   OH225183   0.528   2.049  13.902 -0.4157 -0.1645 -0.3031
 1231TIP3    H125184   0.519   2.141  13.876 -0.4543  0.1186  0.6641
 1231TIP3    H225185   0.505   2.048  13.995 -0.9798 -1.2513 -0.4376
 1232TIP3   OH225186   6.801   6.581   0.647 -0.3019  0.1955  0.0414
 1232TIP3    H125187   6.764   6.562   0.560  1.1748 -3.2482  0.0392
 1232TIP3    H225188   6.883   6.627   0.629  0.5206 -1.4294 -0.5019
 1233TIP3   OH225189   0.528   2.565   0.004  0.3965 -0.1967  0.0512
 1233TIP3    H125190   0.620   2.537   0.008  0.4786  0.1204  0.4928
 1233TIP3    H225191   0.478   2.484   0.011  0.6053 -0.2102  2.5675
 1234TIP3   OH225192   4.688   3.216   5.191 -0.5853 -0.2375 -0.7803
 1234TIP3    H125193   4.608   3.225   5.140  0.0180  0.3950 -1.6531
 1234TIP3    H225194   4.687   3.125   5.222 -1.7087 -0.1854 -0.6231
 1235TIP3   OH225195   2.444   4.730  12.598  0.6775  0.2441 -0.2047
 1235TIP3    H125196   2.473   4.721  12.688 -0.0318 -0.7194 -0.0558
 1235TIP3    H225197   2.411   4.643  12.575  2.0431  0.0929 -1.8222
 1236TIP3   OH225198   3.005   3.866  11.211  0.2243 -0.6678 -0.1219
 1236TIP3    H125199   2.959   3.948  11.230 -1.7075 -2.2188  2.7310
 1236TIP3    H225200   3.082   3.893  11.160 -1.3407  2.6257 -1.0377
 1237TIP3   OH225201   1.809   4.506  16.077  0.6496 -0.6817 -0.1827
 1237TIP3    H125202   1.746   4.488  16.006  0.1557  1.9212 -0.5002
 1237TIP3    H225203   1.754   4.528  16.152  1.1525  0.8089 -0.2289
 1238TIP3   OH225204   5.596   5.040  15.348  0.1366  0.5300  0.3680
 1238TIP3    H125205   5.520   5.019  15.402 -1.8635 -0.8940 -2.7332
 1238TIP3    H225206   5.671   5.009  15.399 -1.4976  0.0424  2.6339
 1239TIP3   OH225207   0.332   3.552   1.415 -0.1268  0.1720 -0.0287
 1239TIP3    H125208   0.288   3.490   1.355  0.7031  0.0257 -0.5032
 1239TIP3    H225209   0.263   3.580   1.475 -1.2413  1.0672 -1.6426
 1240TIP3   OH225210   0.345   3.857   5.362 -0.4901  0.3927  0.6025
 1240TIP3    H125211   0.300   3.814   5.289  0.6842 -0.3504  0.2817
 1240TIP3    H225212   0.430   3.881   5.326 -0.3570  1.1216  1.3889
 1241TIP3   OH225213   2.791   6.668  16.185  0.1357 -0.1286 -0.8958
 1241TIP3    H125214   2.854   6.596  16.177  2.3524  1.3000  1.7977
 1241TIP3    H225215   2.814   6.727  16.113  1.2980 -0.0951 -0.5255
 1242TIP3   OH225216   3.960   3.801  15.783 -0.0160  0.2675 -0.1294
 1242TIP3    H125217   4.044   3.806  15.736  0.0368  1.3617  0.0511
 1242TIP3    H225218   3.901   3.855  15.730 -0.4100  0.1172  0.1577
 1243TIP3   OH225219   3.733   5.456   5.791 -0.3787 -0.2541 -0.0381
 1243TIP3    H125220   3.794   5.389   5.823 -0.4128  0.7550  2.3575
 1243TIP3    H225221   3.708   5.505   5.870 -2.0518  1.1944 -1.3913
 1244TIP3   OH225222   6.733   5.645  15.209 -0.7487  0.4092  0.1593
 1244TIP3    H125223   6.762   5.559  15.178 -0.2629  0.9629 -0.9608
 1244TIP3    H225224   6.643   5.630  15.239 -0.5442 -0.5635  0.3195
 1245TIP3   OH225225   1.950   0.071  16.710 -0.2321  0.3146 -0.3007
 1245TIP3    H125226   1.941  -0.013  16.665 -1.3868 -0.3778  1.1535
 1245TIP3    H225227   2.000   0.051  16.789  1.0147  1.3490 -0.8014
 1246TIP3   OH225228   0.156   2.563   1.307  0.1508  0.0121 -0.4924
 1246TIP3    H125229   0.093   2.591   1.240 -0.6988 -1.8134 -0.5265
 1246TIP3    H225230   0.107   2.569   1.390  0.5113  0.2605 -0.2953
 1247TIP3   OH225231   1.652   0.296   2.412  0.6317  0.0855  0.3198
 1247TIP3    H125232   1.703   0.357   2.465  2.0852 -0.1869 -0.6918
 1247TIP3    H225233   1.665   0.211   2.455 -0.8138  0.3381  1.3213
 1248TIP3   OH225234   3.978   3.169  12.637 -0.5506 -0.4030  0.0605
 1248TIP3    H125235   3.950   3.212  12.556 -0.4744 -0.3282  0.0739
 1248TIP3    H225236   4.046   3.226  12.673 -1.1650  0.0141  0.6119
 1249TIP3   OH225237   1.277   3.360   1.962 -0.3362  0.3101  1.0513
 1249TIP3    H125238   1.283   3.443   1.914 -0.8684 -0.5281 -0.5270
 1249TIP3    H225239   1.183   3.344   1.971 -0.2826 -1.2529 -0.7468
 1250TIP3   OH225240   3.409   5.748  17.167  0.0116  0.1563 -0.2331
 1250TIP3    H125241   3.455   5.687  17.224  0.9610  1.2316  0.1720
 1250TIP3    H225242   3.380   5.818  17.224 -1.5855 -0.1592 -0.5967
 1251TIP3   OH225243   2.346   2.008   4.992 -0.6459 -0.3148 -0.3212
 1251TIP3    H125244   2.317   2.099   4.994  0.3390  0.0565 -1.3594
 1251TIP3    H225245   2.434   2.013   4.954  0.1433 -1.5308  1.2692
 1252TIP3   OH225246   3.924   4.737   3.759 -0.4327  0.3727  0.0717
 1252TIP3    H125247   3.888   4.696   3.838 -3.5480 -0.4809 -1.6278
 1252TIP3    H225248   3.859   4.802   3.734  1.0132  1.3622 -1.2374
 1253TIP3   OH225249   1.864   3.883  17.112 -0.0257 -0.0692  0.0167
 1253TIP3    H125250   1.914   3.907  17.191  1.0732  0.6930 -0.8713
 1253TIP3    H225251   1.804   3.815  17.142  1.3951 -0.8800  1.2114
 1254TIP3   OH225252   1.077   2.358  14.273 -0.2701  0.3795  0.0848
 1254TIP3    H125253   1.045   2.281  14.320  1.1259 -0.7711 -0.7516
 1254TIP3    H225254   1.100   2.325  14.186  1.4966  1.4717  0.0827
 1255TIP3   OH225255   2.520   3.778   0.908 -0.1264  0.1970 -0.2803
 1255TIP3    H125256   2.566   3.841   0.853 -0.9329 -0.2769 -1.5522
 1255TIP3    H225257   2.436   3.820   0.929 -0.6002 -0.3691 -1.0019
 1256TIP3   OH225258   6.401   3.158   2.755 -0.6196  0.2404 -0.9661
 1256TIP3    H125259   6.438   3.167   2.843 -1.1797  1.7236 -0.8528
 1256TIP3    H225260   6.307   3.147   2.770 -0.6567 -0.0081 -1.3691
 1257TIP3   OH225261   4.541   6.359   5.515  0.2424 -0.4058  0.8652
 1257TIP3    H125262   4.481   6.433   5.523 -0.1745 -0.7176  0.6552
 1257TIP3    H225263   4.508   6.310   5.440  1.2089 -0.1724  0.2768
 1258TIP3   OH225264   4.993   5.686  12.782 -0.0749 -0.2110  0.3002
 1258TIP3    H125265   5.012   5.670  12.874 -0.2454 -2.3738  0.0126
 1258TIP3    H225266   5.003   5.780  12.771  0.7056 -0.0136  2.3461
 1259TIP3   OH225267   2.067   0.042  15.357 -0.0584 -0.4325  0.6067
 1259TIP3    H125268   1.975   0.052  15.380 -0.1793 -1.3925  0.6073
 1259TIP3    H225269   2.084  -0.052  15.369  0.8038 -0.3377  0.1949
 1260TIP3   OH225270   0.395   5.817  11.414  0.1887 -0.1988  0.0633
 1260TIP3    H125271   0.384   5.737  11.465  0.3633 -0.1656  0.1522
 1260TIP3    H225272   0.354   5.885  11.467  0.0313 -0.2302 -0.0170
 1261TIP3   OH225273   4.567   3.873   1.740  0.1069  0.2280  0.2861
 1261TIP3    H125274   4.551   3.847   1.649  0.4774 -2.7440  0.9778
 1261TIP3    H225275   4.511   3.815   1.792  0.8998  0.9520  2.0193
 1262TIP3   OH225276   0.886   5.942  12.816 -0.1814  0.1409  0.3768
 1262TIP3    H125277   0.913   6.033  12.803 -1.1485  0.6966  1.9475
 1262TIP3    H225278   0.869   5.936  12.910 -1.9641 -1.1285  0.0121
 1263TIP3   OH225279   1.440   6.357   0.388 -0.1959  0.1237  0.2745
 1263TIP3    H125280   1.377   6.428   0.400 -2.4688 -1.8840  0.7681
 1263TIP3    H225281   1.392   6.289   0.343  2.4198 -0.5210 -1.8207
 1264TIP3   OH225282   4.985   4.389  14.580 -0.0839 -0.3285  0.1651
 1264TIP3    H125283   4.898   4.349  14.575 -0.0160 -0.5345  0.6282
 1264TIP3    H225284   4.979   4.451  14.652  0.1217 -0.2619  0.1256
 1265TIP3   OH225285   3.974   2.839  13.163 -0.0229  0.2070  0.2964
 1265TIP3    H125286   3.984   2.871  13.253 -0.2732 -1.4222  0.9487
 1265TIP3    H225287   4.062   2.844  13.126 -0.0071  1.3454  0.4621
 1266TIP3   OH225288   1.053   5.519  15.230  0.3015  0.4421  0.2647
 1266TIP3    H125289   1.112   5.545  15.301 -0.4195  0.3788  0.9065
 1266TIP3    H225290   1.037   5.426  15.246  1.9771 -0.1691 -1.3627
 1267TIP3   OH225291   1.196   1.881   6.018 -0.0875 -0.0695 -0.1251
 1267TIP3    H125292   1.209   1.793   5.983 -0.1316  0.1220 -0.6339
 1267TIP3    H225293   1.165   1.867   6.108  0.3438 -0.5630 -0.0494
 1268TIP3   OH225294   3.969   3.854   0.768 -0.3061  0.4176 -0.0195
 1268TIP3    H125295   4.000   3.911   0.838 -0.6885 -0.5334  0.9574
 1268TIP3    H225296   3.887   3.894   0.739  0.1892  1.1820 -0.3915
 1269TIP3   OH225297   5.035   6.149   0.949 -0.3656  0.5047 -0.2931
 1269TIP3    H125298   5.127   6.129   0.933 -0.4027  0.5269 -0.5345
 1269TIP3    H225299   4.990   6.066   0.937 -0.6941  0.9717 -2.6350
 1270TIP3   OH225300   4.028   5.627   5.850 -0.4387 -0.0796 -0.0652
 1270TIP3    H125301   3.971   5.635   5.774 -1.7687 -1.9438  0.6837
 1270TIP3    H225302   4.034   5.533   5.867 -0.7813  0.2939  2.5659
 1271TIP3   OH225303   5.054   1.647  14.317  0.3982 -0.2713 -0.1575
 1271TIP3    H125304   5.041   1.707  14.243  1.7331  0.7870  0.4197
 1271TIP3    H225305   5.001   1.685  14.387 -0.2406 -0.8329 -0.3290
 1272TIP3   OH225306   1.898   2.207   1.401 -0.0870 -0.1791  0.2802
 1272TIP3    H125307   1.940   2.163   1.328 -0.3673 -1.9444  1.1385
 1272TIP3    H225308   1.862   2.136   1.455 -0.5108  1.0963  1.7549
 1273TIP3   OH225309   0.004   4.501   2.685  0.1495  0.0735  0.3884
 1273TIP3    H125310  -0.089   4.509   2.707  0.6212 -0.8899  3.0311
 1273TIP3    H225311   0.011   4.543   2.599 -2.6068  0.6779  0.3513
 1274TIP3   OH225312   1.168   6.524   2.338 -0.1982 -0.4609  0.3186
 1274TIP3    H125313   1.201   6.590   2.399 -2.2782  2.5394 -1.5192
 1274TIP3    H225314   1.077   6.511   2.363 -0.6525 -0.3263 -1.1718
 1275TIP3   OH225315   0.106   2.253   5.171 -0.3182  0.3092  0.0106
 1275TIP3    H125316   0.125   2.338   5.131 -0.1124 -0.1752 -0.9274
 1275TIP3    H225317   0.191   2.220   5.199  0.2472 -1.3867 -3.2582
 1276TIP3   OH225318   1.518   2.056   4.461 -0.6369 -0.1966 -0.8056
 1276TIP3    H125319   1.440   2.111   4.467 -0.8210 -0.6050  1.8351
 1276TIP3    H225320   1.485   1.971   4.434 -1.1866 -0.4070  0.4403
 1277TIP3   OH225321   2.973   0.117   2.021 -0.4193 -0.0805  0.0475
 1277TIP3    H125322   3.031   0.118   2.096 -0.1046  0.6247 -0.1947
 1277TIP3    H225323   2.885   0.115   2.058 -0.3022  1.4689  0.4722
 1278TIP3   OH225324   2.019   1.285  12.224  0.4382  0.0750 -0.2180
 1278TIP3    H125325   2.030   1.378  12.245 -0.6339 -0.0065  0.8347
 1278TIP3    H225326   2.096   1.242  12.261 -1.2378 -0.0298  3.6348
 1279TIP3   OH225327   6.202   1.133  12.951  0.1179 -0.3928 -0.1033
 1279TIP3    H125328   6.280   1.081  12.969 -0.0694 -0.6285  0.0234
 1279TIP3    H225329   6.185   1.119  12.857 -0.5824 -1.4650  0.1596
 1280TIP3   OH225330   4.452   4.061  15.254  0.1840  0.2839 -0.4742
 1280TIP3    H125331   4.539   4.023  15.246 -0.3921 -1.4729  0.9836
 1280TIP3    H225332   4.416   4.057  15.165 -0.0451 -3.2075 -0.3232
 1281TIP3   OH225333   5.586   4.872   6.112  0.1226 -0.5545  0.6170
 1281TIP3    H125334   5.676   4.865   6.080  0.2748 -2.2936  1.3479
 1281TIP3    H225335   5.589   4.944   6.175  0.1025  2.0128 -2.0861
 1282TIP3   OH225336   3.886   6.190  12.445 -0.2703  0.3047 -0.0092
 1282TIP3    H125337   3.798   6.153  12.443 -0.6678  1.2607 -0.8456
 1282TIP3    H225338   3.920   6.174  12.357 -0.6967  2.4525 -0.6105
 1283TIP3   OH225339   4.103   4.457   2.479  0.6707 -0.0529 -0.0559
 1283TIP3    H125340   4.079   4.372   2.515  0.2598 -0.2044 -0.6742
 1283TIP3    H225341   4.019   4.499   2.460  0.8691  0.5172  0.2952
 1284TIP3   OH225342   4.517   5.332  12.757  0.7576 -0.1027  0.6077
 1284TIP3    H125343   4.471   5.327  12.674  1.5913 -0.9712  0.1822
 1284TIP3    H225344   4.538   5.425  12.767  2.6573 -0.2426 -1.3202
 1285TIP3   OH225345   3.987   4.199   0.292 -0.0210 -0.1681  0.0613
 1285TIP3    H125346   4.066   4.144   0.291 -0.0288 -0.1842  0.3981
 1285TIP3    H225347   3.990   4.247   0.209  0.7425  0.4084  0.4189
 1286TIP3   OH225348   6.756   5.855  12.365  0.2948  0.8503  0.0754
 1286TIP3    H125349   6.710   5.937  12.347 -1.1121 -0.2945 -1.8795
 1286TIP3    H225350   6.689   5.788  12.361  1.6533 -0.5760  0.2481
 1287TIP3   OH225351   1.662   5.293   3.491 -0.0103 -0.6863 -0.4879
 1287TIP3    H125352   1.592   5.318   3.552 -0.5362 -0.2401 -1.2656
 1287TIP3    H225353   1.672   5.199   3.504 -0.1019 -0.5933  0.3041
 1288TIP3   OH225354   3.446   2.603   2.560  0.1803 -0.0887  0.0989
 1288TIP3    H125355   3.516   2.547   2.526 -1.7303 -0.1767 -4.4635
 1288TIP3    H225356   3.416   2.559   2.639  3.1671 -1.6968  0.4782
 1289TIP3   OH225357   0.372   2.210   5.191  0.2052 -0.2017 -0.1736
 1289TIP3    H125358   0.429   2.137   5.217  1.6468  1.1892  0.8254
 1289TIP3    H225359   0.420   2.254   5.121 -0.2160  0.2696 -0.1721
 1290TIP3   OH225360   0.827   4.887   1.265 -0.2820 -0.0251  0.3562
 1290TIP3    H125361   0.844   4.818   1.328 -0.4608  0.7373  1.2570
 1290TIP3    H225362   0.731   4.893   1.261 -0.2620  0.5117  0.6662
 1291TIP3   OH225363   4.298   2.443   5.527 -0.4539 -0.4786 -0.4804
 1291TIP3    H125364   4.317   2.476   5.439 -2.4109  1.0108 -0.4104
 1291TIP3    H225365   4.205   2.420   5.524 -1.8953  3.8315  2.2971
 1292TIP3   OH225366   6.428   0.000   1.494  0.0053 -0.0703  0.1986
 1292TIP3    H125367   6.449   0.092   1.508 -0.1595 -0.0717  0.4687
 1292TIP3    H225368   6.373  -0.023   1.569 -1.5334  0.1240 -0.8133
 1293TIP3   OH225369   6.441   5.923   2.111  0.2934 -0.5158  0.0592
 1293TIP3    H125370   6.414   5.987   2.176  0.6313  0.6063 -0.8833
 1293TIP3    H225371   6.532   5.904   2.133  0.1812 -0.7224  0.3626
 1294TIP3   OH225372   5.474   0.551   0.978 -0.4201  0.3302  0.7285
 1294TIP3    H125373   5.442   0.510   1.058  1.2888  0.6496  1.6272
 1294TIP3    H225374   5.446   0.642   0.985 -0.2978  0.3511  0.9533
 1295TIP3   OH225375   0.944   6.045  16.457  0.0954 -0.1995  0.3511
 1295TIP3    H125376   0.886   6.061  16.382  0.2350 -0.3105  0.2171
 1295TIP3    H225377   1.032   6.048  16.419  0.1847  0.1624  0.5882
 1296TIP3   OH225378   0.831   4.415  16.842  0.2068  0.1404  0.2339
 1296TIP3    H125379   0.839   4.440  16.749 -0.1790  0.1492  0.2024
 1296TIP3    H225380   0.804   4.496  16.886 -1.6735 -0.3524  0.0421
 1297TIP3   OH225381   5.798   5.249  13.621 -0.5388  0.2126 -0.1510
 1297TIP3    H125382   5.885   5.210  13.617 -0.7122 -0.2516  0.4277
 1297TIP3    H225383   5.788   5.293  13.537  0.0855 -0.0924 -0.3964
 1298TIP3   OH225384   2.634   5.949  11.662  0.2195  0.5175  0.3440
 1298TIP3    H125385   2.622   5.913  11.749 -0.0732 -0.2749 -0.0151
 1298TIP3    H225386   2.726   5.977  11.660  0.5754 -0.5742  0.5087
 1299TIP3   OH225387   1.267   6.292   1.910  0.2068 -0.2169 -0.5139
 1299TIP3    H125388   1.334   6.358   1.927  1.0788 -0.6674 -1.9899
 1299TIP3    H225389   1.234   6.267   1.996  2.3824 -0.4400  0.2928
 1300TIP3   OH225390   0.849   0.834   0.479 -0.0188  0.1909  0.1363
 1300TIP3    H125391   0.924   0.888   0.455 -0.8703  1.5779  0.4954
 1300TIP3    H225392   0.779   0.861   0.419 -0.6132 -0.1359  0.6609
 1301TIP3   OH225393   5.355   2.699  12.531  0.0845  1.0385 -0.9544
 1301TIP3    H125394   5.400   2.780  12.507 -1.7666  2.3660 -0.1736
 1301TIP3    H225395   5.310   2.671  12.451 -0.2863  1.4938 -0.9073
 1302TIP3   OH225396   1.047   1.114   0.508  0.3549 -0.1207 -0.5709
 1302TIP3    H125397   0.972   1.169   0.485  0.6883  0.9965  0.9217
 1302TIP3    H225398   1.116   1.141   0.447  0.0049 -0.0604 -0.9411
 1303TIP3   OH225399   5.126   2.791   0.322  0.0344 -0.1528  0.1668
 1303TIP3    H125400   5.182   2.748   0.258  0.7862  0.4988  0.3660
 1303TIP3    H225401   5.138   2.740   0.402 -0.6128 -0.7426 -0.1086
 1304TIP3   OH225402   5.972   2.653  16.235 -0.4400 -0.7540 -0.0542
 1304TIP3    H125403   6.025   2.629  16.310  0.3204 -1.9820 -0.9510
 1304TIP3    H225404   5.978   2.578  16.176 -0.6839  0.3336 -1.5202
 1305TIP3   OH225405   1.883   0.674  17.185 -0.3117  0.0098 -0.1740
 1305TIP3    H125406   1.857   0.625  17.107 -1.0558  1.2579 -0.7389
 1305TIP3    H225407   1.978   0.682  17.179 -0.5685  3.2543 -2.9905
 1306TIP3   OH225408   5.513   5.896  12.440 -0.1449  0.3634  0.2939
 1306TIP3    H125409   5.434   5.842  12.436 -0.7837  1.2490  0.3564
 1306TIP3    H225410   5.585   5.835  12.429 -0.8790 -0.3122 -1.0738
 1307TIP3   OH225411   2.487   2.777  16.146  0.2213  0.6371  0.0943
 1307TIP3    H125412   2.498   2.700  16.202 -1.0094  0.9038  0.7462
 1307TIP3    H225413   2.467   2.740  16.060 -1.6440  0.1595  0.6666
 1308TIP3   OH225414   6.162   5.961   0.815  0.5628  0.1941 -0.0503
 1308TIP3    H125415   6.071   5.971   0.843  0.4349  0.4067 -0.5320
 1308TIP3    H225416   6.213   5.979   0.894  0.1757 -0.7055  0.4213
 1309TIP3   OH225417   1.596   1.283  15.658 -0.0711 -0.4846 -0.4598
 1309TIP3    H125418   1.572   1.372  15.633  1.2003 -0.0376 -0.1709
 1309TIP3    H225419   1.573   1.277  15.750 -0.4406 -0.5586 -0.5565
 1310TIP3   OH225420   0.572   2.751   2.840 -0.5323  0.1948  0.6586
 1310TIP3    H125421   0.646   2.698   2.868  1.6717  1.2186 -2.7231
 1310TIP3    H225422   0.498   2.691   2.841  0.9446 -1.7158  1.1430
 1311TIP3   OH225423   6.786   2.625   4.753 -0.4003 -0.3445  0.0834
 1311TIP3    H125424   6.761   2.541   4.714  0.0253 -0.5102  0.1617
 1311TIP3    H225425   6.854   2.602   4.817 -0.4390  0.0333  0.2603
 1312TIP3   OH225426   2.049   1.465   3.108 -0.2194  0.2159  0.1023
 1312TIP3    H125427   2.000   1.499   3.033  0.0556 -1.4405 -0.8797
 1312TIP3    H225428   1.983   1.443   3.173 -0.5154  0.9967  0.0727
 1313TIP3   OH225429   5.274   1.120  11.436 -0.1032 -0.3864 -1.0205
 1313TIP3    H125430   5.355   1.156  11.472  1.2958  0.1427 -4.3390
 1313TIP3    H225431   5.207   1.185  11.460  0.9477  0.5367 -0.4738
 1314TIP3   OH225432   3.151   3.377   0.089  0.0755  0.2390  0.5893
 1314TIP3    H125433   3.106   3.430   0.155 -1.1173 -0.4464  0.3548
 1314TIP3    H225434   3.100   3.296   0.085  0.4733  0.0365 -0.7455
 1315TIP3   OH225435   0.605   0.797  11.339  0.3066 -0.1102 -0.1544
 1315TIP3    H125436   0.681   0.740  11.327 -0.6700 -1.3131 -0.8665
 1315TIP3    H225437   0.529   0.739  11.325 -0.7317  1.2485 -0.3436
 1316TIP3   OH225438   4.392   5.394   3.328 -0.1826 -0.1096 -0.1921
 1316TIP3    H125439   4.475   5.347   3.335 -2.0350 -3.7571 -0.1394
 1316TIP3    H225440   4.361   5.375   3.239 -1.6405 -0.2258  0.3138
 1317TIP3   OH225441   1.740   1.395  14.551  0.4894  0.1150  0.2564
 1317TIP3    H125442   1.809   1.382  14.616  0.7359 -0.0354 -0.0277
 1317TIP3    H225443   1.658   1.386  14.599  0.6645 -0.7859  0.3993
 1318TIP3   OH225444   0.019   4.054  16.316 -0.0792 -0.7495 -0.1413
 1318TIP3    H125445   0.050   4.144  16.311  0.3466 -0.9497 -2.2451
 1318TIP3    H225446   0.097   4.001  16.302 -0.3952 -1.4365  0.6587
 1319TIP3   OH225447   3.027   2.917   3.716 -0.4434  0.3183 -0.0049
 1319TIP3    H125448   3.104   2.962   3.752  0.8950 -0.3695 -1.8918
 1319TIP3    H225449   2.954   2.974   3.739  0.2095 -0.1381  3.9380
 1320TIP3   OH225450   4.969   2.150   2.332 -0.9119 -0.3004  0.6960
 1320TIP3    H125451   5.040   2.098   2.370 -1.0587 -0.6654  0.4733
 1320TIP3    H225452   5.013   2.225   2.292 -0.6126 -0.7281  0.2138
 1321TIP3   OH225453   1.460   5.232  10.775  0.1606 -0.2744 -0.1660
 1321TIP3    H125454   1.533   5.293  10.781 -0.7248  0.7741  0.2450
 1321TIP3    H225455   1.411   5.260  10.698 -0.9701  0.3796  0.7638
 1322TIP3   OH225456   4.023   3.765   4.881 -0.3816 -0.1831  0.3139
 1322TIP3    H125457   4.060   3.690   4.927  2.2913  1.5723  1.2329
 1322TIP3    H225458   3.969   3.809   4.947 -1.0521 -0.6490  0.0920
 1323TIP3   OH225459   1.036   4.318  11.685  0.0362 -0.3238  0.5529
 1323TIP3    H125460   1.112   4.332  11.741  1.1514  0.6039 -1.1080
 1323TIP3    H225461   0.972   4.383  11.714 -0.6769 -1.9058  2.7690
 1324TIP3   OH225462   2.381   3.208  11.777  0.0728  0.4654 -0.7843
 1324TIP3    H125463   2.294   3.226  11.743 -0.4250  0.8685  0.6160
 1324TIP3    H225464   2.374   3.226  11.871  1.4773 -0.1888 -0.5281
 1325TIP3   OH225465   0.228   3.663  13.868 -0.0351 -1.0306  0.2041
 1325TIP3    H125466   0.161   3.608  13.827  0.5365 -0.7142 -1.2103
 1325TIP3    H225467   0.234   3.631  13.958 -0.8029 -2.2467 -0.1584
 1326TIP3   OH225468   0.810   0.711  14.701  0.2909 -0.1172 -0.0009
 1326TIP3    H125469   0.731   0.658  14.686 -0.0311 -0.0225  1.2645
 1326TIP3    H225470   0.776   0.797  14.728  0.8215 -0.0704  0.5268
 1327TIP3   OH225471   0.049   1.891  13.374 -0.7624  0.3928 -0.6333
 1327TIP3    H125472   0.003   1.888  13.457 -0.7365 -0.6703 -0.6542
 1327TIP3    H225473   0.142   1.893  13.398 -0.7701  1.3084 -0.6225
 1328TIP3   OH225474   5.854   5.277   5.214  0.5359  0.3100  0.1982
 1328TIP3    H125475   5.835   5.255   5.123  2.3315 -0.4974 -0.0001
 1328TIP3    H225476   5.781   5.334   5.240 -0.5083 -0.2272 -1.4253
 1329TIP3   OH225477   3.058   1.770   0.397 -0.0231  0.5781  0.2504
 1329TIP3    H125478   2.978   1.801   0.440 -1.0861 -0.1783 -1.1485
 1329TIP3    H225479   3.050   1.801   0.307  1.5276  0.9439  0.2160
 1330TIP3   OH225480   3.396   2.458  15.648 -0.2015 -0.0640  0.0790
 1330TIP3    H125481   3.358   2.377  15.682 -2.6541  0.1978 -1.7805
 1330TIP3    H225482   3.421   2.507  15.727  1.8182 -2.7409  1.2409
 1331TIP3   OH225483   5.103   0.871   2.998  0.0301 -0.0020 -0.3437
 1331TIP3    H125484   5.071   0.856   2.909 -1.9247 -0.9076  0.4671
 1331TIP3    H225485   5.026   0.901   3.047  0.8807 -0.2760  1.2254
 1332TIP3   OH225486   1.710   1.368  16.500 -0.7826  0.6242  0.5994
 1332TIP3    H125487   1.749   1.422  16.569  0.1457  1.1729 -0.3153
 1332TIP3    H225488   1.779   1.305  16.478 -1.1293  0.3569  0.2751
 1333TIP3   OH225489   4.276   4.565   4.880 -0.3308 -0.2235  0.0875
 1333TIP3    H125490   4.214   4.624   4.922  0.9656  0.1522  1.5854
 1333TIP3    H225491   4.327   4.529   4.953 -1.2161 -3.4108 -0.7200
 1334TIP3   OH225492   3.886   2.523  13.821  0.9631  0.0098  0.0471
 1334TIP3    H125493   3.831   2.512  13.743  0.8495  1.3354 -0.0808
 1334TIP3    H225494   3.931   2.439  13.830 -0.1852 -0.6938 -0.5317
 1335TIP3   OH225495   3.426   0.059   2.744 -0.0614  0.3635  0.1779
 1335TIP3    H125496   3.518   0.061   2.771  0.1178  1.4456 -0.4408
 1335TIP3    H225497   3.401  -0.033   2.748  0.7708  0.1741  1.2806
 1336TIP3   OH225498   4.965   3.332   0.762  0.0866  0.3514 -0.0069
 1336TIP3    H125499   4.890   3.337   0.702 -0.2007  1.6375  0.4170
 1336TIP3    H225500   4.997   3.242   0.753  1.0410  0.8860 -3.2680
 1337TIP3   OH225501   6.517   1.992  11.639 -0.0996  0.0489  0.0024
 1337TIP3    H125502   6.544   2.073  11.682  0.0252 -1.1768  2.4016
 1337TIP3    H225503   6.593   1.934  11.648 -1.3234 -1.4280  1.4278
 1338TIP3   OH225504   5.282   0.072  12.517  0.4773 -0.1921 -0.3663
 1338TIP3    H125505   5.244   0.078  12.605 -0.4885 -1.3083 -0.6730
 1338TIP3    H225506   5.377   0.071  12.532  0.3260 -0.6233  0.6891
 1339TIP3   OH225507   4.201   4.982   3.132 -0.6920  0.2293 -0.1724
 1339TIP3    H125508   4.274   5.042   3.139 -1.2282  0.9150 -0.3754
 1339TIP3    H225509   4.186   4.972   3.038 -2.0707  1.6117 -0.1296
 1340TIP3   OH225510   1.876   6.435   3.535  0.2787  0.2024 -0.1386
 1340TIP3    H125511   1.911   6.463   3.620  0.0913  1.5133 -0.4666
 1340TIP3    H225512   1.942   6.461   3.472  1.9577 -3.6848 -0.1905
 1341TIP3   OH225513   1.877   2.795   5.457  0.9417 -0.1178 -0.1953
 1341TIP3    H125514   1.967   2.821   5.435  1.8320 -2.1248  0.8190
 1341TIP3    H225515   1.880   2.777   5.551 -0.4154 -0.6091 -0.2296
 1342TIP3   OH225516   1.883   0.953   4.149  0.1292  0.3772 -0.2232
 1342TIP3    H125517   1.912   0.880   4.203 -1.0145 -0.0645 -0.1635
 1342TIP3    H225518   1.960   0.980   4.100  0.5852 -0.8329 -0.2021
 1343TIP3   OH225519   6.226   1.706  12.915  0.0549  0.2824  0.0356
 1343TIP3    H125520   6.214   1.656  12.996  0.8768 -0.8385 -0.4998
 1343TIP3    H225521   6.311   1.677  12.881 -0.7932 -0.1668 -1.8395
 1344TIP3   OH225522   2.883   5.111  16.127  1.5041  0.0369 -0.3653
 1344TIP3    H125523   2.817   5.042  16.126  1.3153  0.2176 -1.0104
 1344TIP3    H225524   2.833   5.192  16.130  1.7148  0.1600 -0.1364
 1345TIP3   OH225525   2.049   2.087   2.178  0.4460 -0.4058 -0.0121
 1345TIP3    H125526   2.004   2.025   2.121 -0.0103  0.5179 -0.6856
 1345TIP3    H225527   2.029   2.173   2.140  1.3020  0.1345  0.7262
 1346TIP3   OH225528   3.307   5.635  13.239  0.0749 -0.2431 -0.2319
 1346TIP3    H125529   3.281   5.565  13.180 -1.0013 -1.5963  1.7238
 1346TIP3    H225530   3.372   5.595  13.297  0.9327  0.9607 -0.3193
 1347TIP3   OH225531   1.471   1.077  14.312  0.1315 -0.0540  0.0062
 1347TIP3    H125532   1.483   1.018  14.238  1.7961  1.0598 -0.6836
 1347TIP3    H225533   1.381   1.064  14.340 -0.4769 -0.6579 -2.1010
 1348TIP3   OH225534   0.491   0.334   0.780 -0.2058 -0.2575  0.0514
 1348TIP3    H125535   0.572   0.381   0.759 -0.8799  1.1783  0.5059
 1348TIP3    H225536   0.458   0.377   0.859 -0.3297 -2.2154  1.1162
 1349TIP3   OH225537   2.713   1.836   5.568  0.7118  0.3641 -0.1197
 1349TIP3    H125538   2.674   1.826   5.655 -0.0623  0.7696 -0.4138
 1349TIP3    H225539   2.779   1.904   5.579  0.4387  0.5979  0.0979
 1350TIP3   OH225540   3.816   1.483  14.348  0.5691 -0.3990 -0.0682
 1350TIP3    H125541   3.847   1.483  14.438 -0.8035  0.5460  0.4529
 1350TIP3    H225542   3.725   1.452  14.354 -0.1759  1.4712 -0.8262
 1351TIP3   OH225543   2.348   2.570  16.969  0.1571 -0.2661 -0.8757
 1351TIP3    H125544   2.318   2.629  17.038  1.3701  0.5476 -1.0202
 1351TIP3    H225545   2.378   2.492  17.016 -1.1176 -0.6624 -0.6632
 1352TIP3   OH225546   5.210   4.790  10.565 -0.0222 -0.1002  0.1145
 1352TIP3    H125547   5.299   4.758  10.578  0.7317  2.0843  0.6719
 1352TIP3    H225548   5.218   4.885  10.563 -2.1779  0.1382 -1.2031
 1353TIP3   OH225549   4.840   4.651  12.226 -0.5086  0.3047  0.3370
 1353TIP3    H125550   4.917   4.685  12.271 -0.4956  0.3551  0.2776
 1353TIP3    H225551   4.806   4.726  12.177 -0.8677  0.4031  0.7309
 1354TIP3   OH225552   4.494   0.747  11.320  0.3209 -0.1655 -0.1023
 1354TIP3    H125553   4.489   0.660  11.359 -1.1348 -0.4728 -0.8657
 1354TIP3    H225554   4.418   0.794  11.356 -0.1287  0.0634 -1.2727
 1355TIP3   OH225555   3.171   1.550  12.891 -0.5168  0.4265  0.1662
 1355TIP3    H125556   3.104   1.489  12.924 -1.6006  1.5328  0.0696
 1355TIP3    H225557   3.222   1.573  12.969  0.2033 -0.9249  0.1292
 1356TIP3   OH225558   0.334   5.088   2.437 -0.1150  0.5495  0.1003
 1356TIP3    H125559   0.255   5.140   2.419 -1.2018 -1.1383 -0.2178
 1356TIP3    H225560   0.402   5.130   2.385 -0.4254  2.8572  1.3874
 1357TIP3   OH225561   0.424   6.293  17.159  0.0905 -0.3509  0.1429
 1357TIP3    H125562   0.420   6.240  17.080 -0.3497  1.0786 -0.8253
 1357TIP3    H225563   0.341   6.341  17.161  0.9364  1.1803  0.3332
 1358TIP3   OH225564   4.505   2.896   5.811 -0.3013  0.4372 -0.2720
 1358TIP3    H125565   4.432   2.844   5.778 -1.2736  1.8125 -0.3753
 1358TIP3    H225566   4.579   2.873   5.754 -0.9282 -0.1640 -0.8639
 1359TIP3   OH225567   5.871   1.517   4.485  0.7572 -0.2402  0.2899
 1359TIP3    H125568   5.961   1.484   4.491  1.4730  1.0253 -2.2174
 1359TIP3    H225569   5.880   1.607   4.454 -1.3633  0.4135  1.3405
 1360TIP3   OH225570   3.087   5.536  10.948 -0.0723 -0.6279  0.2643
 1360TIP3    H125571   3.121   5.488  10.872  0.5406 -0.0422  0.1652
 1360TIP3    H225572   3.161   5.539  11.009 -0.1253  0.1148  0.3017
 1361TIP3   OH225573   1.161   0.010   2.955 -0.4453 -0.3144 -0.1670
 1361TIP3    H125574   1.126   0.039   2.870 -0.9644  0.5419  0.3221
 1361TIP3    H225575   1.202   0.088   2.991 -1.3964 -0.3073  0.9497
 1362TIP3   OH225576   6.420   2.443  11.899  0.4898  0.1626 -0.3067
 1362TIP3    H125577   6.458   2.528  11.921  1.0133  0.2898 -1.5945
 1362TIP3    H225578   6.401   2.403  11.984 -0.5012  1.8634  0.3499
 1363TIP3   OH225579   3.366   0.460   1.979 -0.0127 -0.2815 -0.5424
 1363TIP3    H125580   3.409   0.513   1.911  0.7656 -0.0631  0.1001
 1363TIP3    H225581   3.370   0.514   2.058  0.0474 -0.9563 -0.0700
 1364TIP3   OH225582   5.848   5.352  13.167  0.3962 -0.8276  0.5942
 1364TIP3    H125583   5.884   5.264  13.154 -0.5049 -1.2032  0.5731
 1364TIP3    H225584   5.798   5.369  13.088 -2.0702 -1.6165  1.8702
 1365TIP3   OH225585   3.558   2.177   2.557  0.8014  0.5702 -0.0651
 1365TIP3    H125586   3.632   2.159   2.615  0.8056 -0.4252 -0.3656
 1365TIP3    H225587   3.499   2.104   2.570  0.2247  0.9712 -0.4016
 1366TIP3   OH225588   4.143   4.206  16.160 -0.1605  0.4661 -0.4602
 1366TIP3    H125589   4.105   4.123  16.188  0.7706 -0.0656 -0.7508
 1366TIP3    H225590   4.228   4.209  16.202 -0.2476  1.3562 -0.3236
 1367TIP3   OH225591   6.396   4.002   3.667 -0.1684  0.2939  0.2308
 1367TIP3    H125592   6.474   3.962   3.629 -0.7826  0.4598 -1.2888
 1367TIP3    H225593   6.369   3.941   3.736  1.2629  0.2157  0.7476
 1368TIP3   OH225594   6.384   4.151   1.339 -0.4294 -0.2662  0.0832
 1368TIP3    H125595   6.408   4.109   1.421  2.0965  0.4071 -0.2297
 1368TIP3    H225596   6.361   4.079   1.280 -0.2924 -0.8790  0.7726
 1369TIP3   OH225597   6.359   5.765   2.560 -0.1534  0.0025  0.0770
 1369TIP3    H125598   6.294   5.771   2.489  0.1350  1.5669 -0.0859
 1369TIP3    H225599   6.414   5.690   2.536  0.1959  0.7564 -1.5893
 1370TIP3   OH225600   1.682   0.573   5.430  0.0019 -0.0698  0.0921
 1370TIP3    H125601   1.650   0.497   5.478 -0.8078 -1.3297 -2.2998
 1370TIP3    H225602   1.770   0.588   5.465  0.7823 -3.0449 -0.3461
 1371TIP3   OH225603   1.172   2.136   4.777 -0.6152  0.4545 -0.4876
 1371TIP3    H125604   1.179   2.216   4.829 -0.7048  0.1976 -0.0685
 1371TIP3    H225605   1.163   2.066   4.842  1.5673 -0.1476 -0.7761
 1372TIP3   OH225606   1.245   5.345  12.984  0.4508  0.3947 -0.1035
 1372TIP3    H125607   1.203   5.431  12.983 -0.0532  0.1560  0.2527
 1372TIP3    H225608   1.222   5.308  13.069  1.4710  0.3003  0.1362
 1373TIP3   OH225609   0.572   6.067   4.656  0.1944 -0.4012 -0.1697
 1373TIP3    H125610   0.581   5.975   4.630  1.3539 -0.5913  0.8129
 1373TIP3    H225611   0.657   6.090   4.692 -0.3576  0.8101  0.4174
 1374TIP3   OH225612   3.482   5.319  13.088 -0.0551  0.7326  0.0792
 1374TIP3    H125613   3.512   5.311  12.998 -1.1546 -0.3459 -0.2111
 1374TIP3    H225614   3.548   5.373  13.131  2.7741 -2.1063 -0.3257
 1375TIP3   OH225615   6.770   4.986   4.995 -0.2700  0.3633  0.1701
 1375TIP3    H125616   6.768   5.068   5.045  1.2190  1.8069 -1.9129
 1375TIP3    H225617   6.828   4.929   5.045  0.4040  1.3851  0.5934
 1376TIP3   OH225618   6.178   4.844   3.298  0.1355  0.6315 -0.8667
 1376TIP3    H125619   6.143   4.917   3.248  1.5116  1.8352 -0.1452
 1376TIP3    H225620   6.269   4.868   3.314  0.3422 -0.7925  0.2481
 1377TIP3   OH225621   3.924   2.475  15.087 -0.4751 -0.5096  0.5994
 1377TIP3    H125622   3.983   2.401  15.071  0.9309  0.3052  1.6978
 1377TIP3    H225623   3.887   2.495  15.002  1.4036 -0.6446 -0.3105
 1378TIP3   OH225624   3.401   6.743  14.225  0.4567 -0.2565  0.1281
 1378TIP3    H125625   3.407   6.820  14.169 -0.4055 -0.5548 -0.3963
 1378TIP3    H225626   3.491   6.721  14.246  0.7721  0.1517 -0.7500
 1379TIP3   OH225627   5.223   0.292   3.992 -0.2736  0.4016  0.2114
 1379TIP3    H125628   5.282   0.343   3.937  0.4303 -1.5566 -0.9455
 1379TIP3    H225629   5.229   0.333   4.079  0.8548  1.7360 -0.4603
 1380TIP3   OH225630   6.318   1.192   3.610  0.8241  0.0739  0.0321
 1380TIP3    H125631   6.395   1.235   3.648  0.0778  1.7734 -0.3002
 1380TIP3    H225632   6.298   1.244   3.532 -0.0428 -0.9889 -0.4718
 1381TIP3   OH225633   0.332   3.077   3.173 -0.0026  0.1559 -0.7917
 1381TIP3    H125634   0.381   2.996   3.162  1.5401  0.9748 -0.2775
 1381TIP3    H225635   0.240   3.049   3.178  0.6170 -1.9071  2.2221
 1382TIP3   OH225636   3.843   5.900  12.893  0.1065  0.3376  0.1282
 1382TIP3    H125637   3.775   5.907  12.826 -0.5766  0.7467  0.8581
 1382TIP3    H225638   3.856   5.806  12.904 -1.6379  0.1890  1.2573
 1383TIP3   OH225639   6.743   1.702   4.260 -0.8147 -0.4854  0.3244
 1383TIP3    H125640   6.752   1.677   4.352 -1.1237 -1.8916 -0.0176
 1383TIP3    H225641   6.649   1.713   4.246 -1.0131 -2.7688 -0.4332
 1384TIP3   OH225642   1.773   0.802   0.165  0.1841 -0.4351 -0.1800
 1384TIP3    H125643   1.794   0.755   0.084 -1.7132  0.1262 -1.0522
 1384TIP3    H225644   1.835   0.874   0.168  1.9357 -1.8881  0.2203
 1385TIP3   OH225645   5.787   0.159   3.931 -0.6535  0.2175  0.4536
 1385TIP3    H125646   5.692   0.162   3.941 -0.7231  0.1575 -0.1509
 1385TIP3    H225647   5.811   0.071   3.961 -1.0032 -0.4092 -1.0121
 1386TIP3   OH225648   5.268   5.959  16.756  0.1150 -0.4393 -0.3644
 1386TIP3    H125649   5.345   6.009  16.728  1.2508 -1.3314  0.9948
 1386TIP3    H225650   5.250   5.901  16.683  2.1452 -1.7469  0.0655
 1387TIP3   OH225651   5.971   5.498  11.510  0.4291  0.5672  0.2770
 1387TIP3    H125652   5.966   5.535  11.598  0.5913  1.4184 -0.0636
 1387TIP3    H225653   6.033   5.554  11.464  1.0260 -0.4006 -0.1300
 1388TIP3   OH225654   4.406   0.667  14.930 -0.2593 -0.5118  0.0561
 1388TIP3    H125655   4.338   0.734  14.927  0.2589  0.0125 -0.3848
 1388TIP3    H225656   4.486   0.714  14.954 -0.4811 -1.5153  3.2693
 1389TIP3   OH225657   1.304   0.913   2.252 -0.0259  0.2902  0.4950
 1389TIP3    H125658   1.394   0.891   2.228 -0.2224  0.3019 -0.2854
 1389TIP3    H225659   1.291   1.001   2.218 -0.7073 -0.1613 -0.4779
 1390TIP3   OH225660   0.132   6.643   4.311 -0.5045  0.0323 -0.0269
 1390TIP3    H125661   0.188   6.565   4.306 -1.9743 -1.1568  1.1481
 1390TIP3    H225662   0.182   6.712   4.267  2.2921 -0.7226  1.7321
 1391TIP3   OH225663   4.335   3.890  13.453 -0.0876  0.0877 -0.1602
 1391TIP3    H125664   4.268   3.873  13.386 -0.2747  1.0316 -0.2302
 1391TIP3    H225665   4.412   3.918  13.403 -0.4760  1.5812  0.0321
 1392TIP3   OH225666   1.970   4.786   0.541 -0.4881 -0.1137 -0.5468
 1392TIP3    H125667   1.875   4.784   0.532 -0.7294  2.3116  0.8300
 1392TIP3    H225668   1.992   4.878   0.550  1.8809 -0.6942  0.4210
 1393TIP3   OH225669   3.740   1.335   0.463 -0.4128  0.0126 -0.1663
 1393TIP3    H125670   3.741   1.401   0.532 -0.7202  0.8910 -0.9908
 1393TIP3    H225671   3.792   1.372   0.392 -1.8925  0.1102 -1.2716
 1394TIP3   OH225672   1.424   1.565   2.582 -0.2484 -0.4235  0.0757
 1394TIP3    H125673   1.506   1.527   2.552 -0.8948 -0.7778 -1.2871
 1394TIP3    H225674   1.425   1.654   2.547  0.3445  0.1896  1.5686
 1395TIP3   OH225675   6.574   0.476   6.526 -0.6333  0.1212 -0.2201
 1395TIP3    H125676   6.592   0.383   6.538 -2.6557 -0.2392  0.4586
 1395TIP3    H225677   6.534   0.481   6.439  1.2494  0.6947 -1.1108
 1396TIP3   OH225678   0.147   2.639   5.956 -0.1521 -0.0800  0.0343
 1396TIP3    H125679   0.081   2.587   5.910  0.9392 -0.8376 -0.7109
 1396TIP3    H225680   0.228   2.624   5.907  0.7302  0.2650  1.3470
 1397TIP3   OH225681   5.134   4.774  15.327 -0.2464  0.0363  0.0374
 1397TIP3    H125682   5.159   4.843  15.266  0.1746  1.6737  1.9486
 1397TIP3    H225683   5.145   4.814  15.414  1.1413 -2.7946  1.2966
 1398TIP3   OH225684   1.430   0.190   4.731 -0.1014  0.2723  0.2193
 1398TIP3    H125685   1.370   0.225   4.666 -1.1749 -1.5402  0.1523
 1398TIP3    H225686   1.378   0.123   4.777  1.4018 -0.2427  1.2328
 1399TIP3   OH225687   2.851   3.307  14.362  0.1143 -0.3291 -0.0945
 1399TIP3    H125688   2.878   3.379  14.420 -0.9271 -0.2834  0.3659
 1399TIP3    H225689   2.896   3.230  14.396  0.8396  0.0112 -0.2764
 1400TIP3   OH225690   2.849   3.440  12.420 -0.0795 -0.3511 -0.0269
 1400TIP3    H125691   2.817   3.524  12.453  2.0143 -0.1833  1.7882
 1400TIP3    H225692   2.780   3.410  12.360 -1.0579  2.4634 -0.4694
 1401TIP3   OH225693   3.445   3.863   0.670  0.7501 -0.2357 -0.5866
 1401TIP3    H125694   3.366   3.808   0.666  1.2868 -1.0870  0.2752
 1401TIP3    H225695   3.496   3.827   0.742  2.1644  0.0035 -1.4359
 1402TIP3   OH225696   0.772   2.560   2.992 -0.0889  0.1125 -0.5375
 1402TIP3    H125697   0.712   2.487   3.006  1.0223 -0.6167  0.6110
 1402TIP3    H225698   0.783   2.599   3.079  2.1641 -0.6591 -0.4038
 1403TIP3   OH225699   3.473   5.205   2.114 -0.4184  0.0475 -0.0790
 1403TIP3    H125700   3.406   5.142   2.086 -0.4518 -1.0370  2.1798
 1403TIP3    H225701   3.445   5.289   2.076 -2.2728 -0.6651 -0.3758
 1404TIP3   OH225702   0.055   3.058  16.216 -0.4637  0.4338  0.3067
 1404TIP3    H125703   0.019   3.136  16.176  0.7985  0.1447 -1.5463
 1404TIP3    H225704   0.085   3.087  16.302 -3.8891  0.9191  1.4755
 1405TIP3   OH225705   4.431   1.824   0.949  0.6442  0.1623 -0.3453
 1405TIP3    H125706   4.495   1.801   1.017  0.8198  0.1506 -0.5119
 1405TIP3    H225707   4.346   1.815   0.992  0.7898  1.1280  0.1570
 1406TIP3   OH225708   2.580   0.423   1.579 -0.1811 -0.1593 -0.0739
 1406TIP3    H125709   2.632   0.351   1.615  0.5640  0.7630  0.7462
 1406TIP3    H225710   2.640   0.497   1.575 -1.0200  0.5193 -0.5796
 1407TIP3   OH225711   0.111   5.496  14.662  0.0832  0.3879  0.2284
 1407TIP3    H125712   0.187   5.439  14.678  1.4239  2.2096  0.6437
 1407TIP3    H225713   0.068   5.504  14.747 -1.2461 -1.4631 -0.2038
 1408TIP3   OH225714   2.626   5.360   2.705  0.0605 -0.0536 -0.1871
 1408TIP3    H125715   2.688   5.405   2.648  0.2547 -1.9467 -1.5418
 1408TIP3    H225716   2.610   5.422   2.777  2.0216  1.2285 -0.7951
 1409TIP3   OH225717   3.746   2.121   0.586 -0.4348  0.3039  0.0421
 1409TIP3    H125718   3.820   2.109   0.646  0.2876 -1.4953 -1.1232
 1409TIP3    H225719   3.751   2.046   0.526 -1.0877  2.0406 -2.3208
 1410TIP3   OH225720   0.151   3.946  11.588  0.2548 -0.2669  0.0900
 1410TIP3    H125721   0.246   3.959  11.582  0.2527 -0.8728 -1.7693
 1410TIP3    H225722   0.140   3.852  11.599 -0.1346 -0.1872  0.4105
 1411TIP3   OH225723   4.197   6.538  16.737  0.4515  0.5844 -0.1543
 1411TIP3    H125724   4.234   6.534  16.825 -3.7737  1.9294  1.9474
 1411TIP3    H225725   4.192   6.446  16.709  0.8804  0.0260  1.4745
 1412TIP3   OH225726   1.313   0.552  14.032 -0.1310  0.1032  0.2376
 1412TIP3    H125727   1.288   0.460  14.023 -0.8746  0.2941  0.2978
 1412TIP3    H225728   1.232   0.597  14.057  0.6233  0.4573  2.3000
 1413TIP3   OH225729   2.550   5.769  12.208 -0.0621 -0.0002 -0.2287
 1413TIP3    H125730   2.570   5.682  12.242  1.9933  0.7356  0.6061
 1413TIP3    H225731   2.482   5.803  12.266  0.5764 -0.2882  0.7113
 1414TIP3   OH225732   2.613   1.309  12.732  0.2220  1.0454 -0.0313
 1414TIP3    H125733   2.555   1.301  12.808 -1.9120 -0.8694 -1.7042
 1414TIP3    H225734   2.701   1.316  12.769 -0.8637  2.0478  2.6047
 1415TIP3   OH225735   4.020   4.956   4.352 -0.5458  0.8056 -0.0034
 1415TIP3    H125736   3.928   4.931   4.350 -0.1477 -1.4437  2.7707
 1415TIP3    H225737   4.055   4.926   4.268 -1.5783 -2.1977  0.5163
 1416TIP3   OH225738   3.367   3.026  15.989 -0.5187 -0.2972  0.1765
 1416TIP3    H125739   3.368   3.111  16.033  0.4989 -0.5426  0.6662
 1416TIP3    H225740   3.388   3.047  15.898  0.9805 -0.1172  0.5335
 1417TIP3   OH225741   6.827   4.379  10.902 -0.4337  0.2651 -0.0424
 1417TIP3    H125742   6.804   4.334  10.821  0.9410 -1.0859  0.2801
 1417TIP3    H225743   6.921   4.365  10.912 -0.7302 -0.5101  2.3068
 1418TIP3   OH225744   3.422   1.270  15.228 -0.1941 -0.1651 -0.0742
 1418TIP3    H125745   3.412   1.246  15.320  0.2848  0.0628  0.0419
 1418TIP3    H225746   3.492   1.335  15.228 -1.2795  1.0323 -0.4289
 1419TIP3   OH225747   3.618   6.098  12.405 -0.0077 -0.2464  0.0075
 1419TIP3    H125748   3.549   6.114  12.470  1.2223  1.6646  0.9456
 1419TIP3    H225749   3.671   6.029  12.443  0.6560  0.8046  1.0411
 1420TIP3   OH225750   4.499   4.454  14.793 -0.1612 -0.3829  0.0291
 1420TIP3    H125751   4.524   4.416  14.878 -1.2315  0.1445  0.5984
 1420TIP3    H225752   4.570   4.516  14.774  0.9525 -1.6969 -0.2991
 1421TIP3   OH225753   6.430   2.131   2.795 -0.0151 -0.1806  0.3058
 1421TIP3    H125754   6.450   2.046   2.835 -0.4604 -1.5900 -2.2270
 1421TIP3    H225755   6.515   2.171   2.781  0.1739  0.0560  2.0109
 1422TIP3   OH225756   2.128   3.914   1.265  0.1007 -0.3932 -0.0329
 1422TIP3    H125757   2.209   3.868   1.242 -0.7240 -1.4656 -0.8705
 1422TIP3    H225758   2.156   3.980   1.329  1.5007 -1.2537  0.2875
 1423TIP3   OH225759   4.732   3.943   6.492 -0.1178 -0.0790  0.4655
 1423TIP3    H125760   4.744   3.849   6.481 -1.5665 -0.0734 -1.8175
 1423TIP3    H225761   4.795   3.982   6.431 -0.2591  0.4014  0.6253
 1424TIP3   OH225762   5.209   0.098  11.955 -0.2759  0.1266 -0.1254
 1424TIP3    H125763   5.231   0.106  12.048 -1.5073  0.6725  0.1470
 1424TIP3    H225764   5.286   0.129  11.909 -0.1444  1.1786  0.7517
 1425TIP3   OH225765   5.807   4.309   0.478 -0.0863  0.2589 -0.3183
 1425TIP3    H125766   5.890   4.355   0.486 -0.7726  1.4025  0.4436
 1425TIP3    H225767   5.740   4.377   0.482 -1.0638 -0.5491 -1.7171
 1426TIP3   OH225768   1.561   2.639   0.846  0.5671  0.0730  0.2877
 1426TIP3    H125769   1.523   2.588   0.775  0.5903  0.1639  0.2111
 1426TIP3    H225770   1.601   2.574   0.904 -0.0943 -0.0648  0.6030
 1427TIP3   OH225771   4.011   0.457   2.206 -0.0559 -0.0497 -0.4138
 1427TIP3    H125772   3.975   0.543   2.186  1.5049  0.7437  0.0252
 1427TIP3    H225773   4.102   0.474   2.232 -0.6222 -1.4813  2.9519
 1428TIP3   OH225774   5.588   6.461  15.544 -0.3738 -0.4718 -0.1856
 1428TIP3    H125775   5.662   6.479  15.486 -0.1508 -2.2630 -0.5107
 1428TIP3    H225776   5.626   6.461  15.632 -0.2666 -0.0585 -0.2268
 1429TIP3   OH225777   1.738   3.922  11.128  0.1455 -0.5927  0.2613
 1429TIP3    H125778   1.768   3.846  11.178 -0.5106 -1.8491 -1.1512
 1429TIP3    H225779   1.714   3.886  11.043  0.6965  1.3785 -0.7802
 1430TIP3   OH225780   2.192   6.120   0.206 -0.7101  0.1825  0.3873
 1430TIP3    H125781   2.131   6.048   0.220 -1.4081  0.5745 -0.5482
 1430TIP3    H225782   2.195   6.166   0.289  0.2096 -1.2579  1.1941
 1431TIP3   OH225783   1.514   5.793  16.645  0.0526  0.0758 -0.8690
 1431TIP3    H125784   1.485   5.704  16.663 -0.4422  0.0710 -1.6282
 1431TIP3    H225785   1.502   5.803  16.550  0.6810  0.7423 -0.8852
 1432TIP3   OH225786   2.389   6.214  11.914  0.5141  0.1215  0.2540
 1432TIP3    H125787   2.379   6.293  11.860  1.1865  0.0887  0.0611
 1432TIP3    H225788   2.300   6.183  11.929  0.3083 -0.2352 -1.4119
 1433TIP3   OH225789   6.295   3.958  11.147  0.9543  0.0345 -0.1554
 1433TIP3    H125790   6.210   4.000  11.138  0.2650 -0.4522  2.8513
 1433TIP3    H225791   6.343   3.981  11.067 -1.3112  1.8684 -1.0822
 1434TIP3   OH225792   6.713   4.296   1.323 -0.5583 -0.5178  0.4580
 1434TIP3    H125793   6.761   4.377   1.339 -0.7143 -0.5145  0.9224
 1434TIP3    H225794   6.746   4.265   1.239 -0.5149  0.0402  0.2657
 1435TIP3   OH225795   4.316   4.845  12.182  0.0826  0.2428  0.5159
 1435TIP3    H125796   4.333   4.832  12.089 -0.6359 -0.5035  0.4689
 1435TIP3    H225797   4.354   4.768  12.224 -1.4898 -0.5390  0.5871
 1436TIP3   OH225798   1.796   6.489  15.037 -0.0725 -1.0113 -0.0234
 1436TIP3    H125799   1.806   6.485  15.132 -0.3361  2.7627  0.3122
 1436TIP3    H225800   1.702   6.495  15.023  0.0442  1.1312 -0.2264
 1437TIP3   OH225801   6.364   2.849  16.069 -0.4010 -0.1748  0.0459
 1437TIP3    H125802   6.311   2.847  16.149 -0.7324  0.6172 -0.1456
 1437TIP3    H225803   6.452   2.826  16.098  0.4600  3.9698  1.4519
 1438TIP3   OH225804   2.862   3.816   2.909  0.0163 -0.1683 -0.1968
 1438TIP3    H125805   2.784   3.761   2.902 -0.4990  0.5565 -0.2870
 1438TIP3    H225806   2.838   3.897   2.864  0.4587  0.4609  0.6695
 1439TIP3   OH225807   1.671   3.584  11.035 -0.2165  0.1874  0.1529
 1439TIP3    H125808   1.731   3.614  10.967  1.1589  0.8610  1.5967
 1439TIP3    H225809   1.592   3.558  10.987  0.0270  2.2471 -1.5599
 1440TIP3   OH225810   6.313   1.335   2.440  0.5621 -0.0105 -0.1167
 1440TIP3    H125811   6.295   1.384   2.360  1.1072 -1.4579 -1.1613
 1440TIP3    H225812   6.380   1.386   2.484  0.5318  0.6095 -0.7614
 1441TIP3   OH225813   1.420   4.900  15.932  0.4980 -0.5380 -0.1337
 1441TIP3    H125814   1.514   4.883  15.931  0.6213  0.1467 -0.5027
 1441TIP3    H225815   1.401   4.933  15.844  0.2136  0.8835  0.4423
 1442TIP3   OH225816   4.191   1.701  11.245  0.5152  0.0381 -0.6329
 1442TIP3    H125817   4.168   1.741  11.161 -0.0798  0.6985 -0.1694
 1442TIP3    H225818   4.138   1.621  11.248  1.1273 -0.3983 -1.2223
 1443TIP3   OH225819   0.196   2.166   1.797  0.0397 -0.0552 -0.0143
 1443TIP3    H125820   0.215   2.081   1.759  1.4508  0.5685 -0.7618
 1443TIP3    H225821   0.230   2.229   1.734 -0.7681  1.0673  0.6309
 1444TIP3   OH225822   2.384   1.864  15.454  0.0206 -0.3174  0.4388
 1444TIP3    H125823   2.453   1.914  15.410  0.7026 -1.4030  0.2297
 1444TIP3    H225824   2.415   1.773  15.452 -1.7514 -0.9605 -0.3053
 1445TIP3   OH225825   4.003   4.702  11.049 -0.5940  0.1922  0.8656
 1445TIP3    H125826   4.030   4.612  11.066  1.5415  0.7311  0.6916
 1445TIP3    H225827   3.908   4.701  11.057 -0.7075 -2.2554 -0.0286
 1446TIP3   OH225828   2.228   4.412   4.045 -0.9233 -0.5870  0.0802
 1446TIP3    H125829   2.173   4.490   4.046 -0.0872  0.0361 -0.5174
 1446TIP3    H225830   2.223   4.377   4.134  0.2079  1.2630  0.9367
 1447TIP3   OH225831   1.486   3.901   2.624 -0.6000  0.2527  0.6554
 1447TIP3    H125832   1.572   3.888   2.662  0.2009 -2.1924 -1.7334
 1447TIP3    H225833   1.426   3.897   2.699  1.2109  0.9425  2.2254
 1448TIP3   OH225834   3.888   5.603   6.369 -0.2397 -0.1091  0.7196
 1448TIP3    H125835   3.829   5.629   6.298  1.7338 -0.7329 -1.3032
 1448TIP3    H225836   3.911   5.685   6.413 -0.6239  0.4595 -0.1168
 1449TIP3   OH225837   2.033   1.574  11.208 -0.5394  0.5668  0.5739
 1449TIP3    H125838   2.077   1.506  11.261  0.9640  2.3613  1.7621
 1449TIP3    H225839   2.102   1.607  11.150 -1.6294  0.1243 -1.0248
 1450TIP3   OH225840   2.828   4.460  14.471  0.2998  0.0733  0.1068
 1450TIP3    H125841   2.768   4.400  14.514  0.9705  0.0919  1.0971
 1450TIP3    H225842   2.835   4.534  14.531  0.3623  0.6284 -0.5758
 1451TIP3   OH225843   5.493   1.483   3.990 -0.4663 -0.4705  0.1911
 1451TIP3    H125844   5.436   1.481   4.066 -2.1603 -0.8724 -1.0300
 1451TIP3    H225845   5.492   1.575   3.962 -0.4554 -0.4603  0.2249
 1452TIP3   OH225846   2.674   4.645  10.987 -0.1173 -0.1695  0.0729
 1452TIP3    H125847   2.610   4.575  10.999  1.3972 -1.8356 -1.0719
 1452TIP3    H225848   2.622   4.726  10.991 -2.0734 -1.3730  0.4404
 1453TIP3   OH225849   2.864   3.962   3.281  0.1123 -0.1653 -0.0843
 1453TIP3    H125850   2.889   4.046   3.320 -0.2405  0.7412 -1.7262
 1453TIP3    H225851   2.857   3.981   3.188 -1.8776 -1.5605 -0.2545
 1454TIP3   OH225852   6.717   4.604   0.181 -0.0729 -0.2842 -0.5125
 1454TIP3    H125853   6.649   4.549   0.219  1.5153 -2.2650 -0.3707
 1454TIP3    H225854   6.762   4.643   0.256 -0.1330 -0.1142 -0.5623
 1455TIP3   OH225855   6.390   2.835  11.406  0.0903  0.2769 -0.6171
 1455TIP3    H125856   6.328   2.776  11.448  0.1502  0.5828 -0.0937
 1455TIP3    H225857   6.466   2.780  11.385  0.1225  0.1548 -0.1831
 1456TIP3   OH225858   6.382   4.525   5.754 -0.6757  0.4446  0.1855
 1456TIP3    H125859   6.393   4.511   5.660 -0.8114 -1.2942  0.3842
 1456TIP3    H225860   6.296   4.566   5.762 -0.3571  1.2800 -0.4741
 1457TIP3   OH225861   5.791   3.998   2.439 -0.4056  0.2238 -0.4325
 1457TIP3    H125862   5.884   3.987   2.460 -0.0360  1.1809 -1.4763
 1457TIP3    H225863   5.767   4.080   2.482 -0.9256 -0.2944  0.2864
 1458TIP3   OH225864   0.037   5.978  11.810 -0.2610  0.0021 -0.3935
 1458TIP3    H125865  -0.011   6.017  11.882 -1.3793 -0.4403 -0.8695
 1458TIP3    H225866  -0.024   5.916  11.771  0.8720 -0.9421 -0.7327
 1459TIP3   OH225867   0.673   3.244   4.323  0.6118 -0.2544  0.0949
 1459TIP3    H125868   0.649   3.244   4.416  0.8729  0.6097  0.1718
 1459TIP3    H225869   0.759   3.201   4.321  1.0936  0.6572  0.4052
 1460TIP3   OH225870   5.122   0.505  15.638  0.2320 -0.7113 -0.5448
 1460TIP3    H125871   5.135   0.466  15.725  1.2570 -0.9818 -0.7988
 1460TIP3    H225872   5.209   0.504  15.599 -0.1023  0.0124 -1.3326
 1461TIP3   OH225873   3.219   2.645   5.435 -0.5131  0.1519  0.1492
 1461TIP3    H125874   3.156   2.687   5.493  1.0534  0.7590  1.4821
 1461TIP3    H225875   3.272   2.716   5.400 -1.0927 -0.2591 -1.6684
 1462TIP3   OH225876   5.527   2.613   2.007  0.3747  0.5004 -0.4407
 1462TIP3    H125877   5.445   2.617   2.056  0.1562 -1.1155 -0.5975
 1462TIP3    H225878   5.574   2.539   2.046 -0.1523 -1.3660 -3.0902
 1463TIP3   OH225879   5.061   5.610   3.803 -0.3868  0.0628  0.5356
 1463TIP3    H125880   5.077   5.702   3.781 -1.1669  0.4588  1.5624
 1463TIP3    H225881   5.148   5.574   3.818 -0.1052  0.7627  0.6459
 1464TIP3   OH225882   4.611   3.915   4.654 -0.1691  0.1222  0.2245
 1464TIP3    H125883   4.689   3.867   4.681  0.0160  0.8076  0.9388
 1464TIP3    H225884   4.610   3.993   4.709  0.0641  1.4426 -1.5470
 1465TIP3   OH225885   6.724   0.705  16.561 -0.0624  0.1389  0.0117
 1465TIP3    H125886   6.641   0.720  16.516 -0.4987 -0.6174  0.5470
 1465TIP3    H225887   6.699   0.687  16.652  0.7017  0.1381  0.2251
 1466TIP3   OH225888   2.199   2.227   1.059 -0.0020  0.0627 -0.1212
 1466TIP3    H125889   2.147   2.173   1.118  1.2727 -0.9551  0.1200
 1466TIP3    H225890   2.146   2.234   0.980 -0.3256 -1.3340 -0.0493
 1467TIP3   OH225891   4.643   4.560   2.531  0.0077 -0.1796 -0.3004
 1467TIP3    H125892   4.555   4.556   2.568 -1.3735 -0.1559 -3.2974
 1467TIP3    H225893   4.674   4.470   2.531  0.0961 -0.1691  0.8970
 1468TIP3   OH225894   2.401   2.671  15.914  0.8621  0.2790 -0.2530
 1468TIP3    H125895   2.342   2.729  15.866 -0.3251 -0.0952  0.6774
 1468TIP3    H225896   2.431   2.608  15.849 -0.2325  0.1354 -0.6452
 1469TIP3   OH225897   0.188   4.549   2.926  0.0726 -0.3933  0.0984
 1469TIP3    H125898   0.164   4.534   2.835  1.3638 -1.0981 -0.1512
 1469TIP3    H225899   0.107   4.580   2.968 -0.2829  0.9022 -1.4792
 1470TIP3   OH225900   2.225   0.432   0.312  0.0925 -0.3993 -0.6504
 1470TIP3    H125901   2.299   0.414   0.254  0.5532  1.1395 -0.5745
 1470TIP3    H225902   2.149   0.435   0.253  0.1201 -1.6064 -0.7750
 1471TIP3   OH225903   0.659   2.495   0.531  0.0429 -0.6865 -0.0132
 1471TIP3    H125904   0.615   2.519   0.449 -0.0645 -1.1235 -0.0889
 1471TIP3    H225905   0.742   2.542   0.529 -0.4553  0.2166  0.1692
 1472TIP3   OH225906   6.496   4.533   4.003  0.1318 -0.0211  0.0752
 1472TIP3    H125907   6.495   4.501   3.913 -0.1673 -0.2649  0.1638
 1472TIP3    H225908   6.588   4.550   4.022  0.0326  2.1324 -1.0254
 1473TIP3   OH225909   0.209   0.680  10.464  0.3046  0.3654 -0.2224
 1473TIP3    H125910   0.240   0.762  10.425  0.5618 -0.3041 -1.4590
 1473TIP3    H225911   0.289   0.640  10.499  0.2433  0.4308 -0.0056
 1474TIP3   OH225912   5.163   5.105   4.550  0.3939  0.0797  0.0685
 1474TIP3    H125913   5.119   5.190   4.542 -1.1110 -0.6003  0.5806
 1474TIP3    H225914   5.161   5.086   4.643  2.1054  0.1509  0.1406
 1475TIP3   OH225915   1.625   1.221   6.170  0.1434 -0.4239  0.4646
 1475TIP3    H125916   1.535   1.223   6.138 -0.6826 -0.8332  2.6573
 1475TIP3    H225917   1.652   1.130   6.160  0.9647 -0.0240 -1.7001
 1476TIP3   OH225918   6.653   4.000   5.677 -0.1544 -0.5697 -0.4268
 1476TIP3    H125919   6.669   4.091   5.655 -0.5264 -0.7143 -1.3420
 1476TIP3    H225920   6.737   3.967   5.709 -0.3055  0.3896  1.0248
 1477TIP3   OH225921   1.084   3.568  13.884  0.7390 -0.0688 -1.1319
 1477TIP3    H125922   1.040   3.648  13.912  1.2400 -0.0846 -0.2680
 1477TIP3    H225923   1.163   3.564  13.937  1.7408 -0.0985 -2.5808
 1478TIP3   OH225924   2.464   1.166  15.952  0.3634  0.3557  0.2429
 1478TIP3    H125925   2.424   1.212  15.878 -1.0896 -0.8255  0.2530
 1478TIP3    H225926   2.490   1.081  15.916  2.0457  0.7347  0.4837
 1479TIP3   OH225927   0.565   5.336   1.467  0.0059 -0.2306  0.1886
 1479TIP3    H125928   0.640   5.286   1.437 -0.7905 -0.5923 -1.2777
 1479TIP3    H225929   0.519   5.277   1.527 -0.5705 -1.0450 -1.0245
 1480TIP3   OH225930   6.353   1.508  14.115 -0.0334 -0.8975  0.3660
 1480TIP3    H125931   6.345   1.445  14.187 -2.4642 -0.8652  0.1845
 1480TIP3    H225932   6.322   1.460  14.038 -1.0259  0.2108  0.0590
 1481TIP3   OH225933   2.819   6.508   1.612  0.1615  0.1457  0.2806
 1481TIP3    H125934   2.906   6.489   1.578  0.1696  0.9446 -0.1703
 1481TIP3    H225935   2.808   6.449   1.687  1.0746  0.0230  0.3212
 1482TIP3   OH225936   1.331   2.051  13.966  0.2447  0.0556 -0.0037
 1482TIP3    H125937   1.398   2.001  14.013  0.8656  1.4610  0.6835
 1482TIP3    H225938   1.372   2.136  13.951 -1.0725  0.6357 -0.3989
 1483TIP3   OH225939   0.844   2.593  11.512  0.2576 -0.0158 -0.4356
 1483TIP3    H125940   0.912   2.526  11.519 -0.4377 -0.6696  0.2497
 1483TIP3    H225941   0.871   2.661  11.574  0.5199 -0.0572 -0.5022
 1484TIP3   OH225942   5.821   0.994   4.557 -0.0678  0.6487  0.0152
 1484TIP3    H125943   5.753   1.054   4.588 -1.4995 -0.2890 -1.2022
 1484TIP3    H225944   5.885   1.051   4.513 -1.0529  1.3606 -0.5250
 1485TIP3   OH225945   1.529   1.206   3.324 -0.2441  0.7749  0.7086
 1485TIP3    H125946   1.483   1.285   3.353  0.5141  1.0197  1.2935
 1485TIP3    H225947   1.618   1.217   3.359 -0.2860 -0.6170  1.2772
 1486TIP3   OH225948   6.510   1.011  14.291 -0.5969 -0.1579  0.5932
 1486TIP3    H125949   6.572   0.995  14.220 -0.4600  1.0584  0.4338
 1486TIP3    H225950   6.447   1.073  14.255 -1.3961 -0.6877  1.0523
 1487TIP3   OH225951   0.645   2.992   2.742  0.1342  0.3808 -0.2494
 1487TIP3    H125952   0.605   2.916   2.784 -1.3116  0.5896 -1.1728
 1487TIP3    H225953   0.581   3.062   2.752  1.1477  1.3068 -0.0156
 1488TIP3   OH225954   6.410   3.120  11.720 -0.3636  0.3701  0.2830
 1488TIP3    H125955   6.358   3.197  11.697  0.5358  0.8565 -0.1673
 1488TIP3    H225956   6.346   3.049  11.726 -0.7701  0.0455 -4.2734
 1489TIP3   OH225957   5.958   5.606  12.585  0.3143 -0.0281 -0.0881
 1489TIP3    H125958   6.040   5.656  12.584  0.0007  0.6065  1.9848
 1489TIP3    H225959   5.906   5.646  12.654 -0.9681 -1.6559 -0.0445
 1490TIP3   OH225960   5.097   5.034   3.457 -0.0659 -0.0546 -0.3852
 1490TIP3    H125961   5.027   5.007   3.398 -0.0734 -0.3818 -0.2280
 1490TIP3    H225962   5.105   5.129   3.443 -1.3075  0.1901  0.4266
 1491TIP3   OH225963   4.594   6.689   4.826 -0.0155 -0.1996 -0.2967
 1491TIP3    H125964   4.649   6.736   4.889  0.1337  0.8998 -1.2115
 1491TIP3    H225965   4.657   6.646   4.768 -0.1519 -0.9241  0.0811
 1492TIP3   OH225966   6.571   6.448  13.734  0.3131 -0.0702 -0.1867
 1492TIP3    H125967   6.651   6.414  13.774 -0.7383 -1.1332  1.1328
 1492TIP3    H225968   6.571   6.541  13.755  1.4987  0.0893 -0.7822
 1493TIP3   OH225969   5.064   6.816   3.571 -0.0718  0.2372 -0.1746
 1493TIP3    H125970   5.029   6.758   3.639  0.0246 -0.0958 -0.4036
 1493TIP3    H225971   5.104   6.888   3.619  0.1709 -0.0947  0.1311
 1494TIP3   OH225972   4.569   2.472   4.981 -0.0145  0.2555 -0.5785
 1494TIP3    H125973   4.487   2.468   4.932  0.9120 -0.7445 -2.1162
 1494TIP3    H225974   4.563   2.401   5.045  1.4904 -3.1397 -3.8315
 1495TIP3   OH225975   2.731   4.249   6.655 -0.3118  0.0984  0.3543
 1495TIP3    H125976   2.768   4.263   6.568  1.2057  0.1789  0.9784
 1495TIP3    H225977   2.664   4.317   6.663  0.6942  1.1869 -0.1248
 1496TIP3   OH225978   6.168   1.549   4.450  1.0905 -0.1443 -0.5168
 1496TIP3    H125979   6.201   1.574   4.536  1.2252  0.8884 -0.8561
 1496TIP3    H225980   6.179   1.627   4.396  1.1776 -0.8311 -1.5279
 1497TIP3   OH225981   6.021   0.205   1.982 -0.0122  0.3115  0.1659
 1497TIP3    H125982   6.079   0.146   1.934 -0.2365 -0.7031  1.1161
 1497TIP3    H225983   6.076   0.245   2.049 -0.7459 -2.1388  2.3710
 1498TIP3   OH225984   3.203   2.768  14.115  0.2066  0.0141 -0.4496
 1498TIP3    H125985   3.164   2.736  14.034 -1.2553  0.8301 -0.1100
 1498TIP3    H225986   3.168   2.710  14.183  2.1849 -1.2799 -0.4649
 1499TIP3   OH225987   1.320   0.706  15.546  0.0866  0.1930 -0.5417
 1499TIP3    H125988   1.415   0.698  15.535  0.5585  1.6423  1.7221
 1499TIP3    H225989   1.310   0.742  15.634 -2.6302 -0.8716 -0.3360
 1500TIP3   OH225990   3.319   4.495   6.041  0.6523  0.4032 -0.2090
 1500TIP3    H125991   3.297   4.466   5.953  2.4093  0.2843 -0.6606
 1500TIP3    H225992   3.236   4.520   6.080 -0.1525  0.6126 -1.9546
 1501TIP3   OH225993   4.514   1.344   2.978  0.3702 -0.3898  0.7006
 1501TIP3    H125994   4.569   1.320   2.903 -0.5734 -0.0381 -0.1213
 1501TIP3    H225995   4.554   1.424   3.012  0.5185 -0.2773  0.2638
 1502TIP3   OH225996   1.320   6.592  16.421 -0.3854  0.4184  0.3697
 1502TIP3    H125997   1.332   6.498  16.408 -0.1746  0.7001 -1.9782
 1502TIP3    H225998   1.404   6.622  16.456 -0.2278 -0.1668  0.5010
 1503TIP3   OH225999   1.640   5.440  10.761  0.2376 -0.0732  0.1940
 1503TIP3    H126000   1.590   5.507  10.714  0.2952 -0.4379 -0.3925
 1503TIP3    H226001   1.697   5.401  10.694 -0.0381 -0.9485  0.4599
 1504TIP3   OH226002   0.349   0.434   3.243  0.0518 -0.1953 -0.1912
 1504TIP3    H126003   0.316   0.510   3.292 -0.0871 -0.5402  0.2648
 1504TIP3    H226004   0.282   0.418   3.177 -0.0196 -0.0446 -0.1585
 1505TIP3   OH226005   1.792   3.483   4.751  0.2899  0.2984 -0.7676
 1505TIP3    H126006   1.741   3.558   4.720 -0.8122 -0.0492  0.1214
 1505TIP3    H226007   1.755   3.463   4.837  3.2217  1.2645  0.8828
 1506TIP3   OH226008   0.951   3.297   1.386 -0.1160 -0.1094  0.6437
 1506TIP3    H126009   0.899   3.289   1.306 -1.5768 -0.4248  1.5757
 1506TIP3    H226010   0.987   3.386   1.382 -1.2501  0.3493  0.2536
 1507TIP3   OH226011   2.615   5.043  15.016  0.5789  0.5897 -0.5701
 1507TIP3    H126012   2.528   5.044  15.057  1.3515  0.6453  1.1307
 1507TIP3    H226013   2.658   5.122  15.047  1.3374  0.4596 -1.2326
 1508TIP3   OH226014   6.478   0.376   0.742 -0.1453 -0.1621 -0.3308
 1508TIP3    H126015   6.388   0.348   0.726 -0.1473 -1.5757  1.7951
 1508TIP3    H226016   6.481   0.398   0.835  1.3757  1.2342 -0.6612
 1509TIP3   OH226017   6.142   5.130  16.569  0.4031  0.1650  0.5879
 1509TIP3    H126018   6.184   5.202  16.616  2.0307 -1.1777  1.2880
 1509TIP3    H226019   6.187   5.126  16.485 -2.6516  2.7054 -1.4313
 1510TIP3   OH226020   4.923   2.036   0.944  0.3115 -0.9503 -0.2478
 1510TIP3    H126021   4.921   1.956   0.996 -0.2209 -1.1579 -0.5819
 1510TIP3    H226022   4.842   2.034   0.893  0.6974 -0.6202 -0.8881
 1511TIP3   OH226023   5.985   2.635   2.064  0.2942 -0.2251  0.0819
 1511TIP3    H126024   6.060   2.677   2.107 -2.2115  1.8677  2.8680
 1511TIP3    H226025   5.980   2.676   1.978  0.9424  1.4809  0.8065
 1512TIP3   OH226026   3.797   4.477  14.691  0.2162 -0.2430  0.3879
 1512TIP3    H126027   3.875   4.503  14.641 -1.2684  2.3368 -0.7950
 1512TIP3    H226028   3.763   4.400  14.644 -1.0104  1.9663 -2.6749
 1513TIP3   OH226029   3.066   0.931   4.562  0.0665  0.0932 -0.0284
 1513TIP3    H126030   3.045   0.912   4.653 -1.5264 -0.9753 -0.5863
 1513TIP3    H226031   3.136   0.870   4.540 -1.0661 -1.2045 -0.1368
 1514TIP3   OH226032   3.195   1.860   2.206  0.2305 -0.4517  0.2812
 1514TIP3    H126033   3.232   1.789   2.154 -0.2965 -1.9740  1.9069
 1514TIP3    H226034   3.106   1.831   2.226 -0.2589  1.0195  0.3686
 1515TIP3   OH226035   6.074   5.812  14.314  0.4005 -0.9103 -0.7580
 1515TIP3    H126036   6.106   5.742  14.370 -0.5363 -0.7014  0.0709
 1515TIP3    H226037   5.989   5.836  14.352 -0.1830 -0.6422 -2.1623
 1516TIP3   OH226038   2.687   4.511  14.966 -0.3999  0.1246  0.5933
 1516TIP3    H126039   2.766   4.525  15.019  1.3941 -1.4232 -1.4899
 1516TIP3    H226040   2.631   4.586  14.986  2.0203  1.8379  1.3999
 1517TIP3   OH226041   5.647   2.522   3.172  0.0450 -0.0162 -0.4437
 1517TIP3    H126042   5.665   2.612   3.199  0.1913  0.6296 -2.5223
 1517TIP3    H226043   5.731   2.477   3.181  0.4883  0.6038 -1.3160
 1518TIP3   OH226044   5.376   1.379   3.258 -0.3320 -0.2212  0.6340
 1518TIP3    H126045   5.367   1.382   3.353 -1.2237 -0.9315  0.5896
 1518TIP3    H226046   5.286   1.367   3.226  0.0212 -0.5484 -0.2669
 1519TIP3   OH226047   3.591   2.666   5.376  0.4332 -0.0436 -0.0477
 1519TIP3    H126048   3.676   2.701   5.404  0.0631  0.1852  0.8315
 1519TIP3    H226049   3.530   2.739   5.387 -0.3425 -0.8878  1.7416
 1520TIP3   OH226050   0.743   2.119   6.331  0.4601  0.3078 -0.2933
 1520TIP3    H126051   0.651   2.097   6.342  0.7374 -2.6466 -2.5435
 1520TIP3    H226052   0.787   2.079   6.405  0.2171 -1.1401 -0.9009
 1521TIP3   OH226053   2.797   2.747   5.217 -0.0120  0.1391 -0.4272
 1521TIP3    H126054   2.802   2.841   5.198 -0.3979  0.3287  0.3400
 1521TIP3    H226055   2.860   2.733   5.287  1.2118 -0.4942 -1.6220
 1522TIP3   OH226056   1.809   0.924  11.733 -0.1348 -0.2073  0.5162
 1522TIP3    H126057   1.894   0.905  11.692 -0.6506 -0.2389 -0.5692
 1522TIP3    H226058   1.780   1.005  11.691 -2.3253 -2.0911 -1.9066
 1523TIP3   OH226059   0.920   0.879  12.907 -0.0907 -0.3425  0.0763
 1523TIP3    H126060   0.887   0.808  12.853  1.4375 -1.6600  0.7906
 1523TIP3    H226061   0.870   0.956  12.879 -3.5627 -2.0581  0.8824
 1524TIP3   OH226062   0.811   1.098   0.185 -0.0446 -0.2224  0.3288
 1524TIP3    H126063   0.757   1.160   0.135 -1.4056 -0.8245  1.0221
 1524TIP3    H226064   0.834   1.030   0.121 -0.9403 -0.4710  0.2554
 1525TIP3   OH226065   3.935   0.868   4.619 -0.3591 -0.1329 -0.1550
 1525TIP3    H126066   3.876   0.793   4.617  1.1365 -1.3452 -0.6364
 1525TIP3    H226067   3.972   0.872   4.531  0.6269  0.3075  0.2647
 1526TIP3   OH226068   1.765   6.071  16.505  0.5963 -0.0637 -0.2745
 1526TIP3    H126069   1.787   6.050  16.596 -0.0390  1.6451  0.3236
 1526TIP3    H226070   1.822   6.145  16.483  0.4539 -0.1997 -1.1372
 1527TIP3   OH226071   4.538   3.160   3.500  0.0446  0.4704  0.1980
 1527TIP3    H126072   4.514   3.140   3.591  1.4988 -0.2301  0.4545
 1527TIP3    H226073   4.566   3.252   3.503 -1.0471  0.8190  0.1997
 1528TIP3   OH226074   5.056   4.705  17.052 -0.7897  0.4031  0.2406
 1528TIP3    H126075   4.970   4.733  17.084 -2.0902 -1.3748 -1.4904
 1528TIP3    H226076   5.041   4.677  16.962  1.2448 -1.6777  0.4431
 1529TIP3   OH226077   0.974   3.157  12.687 -0.8570 -0.2577  0.0867
 1529TIP3    H126078   1.032   3.087  12.717  1.1211  1.7665  1.3176
 1529TIP3    H226079   0.933   3.190  12.767 -0.9154  0.6758 -0.3125
 1530TIP3   OH226080   0.112   3.661  12.551  0.0009  0.1054 -0.4193
 1530TIP3    H126081   0.105   3.574  12.589 -2.1520  0.9271  1.2248
 1530TIP3    H226082   0.072   3.653  12.464  0.3030 -0.6351 -0.4986
 1531TIP3   OH226083   2.231   4.483  13.756 -0.2727 -0.1758  0.0256
 1531TIP3    H126084   2.259   4.449  13.670  0.1782  0.6987 -0.1846
 1531TIP3    H226085   2.143   4.446  13.768 -0.9246  0.7812 -1.4580
 1532TIP3   OH226086   1.238   3.993  16.780 -0.3320 -0.0787 -0.0950
 1532TIP3    H126087   1.264   4.003  16.689 -2.8373 -0.8031 -0.9451
 1532TIP3    H226088   1.292   4.058  16.827 -0.8028  2.1366 -2.4271
 1533TIP3   OH226089   1.341   0.819   5.274  0.2741  0.3614  0.3645
 1533TIP3    H126090   1.337   0.904   5.230  1.5880  0.8242  1.0966
 1533TIP3    H226091   1.426   0.818   5.318 -0.2838 -0.7928  1.4870
 1534TIP3   OH226092   3.235   6.786  16.715  0.0583  0.2243  0.1251
 1534TIP3    H126093   3.210   6.792  16.623  1.6489  0.0498 -0.3455
 1534TIP3    H226094   3.229   6.876  16.748 -0.1534  0.3475 -0.2448
 1535TIP3   OH226095   4.490   6.652   4.568 -0.7722  0.0997  0.0210
 1535TIP3    H126096   4.396   6.666   4.577 -0.6428  0.4999  0.8789
 1535TIP3    H226097   4.528   6.696   4.644  0.0635 -0.5143 -0.0253
 1536TIP3   OH226098   1.104   6.479  11.029 -0.3952  0.4224 -0.0927
 1536TIP3    H126099   1.177   6.463  10.969 -0.2113 -1.5352  0.5881
 1536TIP3    H226100   1.057   6.396  11.032 -0.8208  0.6937  1.9218
 1537TIP3   OH226101   3.300   6.416   3.316 -0.0298 -0.2382  0.5467
 1537TIP3    H126102   3.241   6.424   3.391 -1.0020  1.3900 -0.3296
 1537TIP3    H226103   3.386   6.443   3.350 -0.1075 -1.0333  1.4285
 1538TIP3   OH226104   5.743   1.820  15.412 -0.4401  0.1545 -0.0529
 1538TIP3    H126105   5.761   1.861  15.328 -1.3100  0.4448 -0.1087
 1538TIP3    H226106   5.749   1.891  15.476  0.8297 -0.1807  0.2242
 1539TIP3   OH226107   5.042   3.913   0.427  0.2683 -0.2839 -0.1900
 1539TIP3    H126108   5.102   3.978   0.464 -0.4840  0.2883  0.0585
 1539TIP3    H226109   5.085   3.884   0.346  1.2881 -0.5398  0.4280
 1540TIP3   OH226110   2.695   5.424   3.595  0.6245 -0.6131 -0.7466
 1540TIP3    H126111   2.662   5.338   3.622 -0.1832 -0.4239 -1.0867
 1540TIP3    H226112   2.619   5.482   3.604  0.5293 -0.3788 -2.6258
 1541TIP3   OH226113   6.103   2.743   0.920  0.4669 -0.1833  0.3299
 1541TIP3    H126114   6.029   2.725   0.979  1.1217 -1.6966  0.7292
 1541TIP3    H226115   6.079   2.825   0.876 -2.9774 -2.1433 -1.8860
 1542TIP3   OH226116   5.843   1.132   4.893  0.0040  0.9529  0.0071
 1542TIP3    H126117   5.853   1.195   4.823 -1.2329  0.2057 -0.8734
 1542TIP3    H226118   5.799   1.180   4.963 -1.1038  1.0492 -0.7285
 1543TIP3   OH226119   3.903   3.658   4.210 -0.4427  0.3131 -0.4109
 1543TIP3    H126120   3.914   3.694   4.122 -2.9914  0.7401 -0.6212
 1543TIP3    H226121   3.849   3.580   4.198 -1.8377  1.0336  0.8620
 1544TIP3   OH226122   2.349   1.576  13.649 -0.1243 -0.3022  0.0557
 1544TIP3    H126123   2.304   1.554  13.731  1.5199 -0.8805  0.8595
 1544TIP3    H226124   2.376   1.667  13.660 -0.3724 -0.2140 -0.0691
 1545TIP3   OH226125   3.522   3.430  16.309 -0.1495 -0.6662  0.3266
 1545TIP3    H126126   3.589   3.468  16.366  0.0119  1.6384 -1.2728
 1545TIP3    H226127   3.440   3.467  16.342 -0.3458 -1.3460  0.6106
 1546TIP3   OH226128   5.698   5.641  16.018  0.5419  0.2101 -0.2240
 1546TIP3    H126129   5.689   5.723  16.066  0.3916 -0.3377  0.7101
 1546TIP3    H226130   5.640   5.650  15.943  1.8603  1.6562 -1.1329
 1547TIP3   OH226131   4.810   1.929  12.493  0.7217  0.3087 -0.3629
 1547TIP3    H126132   4.735   1.933  12.435 -0.1330  0.0497  0.6840
 1547TIP3    H226133   4.857   2.011  12.478  0.8646 -0.0206 -1.8361
 1548TIP3   OH226134   1.322   1.409   4.037 -0.7467 -0.2411  0.7831
 1548TIP3    H126135   1.366   1.326   4.024 -0.3562  0.2348 -1.2790
 1548TIP3    H226136   1.368   1.471   3.980 -2.6107  0.7996  0.2998
 1549TIP3   OH226137   3.067   1.016  16.446 -0.1238 -0.2975  0.3665
 1549TIP3    H126138   3.094   0.976  16.529  1.6317 -0.4890 -0.2479
 1549TIP3    H226139   2.972   1.027  16.454 -0.0819 -0.9001  2.1330
 1550TIP3   OH226140   5.157   5.410  16.345 -0.0574 -0.3246  0.5263
 1550TIP3    H126141   5.136   5.387  16.254 -0.6819 -0.5106  0.7154
 1550TIP3    H226142   5.216   5.485  16.337 -0.1067 -0.3389 -0.0354
 1551TIP3   OH226143   2.363   0.212  14.575  0.2037 -0.1477 -0.0147
 1551TIP3    H126144   2.343   0.265  14.653 -0.2953 -0.1955 -0.1064
 1551TIP3    H226145   2.452   0.180  14.590 -0.3246 -1.1615  1.1140
 1552TIP3   OH226146   5.575   3.773   0.706 -0.3569 -0.0224 -0.4143
 1552TIP3    H126147   5.642   3.743   0.766  0.3566  1.0438 -0.6508
 1552TIP3    H226148   5.602   3.738   0.621 -1.6256 -1.9476 -0.1044
 1553TIP3   OH226149   2.505   5.591  11.714  0.0163 -0.1711 -0.4730
 1553TIP3    H126150   2.459   5.508  11.726 -0.4513  0.0625 -0.6259
 1553TIP3    H226151   2.478   5.644  11.789 -0.4420  0.1764 -0.8770
 1554TIP3   OH226152   1.438   5.117  11.448 -0.2293  0.0506 -0.0783
 1554TIP3    H126153   1.407   5.099  11.537  0.4910 -0.7743  0.0234
 1554TIP3    H226154   1.379   5.066  11.393 -0.7418  0.6447 -0.0886
 1555TIP3   OH226155   2.723   6.294   1.758 -0.4449 -0.3436  0.4086
 1555TIP3    H126156   2.794   6.237   1.788 -0.0190 -0.4826 -0.8066
 1555TIP3    H226157   2.643   6.247   1.779 -0.1597 -0.5368  1.0944
 1556TIP3   OH226158   6.660   6.494  11.766 -0.1289  0.6518 -0.0986
 1556TIP3    H126159   6.660   6.548  11.845  0.1212 -0.5692  0.7586
 1556TIP3    H226160   6.752   6.478  11.747 -0.1882 -0.9680  0.7478
 1557TIP3   OH226161   4.399   4.350   6.109  0.4569 -0.0750  0.0988
 1557TIP3    H126162   4.451   4.271   6.102 -1.1745 -1.4696  2.3134
 1557TIP3    H226163   4.412   4.380   6.199 -2.7306 -0.7696  0.9369
 1558TIP3   OH226164   1.256   4.513  15.023  0.0107  0.0414 -0.4971
 1558TIP3    H126165   1.341   4.537  15.061 -0.2787  1.4069 -0.6745
 1558TIP3    H226166   1.206   4.478  15.096 -0.1516  1.5984  0.1616
 1559TIP3   OH226167   0.854   4.152   1.003  0.0615 -0.2092 -0.1891
 1559TIP3    H126168   0.779   4.195   0.963 -0.7894 -0.9134  0.6229
 1559TIP3    H226169   0.832   4.059   1.004  0.7823 -0.3880  0.4005
 1560TIP3   OH226170   6.777   0.119  11.471 -0.2676 -0.4204  0.2566
 1560TIP3    H126171   6.762   0.088  11.382  1.5225  0.7941 -0.5175
 1560TIP3    H226172   6.834   0.053  11.510 -0.2130 -0.4334  0.1553
 1561TIP3   OH226173   6.472   4.227  15.417  0.1017  0.2679  0.0911
 1561TIP3    H126174   6.473   4.145  15.369 -1.5831 -0.4024  1.1164
 1561TIP3    H226175   6.417   4.286  15.364 -0.1564  0.1497  0.2238
 1562TIP3   OH226176   0.634   2.383   2.161  0.2204  0.1723 -0.0923
 1562TIP3    H126177   0.601   2.365   2.073  0.1299  1.8412 -0.4397
 1562TIP3    H226178   0.702   2.450   2.148  0.3513  0.2887  1.0798
 1563TIP3   OH226179   1.419   4.624   4.900 -0.4245  0.4348  0.1773
 1563TIP3    H126180   1.483   4.598   4.966  0.2244  0.8206 -0.2890
 1563TIP3    H226181   1.360   4.548   4.892  0.7470 -0.4505 -0.3279
 1564TIP3   OH226182   1.111   3.221   2.883  0.1237 -0.4686 -0.2310
 1564TIP3    H126183   1.140   3.216   2.974 -0.4434 -0.7914 -0.0627
 1564TIP3    H226184   1.016   3.232   2.888  0.0728 -0.5991 -0.7831
 1565TIP3   OH226185   4.301   6.415  15.242  0.0057  0.1666  0.1526
 1565TIP3    H126186   4.384   6.402  15.287  0.2505  1.5148  0.1224
 1565TIP3    H226187   4.323   6.472  15.168 -0.1571 -2.7722 -2.3770
 1566TIP3   OH226188   0.158   2.624  13.588  0.0830 -0.3524  0.3868
 1566TIP3    H126189   0.074   2.645  13.547 -1.0878 -1.3880  2.1462
 1566TIP3    H226190   0.164   2.685  13.662  1.2883  0.2415 -0.1647
 1567TIP3   OH226191   5.954   3.757   5.672 -0.5407 -0.1187 -0.0850
 1567TIP3    H126192   5.887   3.814   5.633  0.7088  1.6613  0.2214
 1567TIP3    H226193   5.990   3.809   5.744  3.3792  0.4739 -2.1996
 1568TIP3   OH226194   0.763   0.951   5.353 -0.1958  0.0339  0.1048
 1568TIP3    H126195   0.714   0.947   5.435  1.3364  0.8152  1.0849
 1568TIP3    H226196   0.698   0.929   5.286 -0.9720 -3.0382  1.6683
 1569TIP3   OH226197   4.469   0.422   0.449 -0.1803  0.2590 -0.2508
 1569TIP3    H126198   4.498   0.394   0.536  1.4251 -0.1160 -0.8929
 1569TIP3    H226199   4.547   0.459   0.408 -1.2108  1.6033 -1.0881
 1570TIP3   OH226200   6.242   6.179   2.191  0.3208 -0.4368 -0.2391
 1570TIP3    H126201   6.153   6.144   2.194 -0.0166  0.3679 -0.5217
 1570TIP3    H226202   6.259   6.213   2.279 -0.6996  1.8616 -0.8471
 1571TIP3   OH226203   0.976   3.975   3.729  0.0370  0.5995 -0.2407
 1571TIP3    H126204   0.939   4.029   3.799 -0.0651  2.1418 -1.4350
 1571TIP3    H226205   0.946   3.886   3.749 -1.9222  1.3496  0.4075
 1572TIP3   OH226206   5.721   5.162   5.815 -0.4115 -0.1319  0.1477
 1572TIP3    H126207   5.799   5.217   5.811 -0.6620  0.5610  3.0701
 1572TIP3    H226208   5.656   5.209   5.762  0.7960 -0.2384 -1.5167
 1573TIP3   OH226209   2.301   6.797   0.555 -0.2449 -0.2564  0.6825
 1573TIP3    H126210   2.327   6.886   0.533 -2.1411  0.2199  0.1084
 1573TIP3    H226211   2.306   6.749   0.472 -0.3246 -0.3826  0.7509
 1574TIP3   OH226212   2.031   3.821   2.728  0.2255 -0.5023 -0.1902
 1574TIP3    H126213   2.076   3.849   2.808  0.0679 -1.7101  0.3420
 1574TIP3    H226214   2.094   3.841   2.658  1.1918 -1.2284  0.4408
 1575TIP3   OH226215   4.330   2.582   1.823 -0.0031  0.1875 -0.8014
 1575TIP3    H126216   4.340   2.487   1.813 -0.1441 -0.3125  2.5946
 1575TIP3    H226217   4.237   2.597   1.808  0.1996 -0.0108 -2.3857
 1576TIP3   OH226218   0.106   6.098  12.860 -0.1978  0.2793 -0.2847
 1576TIP3    H126219   0.069   6.025  12.909 -0.2700  0.9734  0.7111
 1576TIP3    H226220   0.059   6.096  12.776  0.7582 -1.6313 -0.8282
 1577TIP3   OH226221   1.866   2.363  16.679 -0.4577  0.3030  0.4852
 1577TIP3    H126222   1.950   2.409  16.677 -0.5147  0.3945  0.0637
 1577TIP3    H226223   1.801   2.432  16.673 -0.5981  0.3207  1.9333
 1578TIP3   OH226224   2.902   3.492   1.835  0.1673  0.1504  0.0342
 1578TIP3    H126225   2.842   3.489   1.761 -1.1206 -1.6587  1.0739
 1578TIP3    H226226   2.936   3.582   1.835  0.1580  0.2314 -2.6554
 1579TIP3   OH226227   6.163   4.581   3.264  0.1496 -0.3720  0.0406
 1579TIP3    H126228   6.162   4.677   3.262 -1.0747 -0.3430  0.7132
 1579TIP3    H226229   6.226   4.559   3.332  2.2300 -0.1367 -1.7169
 1580TIP3   OH226230   4.460   1.535  16.477  0.1655  0.7420  0.1998
 1580TIP3    H126231   4.373   1.536  16.516  1.2840  0.4132  2.8866
 1580TIP3    H226232   4.487   1.443  16.479  0.7334  0.8872 -0.2601
 1581TIP3   OH226233   5.986   4.268  15.732  0.2483 -0.0137  0.5490
 1581TIP3    H126234   6.052   4.337  15.730  1.6296 -1.0779 -3.9437
 1581TIP3    H226235   5.918   4.299  15.671  0.3245 -1.9796 -0.6295
 1582TIP3   OH226236   0.775   4.106  14.251 -0.9114  0.3581  0.3328
 1582TIP3    H126237   0.687   4.069  14.241 -0.4353 -1.0585  1.1173
 1582TIP3    H226238   0.760   4.193  14.289 -1.9489 -0.4807  1.9733
 1583TIP3   OH226239   6.008   2.176   0.023 -0.6036  0.1039  0.7195
 1583TIP3    H126240   5.951   2.102   0.004  0.7999 -0.7976 -0.2039
 1583TIP3    H226241   5.961   2.252  -0.011 -0.0680 -0.9549 -2.7319
 1584TIP3   OH226242   5.933   1.259   3.373  0.0943 -0.3711 -0.5380
 1584TIP3    H126243   5.869   1.303   3.430  1.6029 -0.4175  1.2993
 1584TIP3    H226244   5.926   1.166   3.397  0.0138 -0.5462 -1.2130
 1585TIP3   OH226245   1.354   4.605  12.119 -0.1918 -0.1326  0.2109
 1585TIP3    H126246   1.417   4.557  12.172  0.2822 -1.3040 -1.3503
 1585TIP3    H226247   1.274   4.605  12.172  0.1156 -1.6999  0.7389
 1586TIP3   OH226248   0.703   5.015   2.220  0.2240 -0.1756 -0.0427
 1586TIP3    H126249   0.774   5.021   2.285 -1.4629  1.1978  1.8139
 1586TIP3    H226250   0.748   4.996   2.138  2.5818 -0.9702  1.3120
 1587TIP3   OH226251   2.546   5.469  14.370 -0.2744 -0.4368 -0.0619
 1587TIP3    H126252   2.474   5.420  14.410 -0.6142 -1.2247 -1.5813
 1587TIP3    H226253   2.508   5.506  14.290  1.0392 -0.9994 -0.9723
 1588TIP3   OH226254   3.409   2.467   1.093 -0.4392  0.4703  0.5771
 1588TIP3    H126255   3.405   2.438   1.002 -0.4942 -0.1348  0.7676
 1588TIP3    H226256   3.325   2.509   1.109  0.9694  4.2125 -0.8185
 1589TIP3   OH226257   3.570   6.160  14.447  0.3185 -0.5626 -0.2455
 1589TIP3    H126258   3.631   6.171  14.374  1.4601 -1.0375  0.6151
 1589TIP3    H226259   3.568   6.245  14.490 -1.8386  0.3235 -1.8840
 1590TIP3   OH226260   0.303   0.169   5.363 -0.0392  0.3193 -0.8685
 1590TIP3    H126261   0.336   0.084   5.335 -0.3343  0.2516 -1.0088
 1590TIP3    H226262   0.208   0.162   5.357 -0.1433  0.1652  0.5047
 1591TIP3   OH226263   3.797   6.722   5.008 -0.2712  0.4164 -0.4113
 1591TIP3    H126264   3.879   6.728   4.960 -0.7304  1.8628 -1.0766
 1591TIP3    H226265   3.823   6.702   5.098  0.7235 -0.1910 -0.8133
 1592TIP3   OH226266   3.060   0.062  14.139  0.0853 -0.1071 -0.2636
 1592TIP3    H126267   3.025   0.007  14.209 -0.1615  0.1789 -0.1641
 1592TIP3    H226268   3.138   0.015  14.109  0.9208  0.3751  1.0429
 1593TIP3   OH226269   5.948   3.928   0.710 -0.6416  0.3697 -0.1560
 1593TIP3    H126270   5.869   3.925   0.656  0.4372  1.7766 -1.9397
 1593TIP3    H226271   5.959   4.021   0.731  0.9080  0.3128 -0.5912
 1594TIP3   OH226272   1.152   2.537  12.293  0.1443  0.2440 -0.2237
 1594TIP3    H126273   1.159   2.622  12.249 -0.6387  0.3746 -0.1020
 1594TIP3    H226274   1.129   2.557  12.383 -0.7795 -0.1189 -0.3677
 1595TIP3   OH226275   0.477   2.869  12.376 -0.3867 -0.8745  0.4620
 1595TIP3    H126276   0.495   2.958  12.346  0.7969 -0.7766  1.3778
 1595TIP3    H226277   0.390   2.849  12.342 -1.3850  1.2373  1.6181
 1596TIP3   OH226278   5.436   4.998   0.686  0.3888 -0.8158 -0.1719
 1596TIP3    H126279   5.453   4.935   0.615  0.0050 -1.5426  0.3647
 1596TIP3    H226280   5.511   4.990   0.744  0.6228 -0.3445 -0.4111
 1597TIP3   OH226281   1.519   0.006  15.192 -0.5175  0.2244  0.3027
 1597TIP3    H126282   1.536  -0.050  15.268 -0.1410  0.7915  0.6492
 1597TIP3    H226283   1.451   0.066  15.221 -2.3663 -1.2946 -0.7147
 1598TIP3   OH226284   5.563   0.004  14.122  0.2901 -0.1788  0.1397
 1598TIP3    H126285   5.640  -0.039  14.083  0.4608 -0.3234  0.6264
 1598TIP3    H226286   5.518   0.044  14.048  1.3369  0.7024 -0.0494
 1599TIP3   OH226287   2.905   0.870  13.302  0.0093  0.0266  0.2189
 1599TIP3    H126288   2.906   0.816  13.223  1.5494  0.0724  0.1649
 1599TIP3    H226289   2.949   0.951  13.275  1.3008 -0.2729  1.2990
 1600TIP3   OH226290   4.354   0.298   1.153 -0.5706  0.2829 -0.4191
 1600TIP3    H126291   4.424   0.324   1.094  0.5384 -1.1196  0.2231
 1600TIP3    H226292   4.276   0.343   1.120  0.4093  1.0226 -1.7823
 1601TIP3   OH226293   3.397   6.644  12.832 -0.5222  0.6593  0.1897
 1601TIP3    H126294   3.415   6.727  12.877  1.8440 -1.4545  3.5982
 1601TIP3    H226295   3.311   6.618  12.865 -1.6664  2.0120 -1.5390
 1602TIP3   OH226296   4.017   3.980  14.103 -0.0984 -0.0638 -0.0512
 1602TIP3    H126297   3.990   3.899  14.147  1.4544 -0.7370 -0.2601
 1602TIP3    H226298   4.017   3.958  14.010  4.0851 -1.2188 -0.0125
 1603TIP3   OH226299   5.913   3.247  11.198  0.3820  0.5041  0.1171
 1603TIP3    H126300   5.882   3.185  11.132 -0.6872  1.5233 -0.3692
 1603TIP3    H226301   5.994   3.282  11.162  0.5272  0.0382 -0.0098
 1604TIP3   OH226302   1.188   5.165  15.915  0.2415  0.0652 -0.1486
 1604TIP3    H126303   1.210   5.238  15.973  0.4338 -2.7021  3.6910
 1604TIP3    H226304   1.093   5.156  15.922  0.0324  0.7003 -1.7381
 1605TIP3   OH226305   4.059   0.056   2.295 -0.2326 -0.1867 -0.4047
 1605TIP3    H126306   4.088   0.018   2.378 -0.2033  0.1811 -0.2430
 1605TIP3    H226307   4.138   0.098   2.259 -0.4695  0.4916 -0.1462
 1606TIP3   OH226308   1.343   4.227   3.611  0.1387 -0.7151  0.0013
 1606TIP3    H126309   1.287   4.293   3.651  0.1430 -0.8073  0.1606
 1606TIP3    H226310   1.414   4.277   3.570  0.4351 -0.6524  0.5877
 1607TIP3   OH226311   5.285   3.842   4.984 -0.0937  0.0177 -0.5176
 1607TIP3    H126312   5.363   3.821   5.035 -0.4475 -1.7926 -0.6372
 1607TIP3    H226313   5.318   3.895   4.911  1.3949 -2.1585 -1.5678
 1608TIP3   OH226314   6.603   6.446   0.163 -0.1555  0.1153  0.0252
 1608TIP3    H126315   6.660   6.432   0.088  0.9347  0.4080  0.7732
 1608TIP3    H226316   6.538   6.375   0.158  0.2600 -0.2123 -0.8518
 1609TIP3   OH226317   5.037   5.580   0.869 -0.5981  0.0700  0.3911
 1609TIP3    H126318   5.030   5.587   0.774  0.5956 -1.1282  0.1823
 1609TIP3    H226319   4.963   5.630   0.903 -0.1807  1.8195 -1.1326
 1610TIP3   OH226320   5.577   2.095   0.905 -0.5689 -0.0144 -0.2451
 1610TIP3    H126321   5.603   2.179   0.942  0.4025  0.3492 -1.6837
 1610TIP3    H226322   5.594   2.032   0.975 -1.8489  1.0119  1.0735
 1611TIP3   OH226323   6.193   4.792  15.626 -0.0377 -0.0593 -0.1808
 1611TIP3    H126324   6.213   4.878  15.663  1.0965  0.4119 -1.7713
 1611TIP3    H226325   6.108   4.803  15.583 -0.1739  0.0856  0.1196
 1612TIP3   OH226326   5.188   4.318  15.321  0.4349 -0.1662 -0.1324
 1612TIP3    H126327   5.272   4.284  15.353  0.0797  0.6643  1.8430
 1612TIP3    H226328   5.206   4.410  15.299  0.9039 -0.9309 -3.4885
 1613TIP3   OH226329   5.985   4.309  13.830  0.0883 -0.2545 -0.1349
 1613TIP3    H126330   5.980   4.235  13.771 -1.9146 -0.7859  0.6339
 1613TIP3    H226331   5.894   4.331  13.850  0.6661  0.8791  1.5272
 1614TIP3   OH226332   3.802   5.283  14.386 -0.4590 -0.2398  0.6207
 1614TIP3    H126333   3.740   5.211  14.379 -1.5258  0.6944  0.3438
 1614TIP3    H226334   3.852   5.263  14.466 -0.5155 -1.4372  0.3795
 1615TIP3   OH226335   0.456   2.807   5.802  0.2081  0.3002  0.0722
 1615TIP3    H126336   0.388   2.869   5.826 -1.8146 -1.4849 -0.6744
 1615TIP3    H226337   0.520   2.812   5.872 -0.5239  2.2802  0.6485
 1616TIP3   OH226338   3.728   5.427  15.311  0.3559  0.1973 -0.2061
 1616TIP3    H126339   3.648   5.445  15.262  0.9478  1.5038 -0.7327
 1616TIP3    H226340   3.780   5.508  15.304  1.8091 -0.6793 -0.0558
 1617TIP3   OH226341   5.137   1.719   5.427  0.4572 -0.1650  0.0031
 1617TIP3    H126342   5.202   1.668   5.378 -1.9596 -0.2840 -3.4246
 1617TIP3    H226343   5.053   1.686   5.397 -1.2346  2.2522  1.7108
 1618TIP3   OH226344   5.081   1.105   2.214 -0.3578 -0.4573 -0.2374
 1618TIP3    H126345   5.159   1.050   2.216  0.3260  0.4867 -0.2699
 1618TIP3    H226346   5.039   1.084   2.130  0.5802 -0.0257 -0.8357
 1619TIP3   OH226347   2.651   0.091  13.081  0.2004 -0.5240 -0.4719
 1619TIP3    H126348   2.610   0.035  13.147  0.7301 -2.0571 -1.4111
 1619TIP3    H226349   2.745   0.074  13.089  0.7599  2.5713  1.3086
 1620TIP3   OH226350   2.229   2.118  14.992 -0.0811  0.3890  0.1140
 1620TIP3    H126351   2.153   2.118  14.934 -0.3351 -0.8434  0.4092
 1620TIP3    H226352   2.278   2.197  14.969 -0.7532  0.4958 -0.9958
 1621TIP3   OH226353   3.087   1.790  13.475  0.0441  0.0002  0.0386
 1621TIP3    H126354   3.075   1.766  13.383 -1.3608  0.2245  0.1409
 1621TIP3    H226355   3.038   1.724  13.524  0.3299  0.1946  0.5943
 1622TIP3   OH226356   4.080   5.636  13.219  0.1561 -0.0284  0.4027
 1622TIP3    H126357   4.081   5.543  13.243 -2.2083 -0.0617  0.6101
 1622TIP3    H226358   4.113   5.637  13.129 -1.2664 -1.3196 -0.1844
 1623TIP3   OH226359   1.751   2.829  12.612  0.0410  0.0398  0.0797
 1623TIP3    H126360   1.740   2.849  12.518  0.9324  1.5388  0.2703
 1623TIP3    H226361   1.782   2.910  12.650  1.0551 -0.9616  1.4593
 1624TIP3   OH226362   0.571   4.634   3.197  0.5826  0.1290  0.2176
 1624TIP3    H126363   0.561   4.632   3.102 -0.4233  1.2364  0.2704
 1624TIP3    H226364   0.483   4.652   3.230  1.2498  1.8334  1.2412
 1625TIP3   OH226365   4.719   0.413   2.179 -0.3623  0.2998 -0.3037
 1625TIP3    H126366   4.704   0.318   2.174 -1.0508  0.4711 -2.2277
 1625TIP3    H226367   4.722   0.431   2.273 -0.4016 -1.5955  0.1159
 1626TIP3   OH226368   1.108   3.879   4.801 -0.2904 -0.7503 -0.0411
 1626TIP3    H126369   1.187   3.907   4.754 -0.9530 -0.1930 -0.8471
 1626TIP3    H226370   1.105   3.784   4.788 -0.0037 -0.7118 -0.4040
 1627TIP3   OH226371   1.838   5.328   0.439 -0.0084  0.3994  0.1791
 1627TIP3    H126372   1.897   5.381   0.492 -0.1517 -0.2581  1.0187
 1627TIP3    H226373   1.891   5.254   0.411 -0.3021  0.0389  0.5590
 1628TIP3   OH226374   4.100   6.512  15.505 -0.5401 -0.3787  0.0417
 1628TIP3    H126375   4.181   6.536  15.549  0.5364 -3.6848  0.0803
 1628TIP3    H226376   4.116   6.534  15.413 -0.0697  0.0854  0.2298
 1629TIP3   OH226377   2.772   1.218   4.236  0.5110 -0.6973  0.6711
 1629TIP3    H126378   2.857   1.254   4.213 -1.4868  2.8931 -2.2385
 1629TIP3    H226379   2.751   1.257   4.321  1.3708 -0.9094  0.9906
 1630TIP3   OH226380   0.675   1.339  10.907 -0.2927  0.0872  0.0264
 1630TIP3    H126381   0.749   1.293  10.867 -0.3573 -0.5517  0.6119
 1630TIP3    H226382   0.600   1.317  10.851 -0.3387 -0.6071  0.3517
 1631TIP3   OH226383   2.804   6.083  14.466  0.1455 -0.2428 -0.0790
 1631TIP3    H126384   2.747   6.027  14.519 -0.1500  0.2848  0.1685
 1631TIP3    H226385   2.747   6.151  14.432  0.2817 -0.6874 -1.2730
 1632TIP3   OH226386   2.456   3.442  17.077 -0.1364  0.1672 -0.3179
 1632TIP3    H126387   2.425   3.424  17.165  2.2554  0.3191  0.6280
 1632TIP3    H226388   2.460   3.356  17.035  0.1979 -0.0969  0.2474
 1633TIP3   OH226389   0.686   3.821  17.063  0.0021  0.2050 -0.3470
 1633TIP3    H126390   0.775   3.847  17.086 -0.2036  0.1291  0.5933
 1633TIP3    H226391   0.649   3.787  17.145 -1.2530  1.2246 -0.4568
 1634TIP3   OH226392   4.071   1.993  12.532  0.2437  0.0723  0.3059
 1634TIP3    H126393   4.053   2.036  12.615  0.3219 -3.2031  2.1968
 1634TIP3    H226394   4.105   1.907  12.556 -0.7528 -1.4685 -3.1112
 1635TIP3   OH226395   3.464   2.036  12.171 -0.6853 -0.3139  0.0829
 1635TIP3    H126396   3.506   1.966  12.222 -1.0728  0.3123  1.3041
 1635TIP3    H226397   3.372   2.010  12.165 -1.1193  0.7236  1.7311
 1636TIP3   OH226398   3.256   6.492  15.526 -0.2691 -0.2389 -0.6404
 1636TIP3    H126399   3.329   6.475  15.587 -1.4764 -0.6450  0.7564
 1636TIP3    H226400   3.178   6.486  15.581 -1.4448 -0.9353 -2.3229
 1637TIP3   OH226401   1.249   1.435  11.750 -0.0064  0.7892  0.3377
 1637TIP3    H126402   1.222   1.444  11.659  1.0017 -0.2924 -0.0957
 1637TIP3    H226403   1.198   1.362  11.784  2.9120 -1.9875 -0.7993
 1638TIP3   OH226404   4.407   1.801   3.373  0.3462  0.1334 -0.1974
 1638TIP3    H126405   4.314   1.821   3.382  0.7138  1.4402  1.1117
 1638TIP3    H226406   4.417   1.714   3.412 -0.3737 -0.1357 -0.6160
 1639TIP3   OH226407   2.643   4.318  16.552 -0.2841 -0.1794 -0.0002
 1639TIP3    H126408   2.605   4.240  16.592 -0.3404  0.0839  0.4710
 1639TIP3    H226409   2.570   4.359  16.505 -0.4764  0.0723  0.5093
 1640TIP3   OH226410   0.947   2.052   6.143  0.1172 -0.4589 -0.3677
 1640TIP3    H126411   1.040   2.046   6.167  0.3315  0.6840 -0.8368
 1640TIP3    H226412   0.900   2.045   6.226  0.5105 -2.5060 -0.2481
 1641TIP3   OH226413   5.341   0.725  14.466 -0.3126 -0.0822 -0.4648
 1641TIP3    H126414   5.304   0.762  14.385  0.7727 -1.5095 -1.6639
 1641TIP3    H226415   5.279   0.657  14.491 -0.3943  0.0301 -0.3574
 1642TIP3   OH226416   0.839   0.486   1.393  0.1490 -0.4843  0.3114
 1642TIP3    H126417   0.815   0.452   1.479 -0.8795  0.8110  0.5667
 1642TIP3    H226418   0.789   0.567   1.384  1.1185  0.0101 -1.0298
 1643TIP3   OH226419   3.172   3.211  11.063 -0.0099  0.5791 -0.3240
 1643TIP3    H126420   3.103   3.196  10.999  0.4749 -0.3495 -0.6469
 1643TIP3    H226421   3.170   3.306  11.079 -0.9874  0.6330 -0.7320
 1644TIP3   OH226422   5.027   0.270   6.401 -0.2906  0.1355 -0.2627
 1644TIP3    H126423   5.076   0.235   6.475 -0.1284 -1.6717 -1.1516
 1644TIP3    H226424   5.090   0.269   6.329 -1.1409 -0.6692 -1.0313
 1645TIP3   OH226425   6.631   2.217   0.486 -0.5246 -0.3921  0.3483
 1645TIP3    H126426   6.557   2.264   0.447 -0.3465 -0.6662 -0.3445
 1645TIP3    H226427   6.617   2.125   0.460  0.8262 -0.2428 -1.0801
 1646TIP3   OH226428   6.418   6.589  12.748 -0.0054  0.4091 -0.0545
 1646TIP3    H126429   6.493   6.541  12.784 -1.2517 -0.3095  1.7549
 1646TIP3    H226430   6.428   6.678  12.782 -0.7666 -0.0783  1.5430
 1647TIP3   OH226431   4.877   0.003   1.503 -0.5911  0.4676 -0.6078
 1647TIP3    H126432   4.860   0.065   1.431 -2.0527  1.3344  0.4352
 1647TIP3    H226433   4.968   0.019   1.526 -0.5697  1.3297 -1.2120
 1648TIP3   OH226434   1.644   1.594  16.044 -0.1623 -0.6308 -0.4240
 1648TIP3    H126435   1.701   1.622  16.116  0.4391  0.1661 -1.1887
 1648TIP3    H226436   1.567   1.649  16.051  0.2947  0.0900 -0.9234
 1649TIP3   OH226437   2.060   2.787   2.021  0.0031  0.1971 -0.1385
 1649TIP3    H126438   2.095   2.876   2.032  0.4008  0.1900 -1.1833
 1649TIP3    H226439   1.989   2.798   1.957 -0.5970 -0.0956  0.4674
 1650TIP3   OH226440   6.223   2.084   4.771  0.2114  0.4439 -0.3525
 1650TIP3    H126441   6.211   2.170   4.811  0.8093  0.9090 -1.1532
 1650TIP3    H226442   6.317   2.069   4.773 -0.0265 -1.5767  2.5783
 1651TIP3   OH226443   1.139   6.634  14.380  0.1756 -0.3341 -0.1762
 1651TIP3    H126444   1.063   6.594  14.338  0.9002 -1.6593 -0.2971
 1651TIP3    H226445   1.204   6.564  14.382  1.2365  0.6377  0.3325
 1652TIP3   OH226446   6.620   4.331   3.759 -0.7789  1.1772 -0.0105
 1652TIP3    H126447   6.620   4.427   3.755 -2.9604  1.6108  4.2451
 1652TIP3    H226448   6.528   4.308   3.769 -0.0955 -1.0536  1.9164
 1653TIP3   OH226449   4.250   2.450   0.020  0.3105  0.2207 -0.2993
 1653TIP3    H126450   4.223   2.449   0.112  0.0332  0.1998 -0.3799
 1653TIP3    H226451   4.182   2.400  -0.025  0.5724  0.0283 -0.4818
 1654TIP3   OH226452   2.984   5.471   3.932 -0.1709  0.1799 -0.1144
 1654TIP3    H126453   2.948   5.484   3.844 -0.7498 -0.9011 -0.0663
 1654TIP3    H226454   2.912   5.493   3.991 -0.6502 -1.5114 -0.0041
 1655TIP3   OH226455   0.516   6.128   4.378 -0.3011  0.0345  0.1771
 1655TIP3    H126456   0.534   6.035   4.394 -3.1126 -0.4867  0.9151
 1655TIP3    H226457   0.520   6.168   4.464 -3.0488 -0.2814  0.5441
 1656TIP3   OH226458   3.272   5.875   1.295 -0.5579  0.3928 -0.6097
 1656TIP3    H126459   3.199   5.814   1.288 -3.2553  3.3584 -0.6234
 1656TIP3    H226460   3.268   5.927   1.215  0.7457  1.5002 -0.0092
 1657TIP3   OH226461   0.784   5.645  10.980  0.6534 -0.2359 -0.4044
 1657TIP3    H126462   0.841   5.577  11.015  0.6507 -0.0927 -0.1236
 1657TIP3    H226463   0.714   5.654  11.045  1.7209  1.4752  0.5987
 1658TIP3   OH226464   6.230   6.078  15.165 -0.1325  0.3498  0.2969
 1658TIP3    H126465   6.207   5.994  15.125  2.1115  0.7202 -2.1057
 1658TIP3    H226466   6.317   6.063  15.204 -0.9976  0.8249  2.5693
 1659TIP3   OH226467   6.520   3.295   4.330  0.4937 -0.3441 -0.5673
 1659TIP3    H126468   6.503   3.389   4.325  1.1003 -0.2232 -0.3832
 1659TIP3    H226469   6.462   3.256   4.264 -0.2524  0.0896 -0.1813
 1660TIP3   OH226470   3.582   1.505  15.315 -0.8764  0.0145  0.3164
 1660TIP3    H126471   3.664   1.503  15.266 -0.8788  2.3715  0.1110
 1660TIP3    H226472   3.606   1.536  15.402 -1.5394  0.9378  0.1910
 1661TIP3   OH226473   5.438   1.331   2.012  0.2911 -0.5812  0.1146
 1661TIP3    H126474   5.388   1.254   2.038 -1.2146  0.2826 -0.1109
 1661TIP3    H226475   5.455   1.319   1.918 -3.2671  1.0240 -0.9027
 1662TIP3   OH226476   0.058   3.098  12.859 -0.3035  0.3431  0.4686
 1662TIP3    H126477   0.058   3.056  12.945 -0.9020 -2.2497 -0.7079
 1662TIP3    H226478   0.148   3.086  12.826  0.0091  1.5959  0.8066
 1663TIP3   OH226479   2.878   6.548  11.426 -0.2394 -0.0997  0.1983
 1663TIP3    H126480   2.936   6.562  11.351  1.9104 -0.2255  1.7678
 1663TIP3    H226481   2.818   6.622  11.425  1.0321  0.9440 -0.5056
 1664TIP3   OH226482   3.850   0.606   1.280  0.2273  0.5404  0.7071
 1664TIP3    H126483   3.790   0.605   1.205  1.3172 -0.6886 -0.1843
 1664TIP3    H226484   3.877   0.698   1.288 -1.3547  1.0242  0.8144
 1665TIP3   OH226485   6.023   0.787   2.350 -0.2710  0.4183  0.0754
 1665TIP3    H126486   6.009   0.858   2.287 -1.7564  0.0222 -0.0855
 1665TIP3    H226487   6.051   0.831   2.430 -1.7684  1.2793  0.1684
 1666TIP3   OH226488   3.333   3.306   5.639 -0.3852  0.5524  0.0013
 1666TIP3    H126489   3.324   3.400   5.649 -1.3729  0.3733  0.9863
 1666TIP3    H226490   3.265   3.269   5.695  0.4543 -0.7678  0.2061
 1667TIP3   OH226491   0.382   5.999   0.798 -0.0904  0.5564 -1.1088
 1667TIP3    H126492   0.394   6.081   0.749 -2.3408 -0.4921 -3.6638
 1667TIP3    H226493   0.313   5.953   0.751 -0.8803 -1.6133  1.8732
 1668TIP3   OH226494   5.657   6.061   3.909 -0.4616 -0.5446  0.9921
 1668TIP3    H126495   5.649   6.114   3.988  0.2860 -0.7404  1.2112
 1668TIP3    H226496   5.688   5.976   3.940 -0.1725 -0.6269  0.4917
 1669TIP3   OH226497   0.968   4.763  15.337 -0.1499 -0.2337 -0.0935
 1669TIP3    H126498   0.927   4.787  15.254 -2.3453 -3.7590 -0.2420
 1669TIP3    H226499   0.895   4.736  15.393  1.5570 -1.4806  1.6584
 1670TIP3   OH226500   1.589   0.902  11.357 -0.0619 -0.0547  0.6639
 1670TIP3    H126501   1.528   0.876  11.427  0.0694  0.2310  0.8869
 1670TIP3    H226502   1.586   0.997  11.357  1.4380  0.0222  1.6232
 1671TIP3   OH226503   6.314   4.366  15.125  0.0319  0.1736 -0.6887
 1671TIP3    H126504   6.281   4.278  15.105  0.3017  0.0539 -0.6174
 1671TIP3    H226505   6.252   4.425  15.083  0.2141 -0.0630 -1.3103
 1672TIP3   OH226506   6.564   6.029   1.705 -0.1089  0.6270 -0.3096
 1672TIP3    H126507   6.628   6.095   1.678  0.6942 -0.7140 -1.8902
 1672TIP3    H226508   6.550   5.976   1.627 -1.2458 -0.6702  0.7251
 1673TIP3   OH226509   6.655   0.624  16.267  0.3662  0.1466 -0.0066
 1673TIP3    H126510   6.709   0.695  16.230 -0.9376  2.8264  2.7589
 1673TIP3    H226511   6.698   0.601  16.349 -0.6239 -0.3879  0.3825
 1674TIP3   OH226512   2.285   5.708  14.775  0.2117 -0.0268 -0.3240
 1674TIP3    H126513   2.299   5.617  14.747  1.9018  0.0814  0.0950
 1674TIP3    H226514   2.192   5.724  14.756 -0.2849 -2.0289  0.1427
 1675TIP3   OH226515   0.046   1.528   5.600  0.1587  0.6125  0.1162
 1675TIP3    H126516   0.121   1.584   5.621  1.1226 -0.1271 -1.1630
 1675TIP3    H226517   0.081   1.439   5.605 -0.8951  0.2122  0.4338
 1676TIP3   OH226518   3.985   5.974   2.893 -0.0717 -0.3488 -0.0515
 1676TIP3    H126519   4.038   5.995   2.816  1.3590 -2.0233  0.3918
 1676TIP3    H226520   4.033   5.903   2.935 -2.6205 -1.8369  0.5060
 1677TIP3   OH226521   6.795   5.397  11.923  0.1510  0.5027 -0.6324
 1677TIP3    H126522   6.750   5.406  11.839 -0.3697  0.2116 -0.3909
 1677TIP3    H226523   6.844   5.315  11.915 -1.6625 -0.7078  0.1312
 1678TIP3   OH226524   1.811   3.000   2.774 -0.5875  0.2563  0.2559
 1678TIP3    H126525   1.873   2.928   2.786  0.1532  1.0594  1.5726
 1678TIP3    H226526   1.726   2.962   2.794 -0.5028 -0.7356 -1.0637
 1679TIP3   OH226527   4.439   1.702  12.913 -0.5790 -0.3451 -0.0405
 1679TIP3    H126528   4.371   1.757  12.874  0.2549 -0.2694 -1.4721
 1679TIP3    H226529   4.393   1.623  12.943 -1.6626  0.7676  1.3421
 1680TIP3   OH226530   6.829   4.464   4.220 -0.1696 -0.1287 -0.3982
 1680TIP3    H126531   6.881   4.476   4.141  0.8113  0.6915  0.3356
 1680TIP3    H226532   6.801   4.373   4.218  2.0392 -0.8449 -0.4065
 1681TIP3   OH226533   6.581   2.894   2.682 -0.0741  0.5578 -0.4391
 1681TIP3    H126534   6.508   2.954   2.695 -0.5037 -0.1353  0.4561
 1681TIP3    H226535   6.616   2.880   2.770 -0.2232 -0.8042 -0.5852
 1682TIP3   OH226536   3.429   6.755  14.599  0.4999  0.3615 -0.0501
 1682TIP3    H126537   3.407   6.839  14.559 -1.0597 -0.0138 -0.0359
 1682TIP3    H226538   3.418   6.771  14.693  0.1697  0.1382 -0.0506
 1683TIP3   OH226539   2.221   5.874  11.921 -0.2068  0.2173 -0.3788
 1683TIP3    H126540   2.189   5.927  11.848  1.6340  1.2727 -0.5094
 1683TIP3    H226541   2.171   5.904  11.996 -0.9328  0.3467 -0.9061
 1684TIP3   OH226542   5.297   5.810  14.865 -0.7437 -0.0405  0.0118
 1684TIP3    H126543   5.363   5.804  14.934  0.2368 -0.1969 -0.9253
 1684TIP3    H226544   5.214   5.818  14.913  0.0168  1.1574  1.2029
 1685TIP3   OH226545   6.192   0.589   0.213  0.5064 -0.4426 -0.5857
 1685TIP3    H126546   6.103   0.566   0.242  0.6835 -0.2490  0.1262
 1685TIP3    H226547   6.203   0.680   0.240  1.3017 -0.7822  0.3092
 1686TIP3   OH226548   5.574   6.019  11.270 -0.4064 -0.0570  0.1236
 1686TIP3    H126549   5.531   6.105  11.261 -0.7042 -0.1909  0.2616
 1686TIP3    H226550   5.650   6.037  11.324 -0.7213  0.0388  0.5439
 1687TIP3   OH226551   6.652   3.423  12.714 -0.6660 -0.0287  0.1238
 1687TIP3    H126552   6.726   3.386  12.665  0.3233  1.6063  0.2927
 1687TIP3    H226553   6.578   3.366  12.694  0.5180 -1.4074 -0.4866
 1688TIP3   OH226554   5.296   5.040   5.870 -0.1804  0.5645  0.3195
 1688TIP3    H126555   5.308   5.090   5.790 -1.3328  1.5018  0.7004
 1688TIP3    H226556   5.358   5.078   5.932  1.7866 -1.1466 -0.5116
 1689TIP3   OH226557   4.923   2.852  11.607  0.0394 -0.0893  0.5169
 1689TIP3    H126558   4.994   2.883  11.551 -1.5982  0.9062 -1.1189
 1689TIP3    H226559   4.859   2.816  11.546 -1.1487 -0.3865  1.8946
 1690TIP3   OH226560   3.639   1.728  13.046  0.3045 -0.4365  0.1054
 1690TIP3    H126561   3.726   1.744  13.083  0.8786  1.5701 -1.8951
 1690TIP3    H226562   3.655   1.712  12.953 -1.4985  0.8856 -0.4827
 1691TIP3   OH226563   3.973   5.548   4.620  0.2043  0.1325  0.1259
 1691TIP3    H126564   4.021   5.471   4.591  1.6365  0.2842  1.9320
 1691TIP3    H226565   4.029   5.622   4.596  0.0340  0.4318  0.6254
 1692TIP3   OH226566   3.889   5.890   0.210  0.2531 -0.3063  0.6690
 1692TIP3    H126567   3.872   5.813   0.157  0.3383 -0.9321  1.5283
 1692TIP3    H226568   3.857   5.963   0.157  0.7382 -0.8607 -0.4196
 1693TIP3   OH226569   3.772   4.511   0.497  0.3849 -0.0183 -0.3015
 1693TIP3    H126570   3.702   4.532   0.559  0.6413 -1.2832  0.4453
 1693TIP3    H226571   3.800   4.596   0.462 -0.1552  0.6646  0.8808
 1694TIP3   OH226572   1.107   5.453   1.246  1.0812 -0.1585 -0.0633
 1694TIP3    H126573   1.013   5.456   1.229  0.9506  0.3094  0.6669
 1694TIP3    H226574   1.139   5.540   1.223  1.7373 -0.9592 -2.3583
 1695TIP3   OH226575   5.945   6.050   4.014 -0.6912 -0.4782 -0.2836
 1695TIP3    H126576   5.860   6.066   4.055 -0.9220  1.7370 -1.4625
 1695TIP3    H226577   6.009   6.089   4.073 -0.2837 -3.0475  1.1286
 1696TIP3   OH226578   6.166   6.461  11.272 -0.2925 -0.0853  0.7688
 1696TIP3    H126579   6.190   6.386  11.219 -0.7994 -0.0483  0.4807
 1696TIP3    H226580   6.244   6.481  11.324  0.0255 -0.4530  0.4278
 1697TIP3   OH226581   4.420   5.644   4.673 -0.7183  0.1997 -0.0642
 1697TIP3    H126582   4.483   5.604   4.613 -0.2637  0.1343  0.4447
 1697TIP3    H226583   4.335   5.608   4.646 -0.6611  0.9148 -1.2839
 1698TIP3   OH226584   1.987   6.610  16.334  0.0574 -0.1535  0.0844
 1698TIP3    H126585   2.013   6.522  16.307  0.0917 -0.4820  1.1468
 1698TIP3    H226586   1.893   6.604  16.348  0.1475 -0.1770  0.7063
 1699TIP3   OH226587   0.616   6.147  14.108 -0.8227 -0.1671  0.0376
 1699TIP3    H126588   0.628   6.223  14.164  0.2762  1.4263 -2.2159
 1699TIP3    H226589   0.704   6.119  14.085 -1.2200 -0.6299 -1.0248
 1700TIP3   OH226590   5.076   2.156  12.131 -0.2816 -0.3416  0.4265
 1700TIP3    H126591   5.070   2.220  12.061  3.3305  0.2701  0.4926
 1700TIP3    H226592   5.002   2.176  12.189 -0.7734  2.0187 -0.9027
 1701TIP3   OH226593   3.263   3.305   5.190 -0.0064 -0.1607  0.5920
 1701TIP3    H126594   3.296   3.376   5.246 -1.9303  1.2778 -0.0066
 1701TIP3    H226595   3.188   3.343   5.144 -1.5825 -2.8035  0.7830
 1702TIP3   OH226596   1.818   6.266   4.052  0.3628 -0.3858 -0.1821
 1702TIP3    H126597   1.887   6.294   4.111 -0.4774  0.2418  0.5331
 1702TIP3    H226598   1.842   6.177   4.026  0.8406 -0.5973  0.9506
 1703TIP3   OH226599   0.781   1.218  14.295  0.4890  0.3197  0.0865
 1703TIP3    H126600   0.738   1.236  14.212 -1.5956 -3.9654 -0.0728
 1703TIP3    H226601   0.709   1.194  14.354  2.1724 -0.0949  2.0708
 1704TIP3   OH226602   4.020   3.981   2.840 -0.2771 -0.0644  0.1233
 1704TIP3    H126603   4.068   3.919   2.896  1.6723  1.8040  0.6829
 1704TIP3    H226604   4.036   4.066   2.881 -2.0106  0.9393 -1.1819
 1705TIP3   OH226605   4.063   1.403   0.452 -0.1095  0.2866  0.0532
 1705TIP3    H126606   4.062   1.314   0.488  0.9046 -0.0491 -0.7065
 1705TIP3    H226607   4.155   1.429   0.457 -0.3695  1.2163  0.0657
 1706TIP3   OH226608   5.149   5.485  15.513  0.1501  0.0527 -0.6176
 1706TIP3    H126609   5.204   5.441  15.578 -1.5230 -0.7662  0.3016
 1706TIP3    H226610   5.083   5.420  15.488 -0.0418  0.7824 -2.1767
 1707TIP3   OH226611   1.328   4.617   3.592  0.5145 -0.7306 -0.4718
 1707TIP3    H126612   1.321   4.697   3.644  0.0753  0.5487 -2.3520
 1707TIP3    H226613   1.399   4.635   3.530  0.8533 -2.0757 -0.5036
 1708TIP3   OH226614   2.264   5.489   3.908  0.0845 -0.4582  0.1117
 1708TIP3    H126615   2.198   5.488   3.977 -0.1567 -1.1238 -0.1259
 1708TIP3    H226616   2.255   5.405   3.863  0.6666 -0.3002 -0.3290
 1709TIP3   OH226617   2.424   0.546  16.182 -0.6768 -0.1589 -0.6224
 1709TIP3    H126618   2.512   0.529  16.216 -1.8348 -0.1075  2.7919
 1709TIP3    H226619   2.401   0.466  16.134 -0.8260 -2.9387  3.4778
 1710TIP3   OH226620   5.872   3.212   5.984 -0.5287 -0.4989  0.0426
 1710TIP3    H126621   5.785   3.224   5.947 -1.0723 -0.9543  1.1269
 1710TIP3    H226622   5.864   3.242   6.075  0.8205  0.8351 -0.2310
 1711TIP3   OH226623   4.167   4.756  16.481  0.2493  0.2463  0.0763
 1711TIP3    H126624   4.201   4.730  16.395 -0.9434 -0.0163 -0.3278
 1711TIP3    H226625   4.176   4.851  16.483 -0.4928  0.3468 -0.6964
 1712TIP3   OH226626   6.798   5.909   2.041 -0.5611  1.0364  0.0497
 1712TIP3    H126627   6.879   5.958   2.027  1.6828 -2.1043  1.0178
 1712TIP3    H226628   6.772   5.880   1.954  0.7949  0.0626 -0.0620
 1713TIP3   OH226629   2.531   6.377   1.365  0.1686 -0.4016  0.1133
 1713TIP3    H126630   2.495   6.306   1.419 -1.6267 -1.3594 -2.1781
 1713TIP3    H226631   2.482   6.455   1.393  1.0482 -0.3298  1.5538
 1714TIP3   OH226632   1.942   2.687  16.300  0.2078 -0.2975  0.1187
 1714TIP3    H126633   2.026   2.725  16.324  0.5871 -0.5255 -0.7870
 1714TIP3    H226634   1.877   2.736  16.350  0.8813 -0.1405  0.8527
 1715TIP3   OH226635   3.678   4.883   3.989 -0.3581 -0.0809  0.0308
 1715TIP3    H126636   3.733   4.804   3.987  1.7187  1.3069 -0.0834
 1715TIP3    H226637   3.678   4.914   3.899 -1.2657 -0.0013  0.0528
 1716TIP3   OH226638   1.081   3.157   3.560  0.2424 -0.7749  1.2015
 1716TIP3    H126639   1.059   3.065   3.552  0.4594 -0.7121 -0.5116
 1716TIP3    H226640   1.001   3.204   3.537  0.4792 -0.5364  0.8549
 1717TIP3   OH226641   6.500   5.170  15.761  0.0434 -0.2470 -0.0862
 1717TIP3    H126642   6.592   5.160  15.786  0.0008 -3.0419 -0.6520
 1717TIP3    H226643   6.490   5.115  15.683 -1.8330  1.0671 -0.8551
 1718TIP3   OH226644   3.424   2.473   6.632 -0.1228 -0.2800  0.5824
 1718TIP3    H126645   3.349   2.420   6.606 -0.7751  0.9568 -0.0986
 1718TIP3    H226646   3.388   2.560   6.649  1.3146  0.6763 -0.9907
 1719TIP3   OH226647   5.507   0.898  16.746 -0.4767  0.3436  0.3530
 1719TIP3    H126648   5.485   0.819  16.696  1.1305 -0.4817  0.8668
 1719TIP3    H226649   5.520   0.965  16.679 -0.4360 -0.1975 -0.1979
 1720TIP3   OH226650   4.377   0.235  13.187  0.3010  0.3174  0.0160
 1720TIP3    H126651   4.390   0.321  13.149 -0.3881 -0.2845 -1.6558
 1720TIP3    H226652   4.282   0.221  13.185  0.3621 -0.2870  0.7276
 1721TIP3   OH226653   2.384   0.539  16.882  0.0309 -0.6752 -0.5559
 1721TIP3    H126654   2.439   0.487  16.941  0.3120  1.0966  0.8198
 1721TIP3    H226655   2.432   0.621  16.872 -0.5341 -0.5304 -2.4675
 1722TIP3   OH226656   4.212   4.396  16.921  0.4311 -0.5078 -0.0382
 1722TIP3    H126657   4.246   4.428  16.837 -4.0818  0.8380 -1.6356
 1722TIP3    H226658   4.236   4.463  16.984  0.8535  0.2638 -0.9877
 1723TIP3   OH226659   4.988   5.189   5.552 -0.3394  0.3291 -0.0536
 1723TIP3    H126660   5.083   5.178   5.553 -0.1746  1.6617 -0.1615
 1723TIP3    H226661   4.956   5.123   5.614  0.5135 -1.1589 -1.1305
 1724TIP3   OH226662   4.616   0.425  16.141  0.3855  0.0569  0.3032
 1724TIP3    H126663   4.644   0.383  16.059 -0.6601 -0.4263  0.1806
 1724TIP3    H226664   4.637   0.362  16.209  0.7800  0.2414  0.3527
 1725TIP3   OH226665   1.553   6.366  13.338 -0.0867 -0.5624 -0.4281
 1725TIP3    H126666   1.499   6.303  13.386 -0.8112  0.0455 -0.4278
 1725TIP3    H226667   1.492   6.411  13.281  0.6755 -0.8833 -1.5204
 1726TIP3   OH226668   2.090   5.041   3.822  0.0467 -0.1177 -0.8153
 1726TIP3    H126669   2.050   5.033   3.909 -1.0937 -1.3948 -1.4221
 1726TIP3    H226670   2.166   4.982   3.825  0.6397  0.6465 -0.3671
 1727TIP3   OH226671   3.419   6.371  15.691  0.2097 -0.5141  0.0310
 1727TIP3    H126672   3.491   6.401  15.747 -1.1901  1.1675  1.0301
 1727TIP3    H226673   3.401   6.282  15.722 -0.7709  0.4773  2.6163
 1728TIP3   OH226674   3.876   2.183   5.005 -0.0723  0.1196 -0.5079
 1728TIP3    H126675   3.896   2.144   4.920  1.1477  1.4973 -0.8931
 1728TIP3    H226676   3.827   2.262   4.983  0.6670  0.7413  0.0254
 1729TIP3   OH226677   4.511   6.774  15.155 -1.0569 -0.0820 -0.5932
 1729TIP3    H126678   4.472   6.852  15.115  0.9150  0.9734 -0.5808
 1729TIP3    H226679   4.593   6.805  15.193  0.4390 -2.3836 -1.7194
 1730TIP3   OH226680   5.404   4.087   1.885  0.4687  0.3467  0.0324
 1730TIP3    H126681   5.319   4.056   1.916  0.6743 -0.1418  0.1124
 1730TIP3    H226682   5.395   4.091   1.790  0.3245  0.3903  0.0481
 1731TIP3   OH226683   0.333   1.524   2.390  0.1497 -0.9994 -0.3609
 1731TIP3    H126684   0.389   1.487   2.321  0.6142 -2.6773  0.8660
 1731TIP3    H226685   0.261   1.566   2.342  0.8278 -1.4977 -1.8843
 1732TIP3   OH226686   0.919   3.699  11.398  0.1937 -0.1976 -0.4595
 1732TIP3    H126687   0.951   3.788  11.412  1.6006 -0.9344  1.4408
 1732TIP3    H226688   0.832   3.699  11.438 -0.8433  0.8720 -2.5234
 1733TIP3   OH226689   2.362   1.777   2.310  0.1749 -0.4207 -0.1661
 1733TIP3    H126690   2.296   1.772   2.380  1.1978 -1.1011  0.7757
 1733TIP3    H226691   2.310   1.789   2.230 -0.9826  1.1305  0.7672
 1734TIP3   OH226692   3.662   3.601   4.766 -0.8508 -0.3817 -0.5853
 1734TIP3    H126693   3.714   3.521   4.774  1.4052  1.0330 -0.0618
 1734TIP3    H226694   3.655   3.634   4.856 -1.4780  0.1650 -0.8282
 1735TIP3   OH226695   4.440   4.289  13.261  0.1500 -0.8825  0.2631
 1735TIP3    H126696   4.528   4.325  13.267  0.0113 -0.3905 -0.5155
 1735TIP3    H226697   4.432   4.231  13.337  1.3210 -1.3506  0.0357
 1736TIP3   OH226698   0.359   4.972   3.290  0.0948 -0.0521  0.3076
 1736TIP3    H126699   0.339   4.898   3.347  0.4551 -0.7641 -0.4714
 1736TIP3    H226700   0.340   4.941   3.202  1.2510  0.4285 -0.1314
 1737TIP3   OH226701   6.685   4.829   2.589 -0.1659 -0.2598  0.0845
 1737TIP3    H126702   6.758   4.872   2.632 -0.9115  1.9136 -0.6729
 1737TIP3    H226703   6.725   4.761   2.535  1.1829  0.1731  0.5209
 1738TIP3   OH226704   5.988   3.474   4.362  0.1363  0.5160 -0.2984
 1738TIP3    H126705   5.895   3.472   4.338 -0.4285 -0.5352  1.7926
 1738TIP3    H226706   6.010   3.567   4.365 -0.8075  0.7799 -0.9205
 1739TIP3   OH226707   5.382   4.027   6.002  0.0765  0.1380  0.2396
 1739TIP3    H126708   5.400   4.003   6.093  2.8619 -3.3215 -0.9653
 1739TIP3    H226709   5.436   4.104   5.985  2.1157 -1.1061  0.7757
 1740TIP3   OH226710   1.109   4.273   0.062  0.6892 -0.1498  0.3689
 1740TIP3    H126711   1.031   4.310   0.022  1.7262  0.0494 -1.5749
 1740TIP3    H226712   1.077   4.196   0.109 -0.5511 -0.6881 -1.2666
 1741TIP3   OH226713   6.150   1.981   2.663  0.1157  0.1835 -0.0490
 1741TIP3    H126714   6.111   2.055   2.615 -0.6897 -0.2882 -0.1455
 1741TIP3    H226715   6.209   1.941   2.600 -0.3967 -0.0003 -0.4280
 1742TIP3   OH226716   6.027   3.847   1.061  0.0914 -0.5796 -0.1593
 1742TIP3    H126717   5.934   3.859   1.044  0.3961  1.1506 -0.8949
 1742TIP3    H226718   6.059   3.794   0.988  0.0723  0.7899 -1.2023
 1743TIP3   OH226719   5.852   5.270   2.805  0.0689 -0.0983 -0.6383
 1743TIP3    H126720   5.921   5.303   2.862 -1.4008 -0.2148  1.2988
 1743TIP3    H226721   5.894   5.202   2.753  1.3824 -0.2998  0.6356
 1744TIP3   OH226722   3.857   5.211   2.684  0.3663  0.1099  0.0235
 1744TIP3    H126723   3.926   5.275   2.698  1.4466 -0.9800 -0.1489
 1744TIP3    H226724   3.790   5.258   2.634  1.4860  0.8771 -0.8073
 1745TIP3   OH226725   2.726   5.243  15.174 -0.1497  0.3069  0.3645
 1745TIP3    H126726   2.698   5.299  15.247 -4.4212 -2.5237  1.2389
 1745TIP3    H226727   2.801   5.195  15.209 -0.6184  0.7181  2.0622
 1746TIP3   OH226728   0.236   0.615   3.427  0.3477 -0.5821  0.1714
 1746TIP3    H126729   0.176   0.681   3.462  1.0209  0.9187 -1.3471
 1746TIP3    H226730   0.244   0.550   3.496 -1.9942 -0.1638  0.9200
 1747TIP3   OH226731   4.708   5.108  12.198 -0.4862  0.0962  0.2433
 1747TIP3    H126732   4.737   5.017  12.188 -0.6501 -0.1495  1.7517
 1747TIP3    H226733   4.631   5.115  12.141  0.8745 -0.0141 -1.6845
 1748TIP3   OH226734   1.790   6.497  11.434 -0.5778 -0.2371  0.3331
 1748TIP3    H126735   1.782   6.420  11.490 -0.8191  0.6191  1.5028
 1748TIP3    H226736   1.882   6.498  11.409 -0.6706 -1.1704 -0.0997
 1749TIP3   OH226737   5.097   0.289  11.759 -0.5222  0.3081  0.0026
 1749TIP3    H126738   5.147   0.244  11.827  0.4702 -0.9465 -1.4750
 1749TIP3    H226739   5.114   0.238  11.680 -1.6559  1.6975 -1.1853
 1750TIP3   OH226740   4.487   5.386  12.133 -0.0402 -0.1502 -0.2023
 1750TIP3    H126741   4.436   5.455  12.090 -1.1380  0.6208  2.1791
 1750TIP3    H226742   4.549   5.432  12.188 -1.7918 -0.9106  2.5952
 1751TIP3   OH226743   1.737   3.116  13.679 -0.1276  0.2643  0.3967
 1751TIP3    H126744   1.742   3.042  13.619 -2.7725  1.0260 -0.9051
 1751TIP3    H226745   1.768   3.081  13.763  1.3485 -1.4924 -0.8032
 1752TIP3   OH226746   3.403   4.473   3.025  0.4315 -0.8361  0.0598
 1752TIP3    H126747   3.451   4.511   2.951 -1.6979  2.3126  0.1005
 1752TIP3    H226748   3.472   4.444   3.085  2.2735  0.2478 -1.3921
 1753TIP3   OH226749   4.949   4.618   1.972 -0.0881  0.5672  0.2884
 1753TIP3    H126750   4.996   4.597   2.053 -2.7351  0.0264  1.7973
 1753TIP3    H226751   4.865   4.573   1.981 -0.2320 -0.1079 -3.1328
 1754TIP3   OH226752   5.333   3.267   5.595  0.4273 -0.3705  0.0604
 1754TIP3    H126753   5.391   3.193   5.576  0.2056 -0.0047 -2.3285
 1754TIP3    H226754   5.390   3.344   5.589 -0.2345  0.0116 -2.5213
 1755TIP3   OH226755   3.158   2.713   2.906  0.0075  0.1680 -0.0947
 1755TIP3    H126756   3.156   2.769   2.829  1.8461  1.2510  0.6089
 1755TIP3    H226757   3.168   2.624   2.871 -1.6629  0.3530 -1.1523
 1756TIP3   OH226758   3.437   5.894   2.446  0.1072  0.2451  0.0566
 1756TIP3    H126759   3.348   5.914   2.416 -0.8095 -1.6362  1.3600
 1756TIP3    H226760   3.439   5.925   2.536 -0.1553 -2.0311  0.9074
 1757TIP3   OH226761   3.390   2.853   5.426 -0.2940 -0.1177 -0.4666
 1757TIP3    H126762   3.351   2.924   5.375 -1.1221 -0.1523  0.0922
 1757TIP3    H226763   3.428   2.896   5.502 -1.3969 -0.3103  0.2256
 1758TIP3   OH226764   5.423   2.214  12.101  0.1163  0.2512 -0.4981
 1758TIP3    H126765   5.353   2.231  12.038 -1.2689  0.1341  0.9705
 1758TIP3    H226766   5.428   2.294  12.154  1.7946  0.6538 -1.1958
 1759TIP3   OH226767   0.202   3.263  16.918 -0.0786  0.0902 -0.6124
 1759TIP3    H126768   0.134   3.331  16.916 -0.7710 -0.5801 -2.3055
 1759TIP3    H226769   0.166   3.195  16.974 -0.1829  0.3503 -0.3628
 1760TIP3   OH226770   5.565   2.173   2.586  0.2992 -0.5208  0.6216
 1760TIP3    H126771   5.588   2.228   2.662  1.9583  0.0974 -0.2697
 1760TIP3    H226772   5.473   2.151   2.600 -0.1122  1.5363  1.6168
 1761TIP3   OH226773   3.032   0.421   0.178  0.2475  0.0572 -0.4536
 1761TIP3    H126774   3.084   0.345   0.204  0.7579  0.4770 -0.2492
 1761TIP3    H226775   2.947   0.407   0.221  0.6136  0.0265  0.2560
 1762TIP3   OH226776   1.347   0.127   6.054  0.0557 -0.2053 -0.4109
 1762TIP3    H126777   1.312   0.039   6.043  1.4586 -0.7624 -0.6041
 1762TIP3    H226778   1.300   0.162   6.130  0.2672 -1.5392  0.3794
 1763TIP3   OH226779   2.058   1.894  16.014 -0.3007  0.2586  0.0542
 1763TIP3    H126780   2.035   1.801  16.011 -2.5601  0.7455  0.0688
 1763TIP3    H226781   2.025   1.929  15.931  0.1863  1.1161  0.2182
 1764TIP3   OH226782   4.220   4.854  11.323  0.0264  0.0958 -0.2416
 1764TIP3    H126783   4.150   4.833  11.384 -0.7082  0.4537 -0.9409
 1764TIP3    H226784   4.239   4.947  11.339  0.0378  0.1140 -0.3624
 1765TIP3   OH226785   6.353   0.767   1.397  0.9154 -0.3118 -0.3694
 1765TIP3    H126786   6.321   0.801   1.481  1.2695  0.3842 -0.5102
 1765TIP3    H226787   6.302   0.687   1.383  1.9318 -1.3076  1.2616
 1766TIP3   OH226788   2.084   3.522  14.358  0.5613 -0.1252 -0.3709
 1766TIP3    H126789   2.164   3.574  14.357 -0.2836  1.4427 -4.7082
 1766TIP3    H226790   2.113   3.433  14.337  1.2978  0.1623 -0.6055
 1767TIP3   OH226791   6.550   5.650  14.947  0.8577  0.0490  0.1707
 1767TIP3    H126792   6.482   5.598  14.905  0.2112  0.9480  0.0695
 1767TIP3    H226793   6.520   5.663  15.037  0.8557  0.4915  0.1116
 1768TIP3   OH226794   0.992   0.745   4.413  0.2153 -0.6416 -0.3137
 1768TIP3    H126795   0.926   0.800   4.455  1.0249  1.0318 -1.1347
 1768TIP3    H226796   0.968   0.745   4.320  1.3282  0.0188 -0.6323
 1769TIP3   OH226797   4.698   0.850   4.447  0.1234  0.3963  0.5229
 1769TIP3    H126798   4.692   0.791   4.372 -1.5871  0.4311  0.6038
 1769TIP3    H226799   4.705   0.937   4.409  0.5734  0.3193  0.4174
 1770TIP3   OH226800   2.026   4.335  10.818 -0.1484  0.7692 -0.3483
 1770TIP3    H126801   1.933   4.333  10.796 -0.4482  1.9110  0.7258
 1770TIP3    H226802   2.068   4.284  10.748 -1.3995  1.5072 -1.7050
 1771TIP3   OH226803   0.591   2.885   6.365  0.5831  0.2045 -0.2095
 1771TIP3    H126804   0.580   2.874   6.460  1.3652 -1.1037 -0.2396
 1771TIP3    H226805   0.659   2.952   6.357  1.9557 -1.0631  0.2360
 1772TIP3   OH226806   2.832   1.359   4.884 -0.5264  0.2803 -0.2450
 1772TIP3    H126807   2.764   1.292   4.881  0.1299 -0.3598 -1.9750
 1772TIP3    H226808   2.793   1.434   4.838 -1.1281  1.0168  1.3799
 1773TIP3   OH226809   2.543   1.094   0.884 -0.4721  0.2500 -0.6336
 1773TIP3    H126810   2.491   1.021   0.916 -0.0041 -0.0805 -0.6270
 1773TIP3    H226811   2.629   1.057   0.865  0.7734  1.3385  2.2396
 1774TIP3   OH226812   4.701   0.216   1.688  0.5319 -0.1971  0.0511
 1774TIP3    H126813   4.648   0.138   1.672  1.5253 -0.7193 -0.7459
 1774TIP3    H226814   4.749   0.196   1.769  1.0183 -0.5544 -0.3176
 1775TIP3   OH226815   1.225   0.926   0.826 -0.6291 -0.1086  0.8888
 1775TIP3    H126816   1.240   0.886   0.912 -0.0493  1.9323  1.8047
 1775TIP3    H226817   1.307   0.972   0.807 -1.3958  0.9848  0.1154
 1776TIP3   OH226818   3.915   4.517  14.184  0.0409  0.3805  0.0138
 1776TIP3    H126819   3.984   4.480  14.239  0.0711  0.1408 -0.1813
 1776TIP3    H226820   3.864   4.574  14.242  0.0530  0.1059  0.2894
 1777TIP3   OH226821   0.163   5.137  12.139  0.4216  0.4162 -0.4792
 1777TIP3    H126822   0.156   5.160  12.047  1.1014  0.0760 -0.6234
 1777TIP3    H226823   0.075   5.108  12.164  0.4246 -0.2537 -1.2255
 1778TIP3   OH226824   2.865   4.868   5.301 -0.6285  0.0027 -0.1203
 1778TIP3    H126825   2.949   4.824   5.290 -1.6407 -1.8082 -0.9624
 1778TIP3    H226826   2.834   4.839   5.387 -2.3229 -2.9613 -1.5599
 1779TIP3   OH226827   3.242   3.781   1.809 -0.0452 -0.6202  1.0297
 1779TIP3    H126828   3.316   3.835   1.784 -0.0646 -1.5550 -1.2970
 1779TIP3    H226829   3.268   3.742   1.893  0.5774  1.7305  1.9933
 1780TIP3   OH226830   3.336   2.218  13.142 -0.4711  0.0434  0.3238
 1780TIP3    H126831   3.295   2.271  13.210 -1.4814  0.0733 -0.2808
 1780TIP3    H226832   3.301   2.130  13.154 -0.8024  0.0873 -0.2569
 1781TIP3   OH226833   0.182   0.551  15.776  0.5118 -0.1997 -1.3316
 1781TIP3    H126834   0.212   0.576  15.688  0.0054 -1.8441 -1.9959
 1781TIP3    H226835   0.087   0.553  15.770  0.4481 -2.1643 -1.3976
 1782TIP3   OH226836   2.815   4.617   4.203  0.1439 -0.3849  0.1054
 1782TIP3    H126837   2.897   4.586   4.162  1.5199 -0.4915  2.7053
 1782TIP3    H226838   2.789   4.692   4.150  0.9880 -1.3148 -1.7608
 1783TIP3   OH226839   6.681   4.353  16.360 -0.1476  0.2308 -0.1984
 1783TIP3    H126840   6.601   4.310  16.391  0.0288  0.4008  0.4963
 1783TIP3    H226841   6.697   4.314  16.274  0.2182 -1.3630  0.5706
 1784TIP3   OH226842   2.177   0.056   3.654 -0.0984 -0.2874  0.2542
 1784TIP3    H126843   2.250  -0.004   3.640  0.4432  0.3961  0.1062
 1784TIP3    H226844   2.178   0.113   3.577 -1.2923 -0.7800 -0.1449
 1785TIP3   OH226845   5.751   3.916   1.064  0.0412 -0.3747 -0.2636
 1785TIP3    H126846   5.756   3.928   1.159 -0.0337  0.9007 -0.4041
 1785TIP3    H226847   5.661   3.885   1.049 -0.1868  0.1502  0.0110
 1786TIP3   OH226848   0.407   1.477  16.451 -0.0536  0.1047  0.1708
 1786TIP3    H126849   0.470   1.453  16.519  1.5630 -1.4059 -1.7175
 1786TIP3    H226850   0.418   1.571  16.440  0.5030  0.1728  1.1865
 1787TIP3   OH226851   6.208   1.623   5.614 -0.1923 -0.3666  0.5929
 1787TIP3    H126852   6.228   1.529   5.610 -0.9930 -0.5597  0.9023
 1787TIP3    H226853   6.284   1.662   5.657  0.6077 -0.7269 -0.4428
 1788TIP3   OH226854   2.911   1.710  12.887  0.1620  0.3233 -0.5157
 1788TIP3    H126855   2.914   1.775  12.817  1.4672  0.3202 -0.4888
 1788TIP3    H226856   2.945   1.630  12.848  1.1758  0.3950  0.1571
 1789TIP3   OH226857   5.761   0.406   2.616 -0.0770 -0.0275 -0.2848
 1789TIP3    H126858   5.783   0.379   2.705  2.7302 -0.7769 -1.1100
 1789TIP3    H226859   5.711   0.333   2.580  1.4880 -1.1362 -0.2833
 1790TIP3   OH226860   1.940   2.541  14.543 -0.0686  0.2254 -0.0061
 1790TIP3    H126861   2.033   2.529  14.565 -0.0550  1.3986  0.6287
 1790TIP3    H226862   1.929   2.492  14.462  1.0541 -0.1203  0.0255
 1791TIP3   OH226863   4.376   0.407  12.939  0.1986 -0.4477 -0.2322
 1791TIP3    H126864   4.288   0.370  12.949 -1.0041  2.0019 -0.7524
 1791TIP3    H226865   4.391   0.456  13.020  0.0683  0.9969 -1.0476
 1792TIP3   OH226866   4.291   4.366  11.193  0.4937  0.6302  0.0933
 1792TIP3    H126867   4.199   4.383  11.173  0.6455 -0.0197 -1.2412
 1792TIP3    H226868   4.289   4.297  11.259  0.0267 -0.3951 -0.9598
 1793TIP3   OH226869   2.526   3.171   0.530 -0.5406 -0.5359  0.1791
 1793TIP3    H126870   2.565   3.239   0.475  1.5603  0.1713  2.3929
 1793TIP3    H226871   2.569   3.090   0.501 -2.1413 -0.8028 -1.6198
 1794TIP3   OH226872   1.503   0.888  13.372 -0.3789  0.1066  0.2515
 1794TIP3    H126873   1.476   0.803  13.408  0.7712  0.0363  1.0127
 1794TIP3    H226874   1.472   0.886  13.282 -3.0715  0.1597  1.0856
 1795TIP3   OH226875   3.691   4.820  14.722  0.4230 -0.3232  0.0403
 1795TIP3    H126876   3.686   4.755  14.652  0.2804 -1.2767  0.9193
 1795TIP3    H226877   3.654   4.899  14.683  0.1423 -0.8940 -0.8913
 1796TIP3   OH226878   6.427   5.168  15.311 -0.2259 -0.2735 -0.2368
 1796TIP3    H126879   6.378   5.107  15.365  1.0395 -0.0908  1.2030
 1796TIP3    H226880   6.519   5.146  15.328  0.2572  1.8012  0.1113
 1797TIP3   OH226881   3.340   2.318   5.233  0.1863 -0.6151 -0.0254
 1797TIP3    H126882   3.391   2.383   5.184  0.8921 -1.1969 -0.0800
 1797TIP3    H226883   3.251   2.352   5.231  0.5821  0.4890  0.1734
 1798TIP3   OH226884   0.363   3.717   0.056 -0.7142 -0.5042  0.0325
 1798TIP3    H126885   0.318   3.676  -0.018 -0.2352 -0.7006 -0.1554
 1798TIP3    H226886   0.444   3.666   0.067  0.4133  0.9816 -0.8732
 1799TIP3   OH226887   2.983   1.516  15.639  0.4537 -0.0810  0.2857
 1799TIP3    H126888   2.974   1.567  15.720  0.3401  1.1875 -0.5044
 1799TIP3    H226889   2.898   1.473  15.629 -0.0494  0.9344  0.0750
 1800TIP3   OH226890   4.362   1.452   1.854 -0.3241  0.1437  1.1524
 1800TIP3    H126891   4.451   1.473   1.826 -0.3968 -1.5064 -0.4787
 1800TIP3    H226892   4.363   1.358   1.872 -2.2391 -0.4063 -1.1375
 1801TIP3   OH226893   1.242   1.966  16.749  0.4217  0.7794  0.2719
 1801TIP3    H126894   1.334   1.955  16.771  0.9206 -1.4689 -2.3442
 1801TIP3    H226895   1.195   1.923  16.821  1.6604 -1.4367 -0.1486
 1802TIP3   OH226896   1.841   1.354  12.750  0.0783 -0.7206 -0.2059
 1802TIP3    H126897   1.935   1.340  12.750  0.3519  0.8708  0.5003
 1802TIP3    H226898   1.809   1.308  12.827  0.5979  0.4127  0.7173
 1803TIP3   OH226899   1.513   5.119  12.695  0.3495  0.0364  0.1062
 1803TIP3    H126900   1.428   5.130  12.738  0.7781  0.2667  0.9102
 1803TIP3    H226901   1.561   5.060  12.753 -0.5899 -3.3274 -2.2383
 1804TIP3   OH226902   5.750   2.332   0.155 -0.0314  0.5231  0.4928
 1804TIP3    H126903   5.686   2.402   0.143  1.0110  1.3849 -0.2286
 1804TIP3    H226904   5.753   2.287   0.071 -0.3227 -0.0670  0.7967
 1805TIP3   OH226905   6.459   0.327  15.632 -0.2818 -0.1568  0.0777
 1805TIP3    H126906   6.443   0.404  15.578 -0.9035  0.3134  0.9017
 1805TIP3    H226907   6.526   0.354  15.695 -0.2021 -0.4144  0.1060
 1806TIP3   OH226908   1.984   1.653  15.640  0.0327  0.2800  0.0492
 1806TIP3    H126909   1.975   1.706  15.720  0.8736 -1.0719  1.0976
 1806TIP3    H226910   1.908   1.595  15.641  3.1073 -4.4509  3.6973
 1807TIP3   OH226911   1.248   5.669   0.967 -0.0796 -0.0242  0.1477
 1807TIP3    H126912   1.336   5.645   0.993 -0.5953 -1.4036  0.7064
 1807TIP3    H226913   1.206   5.699   1.047 -1.1350 -2.6446  0.6830
 1808TIP3   OH226914   4.747   5.456  15.631  0.4621 -0.3191  0.1184
 1808TIP3    H126915   4.700   5.401  15.694  0.9498 -1.4739 -0.4849
 1808TIP3    H226916   4.802   5.513  15.685 -0.0969 -0.3864  0.7670
 1809TIP3   OH226917   5.509   2.167  12.474  0.0646 -0.8652 -0.0153
 1809TIP3    H126918   5.548   2.120  12.401  0.1137 -0.7416 -0.0691
 1809TIP3    H226919   5.578   2.227  12.504 -0.5112  0.3069 -0.9602
 1810TIP3   OH226920   3.903   3.475  16.779  0.7529 -0.2261 -0.6139
 1810TIP3    H126921   3.998   3.487  16.790  0.4963  0.1289  1.6114
 1810TIP3    H226922   3.865   3.559  16.805 -0.3506 -1.5787  2.5910
 1811TIP3   OH226923   4.766   1.117   0.865  0.1618  0.5307 -0.4568
 1811TIP3    H126924   4.812   1.109   0.781  2.1901  0.2104  0.6213
 1811TIP3    H226925   4.751   1.026   0.892 -0.6928  0.6346 -0.5540
 1812TIP3   OH226926   6.089   6.403   1.322  0.8800 -0.2313  0.0033
 1812TIP3    H126927   6.168   6.413   1.268  1.2248  1.4602  0.7428
 1812TIP3    H226928   6.018   6.391   1.259  1.4197  0.6646 -0.8062
 1813TIP3   OH226929   4.957   0.055  11.810  0.0807 -1.0899 -0.2101
 1813TIP3    H126930   5.025   0.048  11.877 -0.0508  1.1657  0.2434
 1813TIP3    H226931   4.964   0.145  11.778 -1.2990 -1.4548 -1.6920
 1814TIP3   OH226932   5.457   4.932  15.915 -0.0643 -0.2362  0.2356
 1814TIP3    H126933   5.377   4.938  15.967 -0.1691 -0.5466  0.1096
 1814TIP3    H226934   5.494   5.020  15.918 -1.0316  0.2260 -0.7043
 1815TIP3   OH226935   0.707   5.948  13.539  0.1095  0.4400  0.5503
 1815TIP3    H126936   0.633   6.001  13.508 -1.2917 -1.8627 -0.3046
 1815TIP3    H226937   0.740   5.995  13.615 -1.6685  2.0155  0.4259
 1816TIP3   OH226938   1.492   2.979   0.556 -1.0025  0.5158 -0.3580
 1816TIP3    H126939   1.469   2.898   0.509  1.5923 -0.4927 -0.0534
 1816TIP3    H226940   1.436   2.977   0.634 -0.9131 -1.0742 -0.2924
 1817TIP3   OH226941   5.018   2.475   1.648  0.5562  0.0313  0.2007
 1817TIP3    H126942   5.110   2.480   1.621  0.1869  1.8580 -0.9132
 1817TIP3    H226943   4.976   2.419   1.583  0.8277 -0.6232  0.5836
 1818TIP3   OH226944   6.385   1.497   1.467  0.2088  0.1922 -0.6425
 1818TIP3    H126945   6.354   1.436   1.401  0.3603  0.5696 -1.0699
 1818TIP3    H226946   6.366   1.584   1.431 -0.5427  0.4043  0.2129
 1819TIP3   OH226947   3.703   3.266  11.824 -0.2491  0.1764  0.1058
 1819TIP3    H126948   3.765   3.193  11.818 -0.2817 -0.0082  1.6907
 1819TIP3    H226949   3.678   3.283  11.733  0.9485 -0.7531 -0.4302
 1820TIP3   OH226950   2.302   1.007  12.120 -0.1775 -0.4089  0.9032
 1820TIP3    H126951   2.359   1.014  12.044  0.5553 -1.0782  1.3851
 1820TIP3    H226952   2.329   1.080  12.177  0.1382 -0.6739  1.0924
 1821TIP3   OH226953   1.880   5.189   0.836 -0.7279  0.1612  0.1292
 1821TIP3    H126954   1.959   5.168   0.886 -0.9409  2.4491  1.5701
 1821TIP3    H226955   1.811   5.138   0.877 -0.2875 -0.7248 -0.1942
 1822TIP3   OH226956   4.029   0.127   3.795 -0.9537 -0.0515 -0.6916
 1822TIP3    H126957   4.108   0.173   3.825  0.7006 -1.7282 -2.1781
 1822TIP3    H226958   3.962   0.195   3.790  0.0120  1.2200  1.8151
 1823TIP3   OH226959   5.424   5.006   2.577  0.2433  0.0765 -0.2267
 1823TIP3    H126960   5.330   4.991   2.567  0.2202  0.7342 -1.1106
 1823TIP3    H226961   5.434   5.039   2.666 -0.0478 -2.3476  0.7671
 1824TIP3   OH226962   0.779   4.027  11.314 -0.0909  0.1732  0.0704
 1824TIP3    H126963   0.686   4.007  11.306  0.2855 -1.2248 -1.1080
 1824TIP3    H226964   0.801   4.073  11.233  0.1312  1.0364  0.6068
 1825TIP3   OH226965   5.358   2.745   1.249 -0.1869  0.3050  0.2655
 1825TIP3    H126966   5.320   2.826   1.215 -0.3668  0.2850  0.4158
 1825TIP3    H226967   5.283   2.689   1.268 -0.0802  0.2654  0.5697
 1826TIP3   OH226968   6.267   2.535   0.976 -0.2434 -0.1738 -0.8893
 1826TIP3    H126969   6.212   2.460   0.955  1.1618 -1.6677  0.4390
 1826TIP3    H226970   6.217   2.611   0.948 -2.1675 -1.5555 -1.3552
 1827TIP3   OH226971   1.575   3.368  14.102 -0.0221 -0.2362  0.8189
 1827TIP3    H126972   1.535   3.452  14.082  0.6538 -0.1020 -0.0486
 1827TIP3    H226973   1.540   3.308  14.036  1.8806  0.1054 -0.6158
 1828TIP3   OH226974   0.336   6.107  14.783  1.0574  0.2131  0.1943
 1828TIP3    H126975   0.252   6.060  14.783  0.6323  0.9125 -0.7888
 1828TIP3    H226976   0.383   6.073  14.858 -0.0789 -0.2728  0.7160
 1829TIP3   OH226977   1.594   2.821   2.209  0.3886  0.1093 -0.2876
 1829TIP3    H126978   1.510   2.779   2.230  1.2806 -1.6392  0.0191
 1829TIP3    H226979   1.625   2.774   2.131 -0.5006  3.1181 -2.6603
 1830TIP3   OH226980   0.831   3.626   2.297 -0.0191 -0.3590 -0.6498
 1830TIP3    H126981   0.916   3.656   2.329  0.8028 -1.6731 -1.4866
 1830TIP3    H226982   0.771   3.698   2.317  1.1841  0.4080  0.3869
 1831TIP3   OH226983   6.014   5.530  13.966  0.9384 -0.3854 -0.4258
 1831TIP3    H126984   5.918   5.530  13.958  0.7704 -2.9193  0.8159
 1831TIP3    H226985   6.044   5.482  13.889  1.1236 -0.6655 -0.1802
 1832TIP3   OH226986   5.765   1.489   5.315  0.0865  0.3184 -0.7986
 1832TIP3    H126987   5.808   1.453   5.238  1.5880  0.4413 -0.0448
 1832TIP3    H226988   5.829   1.480   5.386 -2.1563 -2.3093  1.1481
 1833TIP3   OH226989   5.414   5.952  14.347  0.2504 -0.0301  0.0370
 1833TIP3    H126990   5.501   5.914  14.362  0.4882  0.3095 -0.4639
 1833TIP3    H226991   5.406   6.021  14.412 -0.3382 -1.1585  1.2125
 1834TIP3   OH226992   3.784   4.783   0.384 -0.0851  0.8879 -0.2117
 1834TIP3    H126993   3.851   4.842   0.418  0.9142 -0.4152  0.1558
 1834TIP3    H226994   3.793   4.790   0.289  0.8678  0.4370 -0.1712
 1835TIP3   OH226995   0.455   4.792   0.536  0.4463  0.2084  0.8274
 1835TIP3    H126996   0.453   4.698   0.557 -1.9680  0.3592  1.5790
 1835TIP3    H226997   0.546   4.809   0.512  0.6476 -2.6939 -1.0944
 1836TIP3   OH226998   0.168   6.479   0.272  0.8430 -0.8317 -0.7289
 1836TIP3    H126999   0.137   6.453   0.359  0.1110 -0.0190 -0.7356
 1836TIP3    H227000   0.095   6.527   0.233  1.4867 -0.3884 -1.4332
 1837TIP3   OH227001   1.911   5.848   1.158  0.1807  0.0010  0.7111
 1837TIP3    H127002   1.886   5.826   1.068  1.5348  1.9696 -0.2341
 1837TIP3    H227003   1.992   5.799   1.173 -0.5136 -1.0209  1.2201
 1838TIP3   OH227004   4.207   6.463  11.563 -0.2103 -1.0227  0.0619
 1838TIP3    H127005   4.298   6.435  11.564 -0.0669 -0.6171  1.8809
 1838TIP3    H227006   4.211   6.558  11.569 -0.7499 -0.9890 -0.0323
 1839TIP3   OH227007   3.647   0.349   3.553  0.3254  0.1379 -0.0189
 1839TIP3    H127008   3.726   0.330   3.503  2.3665  1.0380  2.6491
 1839TIP3    H227009   3.670   0.424   3.606 -1.7860 -0.5647  2.0322
 1840TIP3   OH227010   2.844   5.424  16.156  0.8952  0.2241 -0.2559
 1840TIP3    H127011   2.754   5.404  16.181  1.0876 -0.2351  0.1047
 1840TIP3    H227012   2.888   5.443  16.239  1.1238  0.4631 -0.4311
 1841TIP3   OH227013   3.383   1.688  11.919  0.0211  0.3829  0.5390
 1841TIP3    H127014   3.432   1.686  11.837 -0.1726  2.8308  0.2760
 1841TIP3    H227015   3.295   1.716  11.894  0.0435  1.4948  1.5742
 1842TIP3   OH227016   4.860   2.247  12.260  0.0385  0.0076 -0.2025
 1842TIP3    H127017   4.810   2.256  12.341 -0.7819 -0.5344 -0.6334
 1842TIP3    H227018   4.795   2.218  12.196  1.1063 -1.7398 -0.5415
 1843TIP3   OH227019   4.529   4.186  11.711  0.0398  0.3865  0.3967
 1843TIP3    H127020   4.536   4.162  11.618  1.3033 -2.3172  1.0994
 1843TIP3    H227021   4.436   4.205  11.723 -0.3911 -0.5063 -1.1541
 1844TIP3   OH227022   1.620   4.095   1.274 -0.1122 -0.0437 -0.3501
 1844TIP3    H127023   1.702   4.059   1.238  0.5626  1.7428 -0.7206
 1844TIP3    H227024   1.560   4.095   1.200  0.5264  1.4093 -0.9058
 1845TIP3   OH227025   3.393   0.938  15.800 -0.2237  0.3372  0.3774
 1845TIP3    H127026   3.440   0.876  15.856 -0.6490  0.8794  1.3693
 1845TIP3    H227027   3.331   0.982  15.859 -2.4699 -0.8029 -0.9994
 1846TIP3   OH227028   3.385   1.794   5.105  0.0032 -0.1967  0.2348
 1846TIP3    H127029   3.290   1.794   5.116  0.1114 -3.9428  2.7361
 1846TIP3    H227030   3.404   1.711   5.062  2.2672 -0.3523  1.4078
 1847TIP3   OH227031   5.121   3.427  13.181 -0.5426  0.1149 -0.6282
 1847TIP3    H127032   5.046   3.421  13.121 -1.2834 -0.2980  0.3277
 1847TIP3    H227033   5.185   3.479  13.132 -2.8314  3.7841 -0.0981
 1848TIP3   OH227034   4.536   0.027  16.354 -0.2463  0.1424 -0.1893
 1848TIP3    H127035   4.523  -0.061  16.390 -0.6949 -0.2743 -1.3490
 1848TIP3    H227036   4.554   0.013  16.261 -1.3821  1.3367 -0.6177
 1849TIP3   OH227037   4.402   4.055   5.125  0.0470  0.0212  0.3703
 1849TIP3    H127038   4.379   4.144   5.150 -1.0369 -0.4163  0.9851
 1849TIP3    H227039   4.450   4.020   5.200  0.8289  0.2112 -0.0334
 1850TIP3   OH227040   6.531   0.466  13.348  0.8423  0.1156  0.5476
 1850TIP3    H127041   6.606   0.439  13.294  0.8272  2.1503 -0.5827
 1850TIP3    H227042   6.475   0.389  13.349  1.2283 -0.2946 -1.7128
 1851TIP3   OH227043   1.395   0.923  13.116 -0.1864  0.1912 -0.1626
 1851TIP3    H127044   1.389   1.018  13.124 -1.2632  0.6453 -4.1168
 1851TIP3    H227045   1.304   0.894  13.103  0.1063 -1.4491  1.0860
 1852TIP3   OH227046   3.591   2.632   0.944  0.3233  0.7487  0.0831
 1852TIP3    H127047   3.657   2.676   0.997  1.6736  0.6157 -1.4265
 1852TIP3    H227048   3.529   2.598   1.007  2.3879 -0.2720  1.6679
 1853TIP3   OH227049   1.884   4.116   5.962  0.1856 -0.4663 -0.0888
 1853TIP3    H127050   1.824   4.189   5.947  0.0797 -0.4224  0.5336
 1853TIP3    H227051   1.943   4.148   6.031  0.4635 -0.7775 -0.1817
 1854TIP3   OH227052   5.064   2.918   4.244 -0.3919  0.0036 -0.1959
 1854TIP3    H127053   5.023   2.986   4.191  2.0557  0.1647 -2.0683
 1854TIP3    H227054   5.158   2.938   4.241  0.3508 -2.9670 -0.1162
 1855TIP3   OH227055   3.203   3.614  12.548 -0.0598 -0.1955 -0.5851
 1855TIP3    H127056   3.289   3.606  12.588 -1.6001 -0.3830  3.1271
 1855TIP3    H227057   3.189   3.709  12.541 -0.0621 -0.1279  0.1816
 1856TIP3   OH227058   1.980   2.949   5.176  0.7572 -0.1189 -1.1218
 1856TIP3    H127059   1.961   3.038   5.147 -0.0695 -0.2103 -0.8723
 1856TIP3    H227060   2.070   2.954   5.209 -0.6421  1.7287  3.1098
 1857TIP3   OH227061   4.115   3.425  15.115  0.2036 -0.3276 -0.0880
 1857TIP3    H127062   4.196   3.397  15.155  0.8609 -0.3727 -1.3951
 1857TIP3    H227063   4.114   3.520  15.126  1.3534 -0.0922 -1.6150
 1858TIP3   OH227064   2.288   2.895   1.528  0.3432 -0.1376 -0.8126
 1858TIP3    H127065   2.314   2.967   1.586  1.2312 -0.6680 -0.5206
 1858TIP3    H227066   2.334   2.819   1.563 -0.2663 -0.7717 -1.3539
 1859TIP3   OH227067   5.607   5.734   2.453 -0.3106  0.5523  0.2373
 1859TIP3    H127068   5.696   5.713   2.426  0.0067 -1.8506  2.7944
 1859TIP3    H227069   5.554   5.713   2.376  1.2296  1.5608 -1.1614
 1860TIP3   OH227070   3.034   3.319  10.776  0.4277  0.3370 -0.2933
 1860TIP3    H127071   3.104   3.260  10.749  0.4386  0.2941 -0.1692
 1860TIP3    H227072   2.954   3.274  10.750  0.1537 -1.7013  3.4200
 1861TIP3   OH227073   2.606   2.966  11.871  0.0152  0.1609 -0.5797
 1861TIP3    H127074   2.651   3.040  11.912  0.5909 -2.2922  3.9709
 1861TIP3    H227075   2.676   2.905  11.848 -0.5717 -0.7631 -0.0141
 1862TIP3   OH227076   3.907   5.363  15.032 -0.0373 -0.6554 -0.3872
 1862TIP3    H127077   3.935   5.449  15.001  0.0268 -0.2727  0.6882
 1862TIP3    H227078   3.843   5.333  14.968  0.9246 -0.4079 -1.5044
 1863TIP3   OH227079   1.658   6.298   3.654 -0.1623  0.1171  0.1864
 1863TIP3    H127080   1.741   6.337   3.624  0.3242 -0.1568  1.1271
 1863TIP3    H227081   1.613   6.370   3.698  0.7005 -0.2978  1.8524
 1864TIP3   OH227082   1.638   2.172   3.125  0.1531  0.6217 -0.3791
 1864TIP3    H127083   1.644   2.096   3.184 -1.1275  0.5371 -0.3389
 1864TIP3    H227084   1.692   2.238   3.167  0.0019  0.2524  0.4186
 1865TIP3   OH227085   0.012   3.047  16.559  0.1145  0.7681  0.4450
 1865TIP3    H127086  -0.070   3.012  16.593  0.0933  0.8427  0.4671
 1865TIP3    H227087   0.070   2.970  16.555 -0.3363  0.4649 -0.7242
 1866TIP3   OH227088   1.297   6.760  13.301  0.2477 -0.0370  0.8417
 1866TIP3    H127089   1.339   6.764  13.387  2.3886  0.2845 -0.1513
 1866TIP3    H227090   1.366   6.730  13.242 -0.2509  2.6692 -1.3070
 1867TIP3   OH227091   0.615   2.568   6.067  0.0901 -0.5154 -0.2188
 1867TIP3    H127092   0.614   2.505   6.139 -0.2592  0.3035  0.5169
 1867TIP3    H227093   0.596   2.652   6.109  0.3836  0.0558 -1.1993
 1868TIP3   OH227094   5.496   4.630   0.242  0.1708 -0.5753  0.0488
 1868TIP3    H127095   5.407   4.660   0.262  0.2200  0.9910 -1.7719
 1868TIP3    H227096   5.536   4.614   0.328 -1.4489 -0.0074  0.9484
 1869TIP3   OH227097   3.933   5.274   3.311  0.2289  0.1627 -0.0839
 1869TIP3    H127098   3.914   5.186   3.278  0.0757 -0.0126  0.4618
 1869TIP3    H227099   3.975   5.259   3.396  0.7920  0.6054 -0.2837
 1870TIP3   OH227100   0.285   6.087  12.262 -0.2123  0.1419  0.0736
 1870TIP3    H127101   0.260   5.997  12.244  0.7926  0.1576 -1.7241
 1870TIP3    H227102   0.355   6.080  12.327  0.1173 -0.4192 -0.3295
 1871TIP3   OH227103   1.236   3.934  14.292  0.2756  0.6629 -0.2351
 1871TIP3    H127104   1.237   3.846  14.331 -0.2257  0.5077 -0.5776
 1871TIP3    H227105   1.156   3.974  14.324  0.6780  1.1314  0.2051
 1872TIP3   OH227106   1.362   4.973   2.424 -0.3342  0.3739  0.3652
 1872TIP3    H127107   1.312   5.054   2.417  1.9214  1.9815  1.3375
 1872TIP3    H227108   1.442   4.999   2.469  0.1081 -2.6005  1.5364
 1873TIP3   OH227109   2.395   0.983  14.982 -0.2987  0.1451  0.1284
 1873TIP3    H127110   2.348   0.959  14.902 -1.6643 -0.5782  1.1039
 1873TIP3    H227111   2.331   0.971  15.052  0.8398  0.8326  1.3358
 1874TIP3   OH227112   5.930   5.960  15.995 -0.0390 -0.2897  0.4690
 1874TIP3    H127113   5.929   5.867  16.019  0.2380 -0.6027 -0.6336
 1874TIP3    H227114   5.880   6.004  16.064 -1.2708 -1.4340  0.3528
 1875TIP3   OH227115   3.000   5.565   5.053  0.8129  0.2691  0.0853
 1875TIP3    H127116   2.925   5.598   5.104  0.8459 -0.0038  0.3090
 1875TIP3    H227117   3.024   5.639   4.997 -0.7420 -0.1856 -1.2814
 1876TIP3   OH227118   2.003   4.979   4.069 -0.1246 -0.1393  0.1822
 1876TIP3    H127119   2.060   4.932   4.129  0.9231 -1.2559 -1.6181
 1876TIP3    H227120   1.929   5.007   4.124 -0.0766 -2.6097  1.6400
 1877TIP3   OH227121   5.331   6.569  15.576  0.2626  0.3588  0.1589
 1877TIP3    H127122   5.423   6.560  15.555  0.0066  0.3326 -1.0020
 1877TIP3    H227123   5.304   6.481  15.604  0.0214 -0.2863 -1.9281
 1878TIP3   OH227124   1.130   6.437   4.950  0.1373 -0.0518  0.7398
 1878TIP3    H127125   1.217   6.404   4.974  0.5781  0.1612 -0.4489
 1878TIP3    H227126   1.138   6.532   4.958 -0.4196 -0.0977  1.9478
 1879TIP3   OH227127   2.063   6.265   4.921  0.2574  0.2275 -0.0073
 1879TIP3    H127128   1.989   6.271   4.860 -0.2844 -3.0646  0.1321
 1879TIP3    H227129   2.127   6.210   4.875  1.4837  0.8331  0.9192
 1880TIP3   OH227130   2.116   4.581   2.472 -0.1919 -0.1948 -0.0027
 1880TIP3    H127131   2.140   4.490   2.489  2.9061  1.1223  4.6521
 1880TIP3    H227132   2.047   4.599   2.535  0.2479  1.0018  0.1588
 1881TIP3   OH227133   3.692   3.452  12.392  0.0539 -0.5783  0.0768
 1881TIP3    H127134   3.641   3.395  12.450 -0.4989 -2.2079 -1.8866
 1881TIP3    H227135   3.779   3.413  12.392  0.7166  0.7970  1.5562
 1882TIP3   OH227136   4.478   4.020  14.966 -0.1392  0.3914 -0.3733
 1882TIP3    H127137   4.562   4.056  14.995  0.5761 -2.8719  2.1406
 1882TIP3    H227138   4.502   3.952  14.902 -0.5953 -1.6482  1.5041
 1883TIP3   OH227139   0.366   2.136   4.474 -0.3024 -0.2291 -0.7444
 1883TIP3    H127140   0.357   2.044   4.499  2.4441 -0.0300  1.4476
 1883TIP3    H227141   0.373   2.183   4.557 -0.9186  1.9211 -1.8256
 1884TIP3   OH227142   5.326   2.973   4.220  0.0025  0.6508 -0.1682
 1884TIP3    H127143   5.292   3.035   4.155 -0.2752  1.3855  0.6693
 1884TIP3    H227144   5.410   3.010   4.246  0.8556 -0.4545 -1.2250
 1885TIP3   OH227145   3.924   2.156  14.226  0.2521  0.2509 -0.4873
 1885TIP3    H127146   3.907   2.084  14.165 -0.6764  0.9343 -1.0706
 1885TIP3    H227147   4.019   2.158  14.235  0.3288 -0.5937 -1.0166
 1886TIP3   OH227148   4.417   6.180   6.463  0.4517 -0.1134  0.2215
 1886TIP3    H127149   4.482   6.241   6.429  0.4074 -0.5609 -0.6767
 1886TIP3    H227150   4.334   6.227   6.456  0.0819 -1.0064 -2.5209
 1887TIP3   OH227151   6.409   3.278   1.930 -0.3566 -0.1852  0.2281
 1887TIP3    H127152   6.483   3.318   1.884  0.3908 -0.3640  1.2444
 1887TIP3    H227153   6.404   3.189   1.893 -1.1444  0.3493 -1.0326
 1888TIP3   OH227154   2.604   6.058  13.196 -0.2199 -0.0021  0.3352
 1888TIP3    H127155   2.669   6.098  13.138  1.3737 -2.5690  0.1569
 1888TIP3    H227156   2.539   6.020  13.137 -0.2191 -0.0494  0.3645
 1889TIP3   OH227157   0.061   2.824   6.401  0.0150 -0.2509  0.2349
 1889TIP3    H127158   0.138   2.818   6.457  0.3292 -1.0249 -0.2529
 1889TIP3    H227159  -0.009   2.854   6.459  0.7171  0.6511  0.6398
 1890TIP3   OH227160   0.561   6.216   0.248  0.2170 -0.5260 -0.1141
 1890TIP3    H127161   0.512   6.293   0.275 -0.6469 -0.7039 -1.0768
 1890TIP3    H227162   0.645   6.250   0.218  0.1913 -0.0605  0.3338
 1891TIP3   OH227163   3.393   3.830   4.735 -0.1706  0.0792  0.2773
 1891TIP3    H127164   3.412   3.896   4.802 -1.3295 -0.3128  1.0124
 1891TIP3    H227165   3.476   3.821   4.687  0.1285  1.7569  0.4174
 1892TIP3   OH227166   6.458   2.944   4.468  0.6150  0.2338 -0.2623
 1892TIP3    H127167   6.401   2.868   4.482  0.9032  0.1065  0.2574
 1892TIP3    H227168   6.480   2.941   4.375  1.3090 -0.8151 -0.0796
 1893TIP3   OH227169   6.365   2.854  12.945 -0.0037 -0.0312 -0.1406
 1893TIP3    H127170   6.337   2.945  12.954 -1.6372 -0.5256  0.0743
 1893TIP3    H227171   6.461   2.859  12.939 -0.1500  1.8858 -2.4720
 1894TIP3   OH227172   3.240   3.089   5.386  0.0384  0.7579  0.5739
 1894TIP3    H127173   3.174   3.133   5.440  1.0858  1.7202  1.1165
 1894TIP3    H227174   3.253   3.148   5.312 -1.0760 -0.3500 -0.5428
 1895TIP3   OH227175   2.441   6.797   5.236 -0.8009  0.2063 -0.1481
 1895TIP3    H127176   2.354   6.832   5.254 -0.2694  0.4440  2.2102
 1895TIP3    H227177   2.431   6.702   5.249 -0.7550  0.2055 -0.1220
 1896TIP3   OH227178   2.349   1.272  15.644  0.2667 -0.3782  0.6006
 1896TIP3    H127179   2.289   1.197  15.651 -1.6018  0.9939 -0.1892
 1896TIP3    H227180   2.307   1.341  15.695  0.5764  0.9728 -0.9071
 1897TIP3   OH227181   6.706   0.171   0.749  0.2159  0.2589 -0.3153
 1897TIP3    H127182   6.620   0.185   0.710  0.9747 -1.7575 -3.0380
 1897TIP3    H227183   6.767   0.213   0.689  1.4808 -3.5214 -2.0243
 1898TIP3   OH227184   2.263   1.707   4.208  0.0238  0.2658  0.1842
 1898TIP3    H127185   2.251   1.620   4.247  0.9106 -0.0714 -0.2849
 1898TIP3    H227186   2.270   1.691   4.114  4.1013  0.3427  0.3082
 1899TIP3   OH227187   4.429   1.562   3.728 -0.2505  0.0774 -0.1471
 1899TIP3    H127188   4.442   1.656   3.718 -0.6863  0.0877 -0.6011
 1899TIP3    H227189   4.404   1.531   3.642 -1.9247 -0.1592  0.3931
 1900TIP3   OH227190   4.096   0.907   0.299 -0.6815 -0.2142  0.2429
 1900TIP3    H127191   4.182   0.932   0.334 -1.4547  0.7336  1.5452
 1900TIP3    H227192   4.060   0.987   0.262 -0.6649 -0.8054 -1.1409
 1901TIP3   OH227193   0.999   2.683   2.622  0.0847 -0.4005  0.2218
 1901TIP3    H127194   0.964   2.600   2.589  0.1754 -0.8497  1.2299
 1901TIP3    H227195   0.985   2.680   2.716  1.8552 -0.1247  0.5368
 1902TIP3   OH227196   0.906   1.039  16.394 -0.1365  0.0163  0.1628
 1902TIP3    H127197   0.994   1.035  16.358 -0.0496 -1.1500  0.4701
 1902TIP3    H227198   0.877   1.129  16.377  0.4630 -0.0649 -1.4615
 1903TIP3   OH227199   0.829   2.948   1.581  0.5287 -0.3566 -0.0991
 1903TIP3    H127200   0.807   2.972   1.491 -0.1976 -0.1609  0.1285
 1903TIP3    H227201   0.874   2.863   1.573  2.2912  0.5891 -0.8127
 1904TIP3   OH227202   5.737   2.125  15.271  0.4176  0.2738  0.1573
 1904TIP3    H127203   5.748   2.150  15.363  0.9198  1.7790 -0.2875
 1904TIP3    H227204   5.654   2.077  15.269  0.8281 -0.5463  1.5303
 1905TIP3   OH227205   3.508   2.021   0.322  0.2957 -0.4766 -0.1387
 1905TIP3    H127206   3.530   2.108   0.357  0.5693 -0.0988 -1.2133
 1905TIP3    H227207   3.589   1.990   0.283 -0.0329 -0.8338 -0.5403
 1906TIP3   OH227208   0.943   4.060   0.144 -0.6498  0.3352 -0.0246
 1906TIP3    H127209   0.957   3.978   0.192  2.2734  1.3256  1.0040
 1906TIP3    H227210   0.856   4.089   0.173 -0.4972 -0.9311  1.9328
 1907TIP3   OH227211   1.576   2.851  13.849 -0.1259  0.2844 -0.3922
 1907TIP3    H127212   1.551   2.785  13.914 -0.4592  0.8886  0.1086
 1907TIP3    H227213   1.656   2.890  13.885 -0.3801  0.7059 -0.2758
 1908TIP3   OH227214   6.146   3.510  11.754 -0.2429 -0.0417 -0.1671
 1908TIP3    H127215   6.098   3.441  11.708 -2.8579  1.3765  0.2119
 1908TIP3    H227216   6.154   3.477  11.844 -0.8719 -0.1292 -0.1407
 1909TIP3   OH227217   6.814   4.381  16.034 -0.0183 -0.0701 -0.0765
 1909TIP3    H127218   6.898   4.338  16.051 -0.0706 -1.2917 -2.4805
 1909TIP3    H227219   6.749   4.311  16.044 -0.5029  0.3212 -0.4228
 1910TIP3   OH227220   4.338   6.681   4.964  0.2337  0.3193 -0.0656
 1910TIP3    H127221   4.401   6.725   4.908  0.3347 -0.3140 -0.4506
 1910TIP3    H227222   4.365   6.590   4.964  0.0024  0.2409  0.7003
 1911TIP3   OH227223   1.885   0.573   1.485 -0.1252  0.4036  0.2983
 1911TIP3    H127224   1.797   0.571   1.448  0.7225 -0.2353 -1.8718
 1911TIP3    H227225   1.940   0.608   1.415  1.5911 -0.7299  1.0030
 1912TIP3   OH227226   6.120   2.299   4.951 -0.2758  0.4459  0.1978
 1912TIP3    H127227   6.141   2.382   4.908 -1.4915  0.4505 -0.4462
 1912TIP3    H227228   6.177   2.296   5.027  0.6719  1.2877 -0.4522
 1913TIP3   OH227229   3.379   3.092   2.033 -0.4123  0.1694  0.1601
 1913TIP3    H127230   3.355   3.142   1.955  0.0331  0.8900  0.4764
 1913TIP3    H227231   3.339   3.139   2.105 -2.6725 -1.6792  0.2372
 1914TIP3   OH227232   1.856   5.543   5.232 -0.6503  0.2291  0.2472
 1914TIP3    H127233   1.918   5.603   5.273 -0.0945  0.3067 -0.6671
 1914TIP3    H227234   1.813   5.498   5.305 -0.6414  1.3015  0.9276
 1915TIP3   OH227235   4.287   2.885   5.532 -0.0137 -0.9984  0.3659
 1915TIP3    H127236   4.328   2.938   5.601  3.4804 -1.4930 -1.1372
 1915TIP3    H227237   4.360   2.843   5.487 -2.3987 -5.7615  0.2884
 1916TIP3   OH227238   5.352   2.530   0.539  0.2508  0.0891 -0.0317
 1916TIP3    H127239   5.440   2.567   0.527  0.3056  0.3969  1.2212
 1916TIP3    H227240   5.364   2.436   0.522  1.0737 -0.0569  1.2522
 1917TIP3   OH227241   2.342   6.727  14.484 -0.3033  0.0327  0.4992
 1917TIP3    H127242   2.427   6.764  14.462  0.5546 -1.2435  1.5558
 1917TIP3    H227243   2.337   6.731  14.579 -0.1045 -2.5639  0.6995
 1918TIP3   OH227244   6.762   6.730   0.231 -0.6167 -0.6146 -0.0551
 1918TIP3    H127245   6.689   6.735   0.169 -0.2538  0.0642 -0.4457
 1918TIP3    H227246   6.840   6.750   0.178 -0.1227 -1.5339  0.3095
 1919TIP3   OH227247   1.027   1.664  11.111  0.7535 -0.0880 -0.2036
 1919TIP3    H127248   1.074   1.656  11.194  2.2494  0.4964 -0.9522
 1919TIP3    H227249   1.089   1.632  11.046  0.4900  1.5623 -1.3338
 1920TIP3   OH227250   4.679   4.338  15.635 -0.0874  0.2454 -0.4565
 1920TIP3    H127251   4.596   4.373  15.667 -0.1409  1.0604 -1.4182
 1920TIP3    H227252   4.681   4.247  15.666 -0.4096  0.7909  1.2619
 1921TIP3   OH227253   0.865   4.399  12.636 -0.3873  0.2209  0.0343
 1921TIP3    H127254   0.805   4.467  12.668  0.7587  1.0120  0.5723
 1921TIP3    H227255   0.852   4.398  12.542  0.0638  1.6921 -0.0697
 1922TIP3   OH227256   4.658   2.861  16.040 -0.0543 -0.5076 -0.3309
 1922TIP3    H127257   4.712   2.882  15.964  1.0899 -0.2263  0.5327
 1922TIP3    H227258   4.703   2.788  16.081  0.7622  0.9336  1.4570
 1923TIP3   OH227259   5.327   6.232   4.991 -0.0059  0.1654  0.1424
 1923TIP3    H127260   5.373   6.156   5.027 -1.3784 -1.3997 -1.2190
 1923TIP3    H227261   5.272   6.263   5.063 -0.1888 -0.7877  0.4308
 1924TIP3   OH227262   2.470   2.196  14.434  0.0349 -0.8882 -0.3724
 1924TIP3    H127263   2.469   2.118  14.379 -0.7528 -1.3958  0.3328
 1924TIP3    H227264   2.387   2.192  14.482  0.8455 -0.6724  1.1180
 1925TIP3   OH227265   1.135   1.241  16.185 -0.0539  0.8267 -0.0461
 1925TIP3    H127266   1.140   1.312  16.249  0.6615 -0.6729  1.6367
 1925TIP3    H227267   1.217   1.247  16.136  0.3053  0.7725  0.5368
 1926TIP3   OH227268   6.655   4.977  14.382  0.5214  0.7083  0.3821
 1926TIP3    H127269   6.722   5.033  14.344  0.7540  0.9547  1.1549
 1926TIP3    H227270   6.652   4.901  14.324  1.3349  0.7776  0.2425
 1927TIP3   OH227271   6.152   4.795   4.487  0.5704 -0.5648  0.6506
 1927TIP3    H127272   6.185   4.723   4.541  1.2599 -0.4433  0.3914
 1927TIP3    H227273   6.229   4.833   4.447  0.5553  1.9396  2.7159
 1928TIP3   OH227274   1.828   2.776  11.013 -0.1944 -0.1063  0.3017
 1928TIP3    H127275   1.816   2.861  10.971 -0.3518  0.3119  1.1645
 1928TIP3    H227276   1.850   2.716  10.942 -1.4020  0.3791 -0.5045
 1929TIP3   OH227277   1.464   1.666  14.423  0.4877  0.2919  0.3168
 1929TIP3    H127278   1.505   1.638  14.505  0.7537  0.3541  0.2067
 1929TIP3    H227279   1.475   1.591  14.364  0.4081  0.2942  0.2991
 1930TIP3   OH227280   5.721   5.841  13.742  0.1290 -0.4340  0.1158
 1930TIP3    H127281   5.793   5.813  13.799  0.1000 -0.7582 -0.0036
 1930TIP3    H227282   5.764   5.868  13.660  0.2562  0.9198  0.6001
 1931TIP3   OH227283   3.343   5.717  13.969  0.3915 -0.7427  0.7055
 1931TIP3    H127284   3.301   5.797  13.938  1.2553 -0.7889 -0.6822
 1931TIP3    H227285   3.327   5.653  13.900  1.4189 -1.1864  0.8599
 1932TIP3   OH227286   5.588   0.127   0.612 -0.3305  0.1500 -0.0401
 1932TIP3    H127287   5.638   0.186   0.668 -0.1772  0.1102 -0.1328
 1932TIP3    H227288   5.647   0.109   0.538  0.4034 -1.6915  0.9422
 1933TIP3   OH227289   4.538   4.202  11.450  0.1098  0.6655  0.4335
 1933TIP3    H127290   4.579   4.274  11.402 -0.4252  0.1905 -0.7573
 1933TIP3    H227291   4.457   4.185  11.403  0.1673 -0.6236  0.7803
 1934TIP3   OH227292   2.446   1.343  10.514  0.3358 -0.1476 -0.2379
 1934TIP3    H127293   2.394   1.363  10.436 -0.9329 -3.0174 -0.2384
 1934TIP3    H227294   2.508   1.277  10.484 -0.3956 -1.5464  1.2405
 1935TIP3   OH227295   4.553   0.734   4.629 -0.1792  0.5286 -0.0701
 1935TIP3    H127296   4.501   0.665   4.587  1.2042 -0.6929  0.1455
 1935TIP3    H227297   4.607   0.769   4.558  0.8025 -0.2359  0.2879
 1936TIP3   OH227298   0.081   2.435   5.527 -0.8339 -0.3032  0.2978
 1936TIP3    H127299   0.126   2.512   5.560  0.3694 -0.7349 -0.2652
 1936TIP3    H227300   0.033   2.465   5.450  0.8079 -0.3585 -0.8053
 1937TIP3   OH227301   6.162   1.608  16.192  0.3798 -0.4330 -0.4028
 1937TIP3    H127302   6.168   1.521  16.153 -0.4907 -0.7139  0.0531
 1937TIP3    H227303   6.235   1.612  16.253 -1.1555 -1.9626  1.6701
 1938TIP3   OH227304   0.793   3.708  13.396  0.0953  0.2305 -0.0377
 1938TIP3    H127305   0.776   3.801  13.405 -1.0601  0.2873 -2.1910
 1938TIP3    H227306   0.858   3.702  13.326  0.4128 -0.5675  0.3130
 1939TIP3   OH227307   5.660   2.109  11.844  0.1356 -0.6274 -0.1188
 1939TIP3    H127308   5.633   2.197  11.816 -0.1886 -0.6973 -0.0390
 1939TIP3    H227309   5.729   2.125  11.908  1.0940 -0.4793 -1.1641
 1940TIP3   OH227310   2.452   2.109  12.365  0.4944  0.8364 -0.4285
 1940TIP3    H127311   2.502   2.161  12.302  2.0216  0.2923  0.3147
 1940TIP3    H227312   2.416   2.173  12.426 -1.1425  1.3908 -1.8860
 1941TIP3   OH227313   2.210   5.930  12.602  0.4059  0.6602 -0.0950
 1941TIP3    H127314   2.117   5.923  12.623  0.0848  0.5169 -1.4353
 1941TIP3    H227315   2.231   6.023  12.611  0.2310  0.6335  0.5851
 1942TIP3   OH227316   5.278   1.072   1.525 -0.7213  0.2508  0.2789
 1942TIP3    H127317   5.367   1.052   1.552 -1.5666 -1.3255  2.1041
 1942TIP3    H227318   5.269   1.031   1.439 -0.0937 -0.7691  0.6847
 1943TIP3   OH227319   1.605   2.384   2.952 -0.0685 -0.3000 -0.0345
 1943TIP3    H127320   1.616   2.367   2.858 -0.1188  0.0559 -0.1056
 1943TIP3    H227321   1.630   2.302   2.994  1.5459  0.0265 -0.2725
 1944TIP3   OH227322   3.171   6.289   2.480 -0.1842 -0.1689  0.6131
 1944TIP3    H127323   3.130   6.372   2.504  1.4986  1.4000 -1.3934
 1944TIP3    H227324   3.263   6.300   2.505  0.3949 -0.7297 -1.0801
 1945TIP3   OH227325   0.362   0.384   4.580  0.4656  0.0544  0.2275
 1945TIP3    H127326   0.437   0.413   4.632 -0.1217  0.9245  0.6011
 1945TIP3    H227327   0.385   0.407   4.490  0.2221  1.2419  0.4568
 1946TIP3   OH227328   1.739   1.554  16.774 -0.2728 -0.3545 -0.7574
 1946TIP3    H127329   1.772   1.591  16.856 -2.0573  1.1408 -0.6526
 1946TIP3    H227330   1.789   1.599  16.706  0.4667 -0.8293 -0.5464
 1947TIP3   OH227331   2.745   0.057  12.001  0.2070  0.3282  0.9095
 1947TIP3    H127332   2.700   0.083  12.081 -0.1308  0.7343  0.5976
 1947TIP3    H227333   2.767   0.141  11.958 -5.4053  0.4883 -2.7170
 1948TIP3   OH227334   1.993   3.468   4.203 -0.1056  0.8471  0.0085
 1948TIP3    H127335   2.022   3.401   4.264 -0.5448  1.8947  1.4224
 1948TIP3    H227336   1.966   3.541   4.259 -1.2129  1.5760 -1.4136
 1949TIP3   OH227337   4.752   2.162   1.183  0.3159  0.5528 -0.2473
 1949TIP3    H127338   4.827   2.118   1.142  0.8592  0.2972  0.9636
 1949TIP3    H227339   4.691   2.177   1.112  1.3345  0.3582 -1.1871
 1950TIP3   OH227340   6.226   3.383   6.600  0.2395  0.5631 -0.0697
 1950TIP3    H127341   6.147   3.419   6.641 -0.3987 -1.2194  0.3739
 1950TIP3    H227342   6.194   3.341   6.520  0.8143  0.2711 -0.1524
 1951TIP3   OH227343   1.854   1.032   1.944  0.2767 -0.0197 -0.2754
 1951TIP3    H127344   1.912   0.957   1.932  1.0790  0.3776  0.8764
 1951TIP3    H227345   1.858   1.080   1.862  0.5263 -0.7180 -0.6751
 1952TIP3   OH227346   1.202   0.573  12.991  0.2941 -0.9735 -0.4407
 1952TIP3    H127347   1.145   0.511  13.036 -0.5674 -0.9114 -1.4205
 1952TIP3    H227348   1.286   0.528  12.985  0.0072 -1.5646 -0.0889
 1953TIP3   OH227349   3.706   4.530  16.587 -0.2162 -0.1799 -0.0560
 1953TIP3    H127350   3.742   4.467  16.524  1.5152 -0.5337  1.2071
 1953TIP3    H227351   3.737   4.615  16.555  0.6977 -0.3623  0.3245
 1954TIP3   OH227352   1.844   6.232  13.185  0.2736  0.6998 -0.0420
 1954TIP3    H127353   1.816   6.227  13.093 -4.0075  1.7830  0.9585
 1954TIP3    H227354   1.825   6.322  13.211  0.0902  0.0684  2.2227
 1955TIP3   OH227355   6.196   3.594   6.267  0.4246 -0.2590 -0.5645
 1955TIP3    H127356   6.222   3.565   6.354 -0.5805 -1.0355 -0.5029
 1955TIP3    H227357   6.175   3.513   6.220 -0.1583  0.2284 -1.1569
 1956TIP3   OH227358   2.585   0.349  17.079 -0.6651  0.0407 -0.3874
 1956TIP3    H127359   2.648   0.417  17.101 -0.9471 -0.2120  1.3281
 1956TIP3    H227360   2.628   0.296  17.012  1.6006 -1.0602  1.8277
 1957TIP3   OH227361   4.125   4.764   1.867  0.0833  0.0241 -0.6269
 1957TIP3    H127362   4.065   4.700   1.828 -0.3977 -0.6716  1.1486
 1957TIP3    H227363   4.205   4.715   1.883 -0.3923 -0.2679  1.0299
 1958TIP3   OH227364   4.131   1.724  12.672  0.1764 -0.0638  0.0269
 1958TIP3    H127365   4.096   1.635  12.667  1.1707 -0.4511 -0.1297
 1958TIP3    H227366   4.106   1.754  12.759  1.9657 -1.4233  1.0801
 1959TIP3   OH227367   5.401   1.990   2.394 -0.7181 -0.1931 -0.0834
 1959TIP3    H127368   5.315   1.983   2.353 -0.1382  1.5437 -1.7404
 1959TIP3    H227369   5.386   2.045   2.471 -1.3240 -1.1068  0.4686
 1960TIP3   OH227370   5.109   0.138   0.245  0.2696 -1.1302 -0.2053
 1960TIP3    H127371   5.202   0.114   0.249  0.6854 -0.0319 -2.0271
 1960TIP3    H227372   5.110   0.234   0.241 -1.0818 -0.9734  1.7491
 1961TIP3   OH227373   1.482   2.031  12.818 -0.0297 -0.1655  0.1755
 1961TIP3    H127374   1.539   2.092  12.772  0.1168  1.0294  1.8847
 1961TIP3    H227375   1.472   2.068  12.905 -1.3044 -1.7260  0.7339
 1962TIP3   OH227376   4.353   2.388   5.939  0.2214 -0.3047  0.3198
 1962TIP3    H127377   4.418   2.458   5.940  0.6516 -0.6442  3.3651
 1962TIP3    H227378   4.269   2.433   5.923  0.9830  0.1692 -3.2828
 1963TIP3   OH227379   1.386   4.255  14.801 -0.5527  0.0713  0.0941
 1963TIP3    H127380   1.404   4.167  14.833 -1.1405  0.2178  0.8544
 1963TIP3    H227381   1.303   4.248  14.756 -0.5269  0.2033  0.0253
 1964TIP3   OH227382   4.625   5.839  16.273  0.7908 -0.9079 -1.0949
 1964TIP3    H127383   4.585   5.818  16.188 -0.4214  1.1512 -1.1094
 1964TIP3    H227384   4.551   5.838  16.335  0.9560  1.2097 -0.7824
 1965TIP3   OH227385   4.520   5.602  11.855  0.1705 -0.1607 -0.2331
 1965TIP3    H127386   4.559   5.644  11.779  0.8733 -0.0454  0.1761
 1965TIP3    H227387   4.595   5.578  11.910 -0.3389  0.2059  0.6523
 1966TIP3   OH227388   5.543   4.270   5.966 -0.1944  0.0131  0.1834
 1966TIP3    H127389   5.567   4.360   5.941  0.9590 -0.1725  0.5627
 1966TIP3    H227390   5.613   4.242   6.025 -1.3603 -0.5809  1.3536
 1967TIP3   OH227391   0.520   5.036  15.540 -0.1708  0.1333  0.0761
 1967TIP3    H127392   0.548   5.125  15.562 -0.8001  0.3914 -0.1447
 1967TIP3    H227393   0.549   5.024  15.450  3.2465 -1.2641  1.1925
 1968TIP3   OH227394   4.544   3.000  13.233  0.3024 -0.2788 -0.0055
 1968TIP3    H127395   4.583   3.041  13.156  0.3901 -1.0850 -0.3939
 1968TIP3    H227396   4.617   2.990  13.294  0.4276 -0.5540 -0.2031
 1969TIP3   OH227397   3.313   1.217   1.211  0.0101  0.4039 -0.5929
 1969TIP3    H127398   3.401   1.249   1.226 -0.4152  0.9627  0.9686
 1969TIP3    H227399   3.308   1.201   1.117  0.9758  2.7403 -1.1003
 1970TIP3   OH227400   6.086   1.524   2.026  0.0312  0.1415  0.2966
 1970TIP3    H127401   5.999   1.562   2.011  0.1285  0.0553 -0.4990
 1970TIP3    H227402   6.142   1.565   1.961  0.4698 -0.2219  0.4425
 1971TIP3   OH227403   0.785   3.624   3.214 -0.5187  0.6456 -0.1195
 1971TIP3    H127404   0.764   3.648   3.304  0.3068 -0.6763  0.4533
 1971TIP3    H227405   0.857   3.682   3.189 -0.0106  0.2681  0.4619
 1972TIP3   OH227406   5.431   3.322  15.814  0.2398 -0.3428  0.8158
 1972TIP3    H127407   5.405   3.230  15.815 -0.7303 -0.1420 -1.0315
 1972TIP3    H227408   5.489   3.329  15.738 -0.8038  0.7988  0.0864
 1973TIP3   OH227409   2.253   3.592   0.433 -0.0049  0.0985  0.0070
 1973TIP3    H127410   2.275   3.628   0.519 -0.6867 -0.4923  0.4473
 1973TIP3    H227411   2.245   3.669   0.377  1.3269  0.4304  0.2525
 1974TIP3   OH227412   0.185   2.193   4.810 -0.2378 -0.2097  0.0448
 1974TIP3    H127413   0.273   2.202   4.773 -1.0410  1.8562 -1.5765
 1974TIP3    H227414   0.200   2.167   4.901  2.0671  0.2497 -0.1330
 1975TIP3   OH227415   0.386   6.398   2.055  0.2661  0.7114 -0.4230
 1975TIP3    H127416   0.414   6.330   2.116  1.0431 -0.6717 -2.2121
 1975TIP3    H227417   0.297   6.374   2.031  0.6670  0.0451 -1.3364
 1976TIP3   OH227418   2.868   1.856  15.109 -0.5385  0.1072  0.0459
 1976TIP3    H127419   2.937   1.919  15.088 -1.0652  0.8719  0.5659
 1976TIP3    H227420   2.894   1.820  15.194 -1.1048  0.8797  0.5566
 1977TIP3   OH227421   4.108   3.925   1.380  0.1310  0.4962 -0.4677
 1977TIP3    H127422   4.102   3.899   1.472 -0.2345  2.2336  0.0354
 1977TIP3    H227423   4.111   3.842   1.332 -3.1301 -0.5569  0.8620
 1978TIP3   OH227424   5.372   2.745  15.702 -0.1033  0.4329  0.1882
 1978TIP3    H127425   5.299   2.740  15.641  0.8384 -1.1465 -0.8907
 1978TIP3    H227426   5.450   2.736  15.647  0.7769 -1.2270  1.6182
 1979TIP3   OH227427   0.258   3.993  12.824 -0.1552  0.1694 -0.4721
 1979TIP3    H127428   0.293   4.029  12.906 -1.2438  1.1512 -0.4125
 1979TIP3    H227429   0.268   4.064  12.760  0.1591 -0.3855 -1.0486
 1980TIP3   OH227430   3.563   5.876   0.263  0.3216 -0.1870  0.1686
 1980TIP3    H127431   3.635   5.929   0.229  0.0509  0.4662  0.5766
 1980TIP3    H227432   3.485   5.912   0.221  0.1350 -0.2780  0.4321
 1981TIP3   OH227433   1.359   3.964   1.330 -0.1458  0.0626 -0.2293
 1981TIP3    H127434   1.452   3.974   1.351  0.3343 -1.0938 -1.6233
 1981TIP3    H227435   1.317   3.946   1.415  1.2615 -1.6585  0.1796
 1982TIP3   OH227436   4.904   0.059  17.204  0.7367 -0.5619  0.0714
 1982TIP3    H127437   4.886   0.005  17.127  0.4475  0.2442 -0.4363
 1982TIP3    H227438   4.939   0.141  17.169 -0.5605  0.3084  0.7013
 1983TIP3   OH227439   3.975   1.950  16.978  0.4034 -0.5695  0.3131
 1983TIP3    H127440   3.974   1.881  16.912 -3.9806  0.2014 -0.7106
 1983TIP3    H227441   3.903   1.929  17.037  1.0769  1.4214  1.9904
 1984TIP3   OH227442   0.201   3.410  15.094  0.5156 -0.2821  0.7381
 1984TIP3    H127443   0.134   3.344  15.114  0.1999  0.3924  1.9871
 1984TIP3    H227444   0.208   3.462  15.174  3.4617 -1.0989  1.1467
 1985TIP3   OH227445   3.816   3.953   5.903 -0.3269 -0.3369  0.0508
 1985TIP3    H127446   3.853   4.031   5.944  0.2810 -0.3547 -0.4457
 1985TIP3    H227447   3.825   3.884   5.969  1.6698 -0.6355 -0.4750
 1986TIP3   OH227448   4.310   0.605  13.471 -0.0665  0.0049 -0.3674
 1986TIP3    H127449   4.277   0.686  13.434 -2.0164  0.6855  2.5439
 1986TIP3    H227450   4.385   0.631  13.524 -1.0094  0.0456  0.9901
 1987TIP3   OH227451   4.442   3.180   5.080  0.9254 -0.1995 -0.1379
 1987TIP3    H127452   4.416   3.089   5.070  0.0710 -0.1154  1.0618
 1987TIP3    H227453   4.420   3.221   4.996 -0.1585 -0.7676 -0.1474
 1988TIP3   OH227454   5.667   4.334  13.079  0.5395  0.0973  0.0425
 1988TIP3    H127455   5.682   4.321  12.985 -0.8207  0.8515 -0.3058
 1988TIP3    H227456   5.705   4.256  13.121  3.0535  0.7139 -0.9211
 1989TIP3   OH227457   5.508   5.616   1.172  0.2499 -0.4446  0.0792
 1989TIP3    H127458   5.416   5.598   1.152  0.4551 -0.1272 -1.2054
 1989TIP3    H227459   5.554   5.534   1.156  0.3886 -0.2396 -0.5710
 1990TIP3   OH227460   2.450   2.287   1.618 -0.6389  0.5874  0.3686
 1990TIP3    H127461   2.416   2.230   1.549  0.4529  0.1106  0.2057
 1990TIP3    H227462   2.492   2.227   1.680  0.9271  1.2166 -0.0303
 1991TIP3   OH227463   0.901   3.944   4.972 -0.0886  0.2198 -0.8016
 1991TIP3    H127464   0.930   3.927   5.062 -1.3445  1.2993 -0.1671
 1991TIP3    H227465   0.982   3.944   4.921  0.6527 -0.3735  0.3182
 1992TIP3   OH227466   2.547   1.966  15.186 -0.1858 -0.0560 -0.2583
 1992TIP3    H127467   2.627   2.014  15.210 -0.0854 -0.5033  0.3210
 1992TIP3    H227468   2.521   2.004  15.102  0.2323  0.5936 -0.1050
 1993TIP3   OH227469   6.476   1.649  12.870  0.1359 -0.2786  0.5682
 1993TIP3    H127470   6.487   1.604  12.786 -1.8416 -0.0131  0.1232
 1993TIP3    H227471   6.526   1.731  12.860 -0.4451 -0.0379 -0.5358
 1994TIP3   OH227472   5.867   6.066  11.600  0.2786  0.6024  0.1108
 1994TIP3    H127473   5.921   6.145  11.591  0.6642  0.3756  0.3970
 1994TIP3    H227474   5.842   6.065  11.692  0.0106  0.5593  0.0367
 1995TIP3   OH227475   0.510   6.784  17.089  0.2679 -0.3412  0.3790
 1995TIP3    H127476   0.460   6.865  17.085  2.9368  1.5117  1.3513
 1995TIP3    H227477   0.463   6.723  17.033 -1.9086  1.8379 -0.3124
 1996TIP3   OH227478   6.647   5.094  13.506  0.0763 -0.0152  0.1452
 1996TIP3    H127479   6.560   5.132  13.519 -0.0026  0.1343 -0.7095
 1996TIP3    H227480   6.647   5.066  13.414  0.6673 -0.7124  0.3486
 1997TIP3   OH227481   6.123   3.179   2.166 -0.2943 -0.3215 -0.0491
 1997TIP3    H127482   6.141   3.270   2.145  0.3648  0.3630  3.0942
 1997TIP3    H227483   6.028   3.172   2.164 -0.3282  0.2240 -0.9379
 1998TIP3   OH227484   5.837   0.504  11.146  0.9440 -0.0473 -0.7541
 1998TIP3    H127485   5.868   0.592  11.165 -1.7694  1.1481 -1.3905
 1998TIP3    H227486   5.799   0.511  11.058 -0.2905 -1.5565 -0.3791
 1999TIP3   OH227487   2.019   2.661  15.951 -0.1200  0.6270 -0.2484
 1999TIP3    H127488   1.944   2.627  15.999 -0.2732 -1.4205 -1.7694
 1999TIP3    H227489   2.095   2.638  16.005 -0.4467  1.0316  0.3969
 2000TIP3   OH227490   4.941   1.505   5.004  0.3975  0.1790 -0.9021
 2000TIP3    H127491   4.996   1.492   5.082 -0.8057  1.0761  0.1368
 2000TIP3    H227492   4.878   1.433   5.008 -0.1364  0.6501 -0.5992
 2001TIP3   OH227493   0.033   4.479   2.109 -0.2595  0.1995 -0.9315
 2001TIP3    H127494  -0.030   4.542   2.143 -1.0659 -0.6070 -0.8871
 2001TIP3    H227495  -0.017   4.399   2.096  0.5256 -0.1682 -1.8977
 2002TIP3   OH227496   5.989   2.658  16.905  0.4449  0.0497  0.5950
 2002TIP3    H127497   6.030   2.721  16.965 -0.0158  0.8250  0.1060
 2002TIP3    H227498   5.911   2.702  16.874 -1.0802 -1.6015  1.8848
 2003TIP3   OH227499   6.189   6.154  14.795 -0.2044  0.1402  0.4833
 2003TIP3    H127500   6.229   6.112  14.872  1.2735  1.1521  0.2985
 2003TIP3    H227501   6.133   6.222  14.831  1.7059  1.6775  0.6841
 2004TIP3   OH227502   0.845   2.541   5.121  0.2747  0.0601 -0.2293
 2004TIP3    H127503   0.753   2.550   5.149  0.4253  2.0267 -0.2037
 2004TIP3    H227504   0.891   2.512   5.200  0.0617  1.6612  0.5172
 2005TIP3   OH227505   5.474   1.036  12.056 -0.2841  0.1786  0.2967
 2005TIP3    H127506   5.531   0.961  12.041  0.9224  0.4355  2.9683
 2005TIP3    H227507   5.465   1.077  11.970  0.5679 -1.9090 -0.8724
 2006TIP3   OH227508   0.548   1.112  12.089 -0.4797  0.0174 -0.4413
 2006TIP3    H127509   0.549   1.204  12.062  0.5909  0.5145  1.1663
 2006TIP3    H227510   0.582   1.064  12.014 -0.7237  0.9621 -1.1687
 2007TIP3   OH227511   0.017   5.737   2.791  0.1355  0.2752  0.5518
 2007TIP3    H127512  -0.076   5.751   2.809  0.1552  0.7847  0.2665
 2007TIP3    H227513   0.056   5.721   2.878 -0.8285 -3.9698  0.4315
 2008TIP3   OH227514   5.363   5.518  11.067 -0.2521 -0.4827 -0.0027
 2008TIP3    H127515   5.457   5.519  11.082 -0.5038 -0.5105  1.8401
 2008TIP3    H227516   5.336   5.610  11.075 -0.5302 -0.6153  0.6553
 2009TIP3   OH227517   2.343   1.699   0.121  0.2893  0.5638 -0.0669
 2009TIP3    H127518   2.400   1.685   0.196  0.5429  0.1990 -0.3265
 2009TIP3    H227519   2.257   1.717   0.159  0.3546  0.1088  0.3077
 2010TIP3   OH227520   0.641   1.895   6.522 -0.1512 -0.4969 -0.5783
 2010TIP3    H127521   0.656   1.847   6.441  0.3862 -1.5591  0.1283
 2010TIP3    H227522   0.729   1.919   6.552 -0.4429  2.5404 -1.8095
 2011TIP3   OH227523   4.295   6.723   1.952 -0.5662  0.3824  0.3155
 2011TIP3    H127524   4.249   6.805   1.934 -3.0438 -0.0390  3.6234
 2011TIP3    H227525   4.245   6.656   1.905  0.3013  0.4906 -0.8150
 2012TIP3   OH227526   1.352   0.898   2.828  0.0677 -0.3343 -0.3195
 2012TIP3    H127527   1.356   0.896   2.732  1.8302  4.4017 -0.6044
 2012TIP3    H227528   1.286   0.964   2.847 -0.1429 -1.0992  1.7641
 2013TIP3   OH227529   5.024   1.814  12.637 -0.2122  0.4297  0.2824
 2013TIP3    H127530   5.100   1.854  12.595  1.7490 -2.0613  1.2422
 2013TIP3    H227531   4.949   1.860  12.599  1.6731  1.8462 -1.9715
 2014TIP3   OH227532   2.152   2.871   5.430  0.5114  0.5472 -0.0294
 2014TIP3    H127533   2.244   2.879   5.404  1.4329  1.6811  3.1651
 2014TIP3    H227534   2.130   2.957   5.464 -1.2485 -0.1802  0.7556
 2015TIP3   OH227535   1.551   3.675  10.550 -0.0424 -0.0293  0.3810
 2015TIP3    H127536   1.561   3.741  10.482  1.1149  0.8676  1.3755
 2015TIP3    H227537   1.499   3.718  10.618 -0.3989 -0.5888  0.4613
 2016TIP3   OH227538   0.693   2.723   2.380 -0.4615 -0.1402 -0.1458
 2016TIP3    H127539   0.724   2.740   2.291  0.1222  2.3214  0.4364
 2016TIP3    H227540   0.599   2.709   2.370 -0.4286  0.2267 -1.1452
 2017TIP3   OH227541   4.044   2.836   4.522 -0.0031  0.1219  0.2185
 2017TIP3    H127542   4.007   2.761   4.476  0.8589 -0.4758  0.4953
 2017TIP3    H227543   4.081   2.890   4.452 -0.3110  0.1267  0.0526
 2018TIP3   OH227544   0.953   0.896   3.247 -0.0018 -0.3844  0.3203
 2018TIP3    H127545   0.913   0.847   3.175 -1.4459 -0.0251  0.8488
 2018TIP3    H227546   1.033   0.933   3.209 -0.0229 -1.3428 -0.6939
 2019TIP3   OH227547   5.820   6.705  16.727 -0.3392 -0.4670 -0.4337
 2019TIP3    H127548   5.836   6.793  16.692  0.4009 -0.4646 -0.1162
 2019TIP3    H227549   5.804   6.651  16.650 -1.4004  0.0578 -0.5972
 2020TIP3   OH227550   3.595   0.633   1.994  0.3298 -0.4749 -0.4028
 2020TIP3    H127551   3.603   0.609   2.086  0.0253 -0.5684 -0.4007
 2020TIP3    H227552   3.660   0.578   1.950  1.7350  0.8199 -0.0368
 2021TIP3   OH227553   6.299   5.806  13.462 -0.6044  0.2831 -0.6363
 2021TIP3    H127554   6.311   5.716  13.430 -2.1491 -0.1364 -0.1197
 2021TIP3    H227555   6.388   5.839  13.473 -0.0063 -0.8888 -1.6475
 2022TIP3   OH227556   2.362   6.557  14.272 -0.2209 -0.1986  0.5247
 2022TIP3    H127557   2.429   6.581  14.208 -1.3254  0.8670 -0.2622
 2022TIP3    H227558   2.347   6.637  14.323 -2.1008  0.1144 -0.4409
 2023TIP3   OH227559   2.599   5.796  10.440 -0.0282  0.2867  0.6829
 2023TIP3    H127560   2.531   5.844  10.487 -0.0816  0.0680  0.8314
 2023TIP3    H227561   2.552   5.750  10.370  0.0407  0.5520  0.4608
 2024TIP3   OH227562   0.309   5.871  11.937  0.2490 -0.2336 -0.7510
 2024TIP3    H127563   0.217   5.888  11.956  0.6171  0.7205  0.2884
 2024TIP3    H227564   0.319   5.776  11.950 -0.6066 -0.3579 -0.9867
 2025TIP3   OH227565   1.253   4.163  12.764 -0.2097 -0.1828 -0.6593
 2025TIP3    H127566   1.180   4.128  12.714 -0.6078 -0.3299  0.0039
 2025TIP3    H227567   1.255   4.256  12.740 -0.9271 -0.0686 -0.3304
 2026TIP3   OH227568   2.358   4.496   0.575  0.1993  0.5909  0.0516
 2026TIP3    H127569   2.271   4.476   0.610 -0.5100  0.8739 -1.4387
 2026TIP3    H227570   2.408   4.526   0.650 -0.8596  0.0099  1.0279
 2027TIP3   OH227571   5.254   1.363  15.507 -0.6912 -0.4110  0.4615
 2027TIP3    H127572   5.234   1.276  15.540 -1.6106 -0.1113  0.7335
 2027TIP3    H227573   5.205   1.422  15.564 -1.3627  0.1976 -0.7117
 2028TIP3   OH227574   0.575   1.409  16.671  1.4314  0.3327 -0.5172
 2028TIP3    H127575   0.568   1.503  16.686  1.9133  0.3395 -0.3317
 2028TIP3    H227576   0.668   1.393  16.662  1.3468 -0.1206 -0.6191
 2029TIP3   OH227577   1.895   5.942   4.406 -0.0191  0.0817 -0.1405
 2029TIP3    H127578   1.833   5.947   4.334 -0.0931  1.2056 -0.0188
 2029TIP3    H227579   1.931   5.853   4.402 -0.9617 -0.2762 -0.7619
 2030TIP3   OH227580   5.803   3.267  15.769 -0.0268  1.1211 -0.2672
 2030TIP3    H127581   5.767   3.279  15.681  1.2656  3.1224 -0.5839
 2030TIP3    H227582   5.889   3.229  15.755 -0.8416 -1.1143  0.3462
 2031TIP3   OH227583   3.633   5.822   4.611  0.6706  0.4513 -0.1398
 2031TIP3    H127584   3.611   5.896   4.554 -0.0590  0.8824  0.6905
 2031TIP3    H227585   3.556   5.766   4.609  1.1676 -0.2477 -0.6555
 2032TIP3   OH227586   2.455   5.449   1.858 -0.7516 -0.2338  0.6925
 2032TIP3    H127587   2.427   5.397   1.783 -0.2250 -1.5643  1.3880
 2032TIP3    H227588   2.381   5.445   1.919 -1.1937  0.8735  0.2538
 2033TIP3   OH227589   5.935   6.056   5.195  0.3336 -0.0307 -0.1850
 2033TIP3    H127590   5.924   6.065   5.101 -1.8223  0.3847  0.0510
 2033TIP3    H227591   5.854   6.016   5.226  1.0053 -0.2147  1.4956
 2034TIP3   OH227592   4.972   4.308   3.776  0.0378 -0.6121  0.1027
 2034TIP3    H127593   4.930   4.393   3.788  2.3900  0.5800  0.4106
 2034TIP3    H227594   4.974   4.270   3.864  0.0777 -0.4474  0.1739
 2035TIP3   OH227595   2.819   2.021  10.984  0.1631  0.1170 -0.0337
 2035TIP3    H127596   2.850   2.105  11.019 -1.8641  1.8728 -2.1680
 2035TIP3    H227597   2.771   2.043  10.905 -0.8136 -3.0577 -0.4932
 2036TIP3   OH227598   0.187   0.648  10.940  0.0222 -0.2012 -0.1517
 2036TIP3    H127599   0.277   0.621  10.925  1.4144  1.9976  3.1023
 2036TIP3    H227600   0.158   0.595  11.014 -1.9203 -1.7654 -1.9131
 2037TIP3   OH227601   5.038   0.163  13.669 -0.1253 -0.7148  0.1606
 2037TIP3    H127602   5.087   0.227  13.720 -0.1126 -0.8192  0.2805
 2037TIP3    H227603   4.952   0.203  13.655  0.4580  0.1031 -1.3018
 2038TIP3   OH227604   2.181   3.794  16.532  0.1589 -0.0491  0.2739
 2038TIP3    H127605   2.172   3.880  16.491 -1.7425 -0.5851 -0.5545
 2038TIP3    H227606   2.274   3.773  16.524  0.4484  1.4223 -0.5540
 2039TIP3   OH227607   6.352   5.684   4.864  0.3723 -0.5287  0.6282
 2039TIP3    H127608   6.263   5.716   4.855  0.5410 -0.5690 -1.5587
 2039TIP3    H227609   6.348   5.592   4.841  1.1313 -0.3013 -0.4828
 2040TIP3   OH227610   5.953   0.499   0.279 -0.0231  0.0371  0.0195
 2040TIP3    H127611   5.983   0.423   0.329 -0.7768  0.1777  0.6989
 2040TIP3    H227612   5.864   0.515   0.310 -0.4021  0.3094 -1.1657
 2041TIP3   OH227613   6.608   5.466  12.127  0.0152 -0.1959 -0.3449
 2041TIP3    H127614   6.525   5.421  12.110 -0.7155  1.7738 -2.3537
 2041TIP3    H227615   6.669   5.431  12.062 -0.2877  0.9416 -1.2719
 2042TIP3   OH227616   0.394   3.977   1.306  0.2685  0.2203 -0.4731
 2042TIP3    H127617   0.434   3.906   1.357  0.7572  1.4950  0.9705
 2042TIP3    H227618   0.343   3.931   1.239  0.4979 -1.4999  0.4545
 2043TIP3   OH227619   2.320   4.672   2.085 -0.3074 -0.1849  0.4045
 2043TIP3    H127620   2.274   4.700   2.165 -1.1888 -0.3703 -0.0282
 2043TIP3    H227621   2.409   4.707   2.096  0.0891 -1.5698  2.2240
 2044TIP3   OH227622   0.421   4.047  15.781 -0.4355  0.0603 -0.0347
 2044TIP3    H127623   0.501   4.093  15.806 -1.0612  0.0376  2.2101
 2044TIP3    H227624   0.352   4.088  15.833 -1.4220 -1.7247  0.1769
 2045TIP3   OH227625   3.089   2.958  12.472 -0.3808 -0.2082  0.1375
 2045TIP3    H127626   3.109   2.864  12.468  0.2183 -0.0398 -1.7716
 2045TIP3    H227627   3.021   2.965  12.539 -1.4427 -2.1914 -0.6429
 2046TIP3   OH227628   2.029   2.666   4.634 -0.4802  0.2494 -0.4033
 2046TIP3    H127629   1.997   2.604   4.699  0.7638  0.0908  0.0771
 2046TIP3    H227630   2.002   2.628   4.550 -1.0283 -0.1618 -0.0489
 2047TIP3   OH227631   5.308   2.613  13.682 -0.2772  0.0575 -0.2791
 2047TIP3    H127632   5.291   2.696  13.726 -0.5549 -1.0596  1.8134
 2047TIP3    H227633   5.403   2.609  13.674 -0.3203  1.2225 -1.7761
 2048TIP3   OH227634   3.688   1.097   3.746  0.2717  0.3058  0.2105
 2048TIP3    H127635   3.636   1.120   3.822  0.3915  0.1680  0.3343
 2048TIP3    H227636   3.736   1.177   3.725  1.5055 -0.1215  1.2916
 2049TIP3   OH227637   1.730   6.052  13.369  0.5057 -0.3988 -0.1373
 2049TIP3    H127638   1.775   6.002  13.437  0.0383 -0.4349  0.1520
 2049TIP3    H227639   1.797   6.110  13.333 -0.0698  2.9102  3.3870
 2050TIP3   OH227640   4.705   3.153   6.553  0.5452  0.2971  0.0990
 2050TIP3    H127641   4.796   3.159   6.580  0.0477 -0.4234  2.1272
 2050TIP3    H227642   4.688   3.059   6.546  1.2241  0.2717 -5.2758
 2051TIP3   OH227643   0.074   0.410  11.893  0.4422  0.0936 -0.0747
 2051TIP3    H127644   0.009   0.475  11.863  0.6521  1.0263  1.3625
 2051TIP3    H227645   0.050   0.330  11.847  0.2481  1.2041 -2.0271
 2052TIP3   OH227646   0.663   3.532  15.342 -0.1331 -0.7063  0.6796
 2052TIP3    H127647   0.754   3.562  15.344 -0.4618  0.3059  1.6760
 2052TIP3    H227648   0.643   3.523  15.249  0.5650  0.4076  0.3984
 2053TIP3   OH227649   2.213   0.637  13.447  0.0899  0.7365 -0.2204
 2053TIP3    H127650   2.207   0.662  13.540  0.6306 -0.4205  0.1366
 2053TIP3    H227651   2.133   0.586  13.431  0.2485  0.5012 -0.2563
 2054TIP3   OH227652   0.869   2.595   5.628 -0.2343 -0.1153 -0.1977
 2054TIP3    H127653   0.822   2.545   5.694 -0.5532 -0.8931 -0.9940
 2054TIP3    H227654   0.960   2.597   5.660 -0.4240 -0.2988  0.3642
 2055TIP3   OH227655   5.673   2.085  11.046 -0.0957  0.3405  0.4510
 2055TIP3    H127656   5.735   2.154  11.070 -1.4063  1.2516  1.3763
 2055TIP3    H227657   5.610   2.129  10.989 -1.2434  0.0733  1.4812
 2056TIP3   OH227658   4.599   5.018   4.213  0.3505 -0.2479 -0.0038
 2056TIP3    H127659   4.680   5.065   4.232  1.1850 -2.1295  1.5508
 2056TIP3    H227660   4.617   4.928   4.241 -1.4448 -1.3101 -1.9768
 2057TIP3   OH227661   3.350   4.421  11.488 -0.2289  0.0943 -0.0626
 2057TIP3    H127662   3.326   4.379  11.405  0.4151  1.6797 -1.1148
 2057TIP3    H227663   3.422   4.367  11.522  0.8660  0.4996 -1.5834
 2058TIP3   OH227664   0.345   5.382   3.636 -0.4547 -0.1956 -0.1187
 2058TIP3    H127665   0.251   5.373   3.622 -0.6943  1.0795  0.5594
 2058TIP3    H227666   0.353   5.409   3.728  0.4188  1.7312 -0.7226
 2059TIP3   OH227667   3.883   1.926  15.280 -0.1627  0.2431  0.0046
 2059TIP3    H127668   3.825   1.868  15.330 -0.5730  0.3719 -0.3158
 2059TIP3    H227669   3.833   2.007  15.271 -0.9972 -0.4526 -2.4181
 2060TIP3   OH227670   1.314   3.085  15.544 -0.2834  0.0435  0.1110
 2060TIP3    H127671   1.359   3.085  15.628  0.2346  1.1765 -0.1422
 2060TIP3    H227672   1.340   3.002  15.503 -1.2093 -0.9070  1.3813
 2061TIP3   OH227673   3.050   1.043  15.093 -0.6095 -0.1200 -0.3478
 2061TIP3    H127674   3.091   0.958  15.079  1.9824  0.6763  1.6713
 2061TIP3    H227675   2.976   1.026  15.152  2.0051 -0.6809  3.0363
 2062TIP3   OH227676   3.640   1.316  13.900 -0.2505  0.2907 -0.3424
 2062TIP3    H127677   3.648   1.239  13.843 -0.5555 -0.1558  0.1970
 2062TIP3    H227678   3.637   1.390  13.840  0.4891 -0.0815 -0.8561
 2063TIP3   OH227679   5.797   3.633   4.985  0.4222  0.3106 -0.0071
 2063TIP3    H127680   5.881   3.588   4.978  0.5121  0.1218  1.8605
 2063TIP3    H227681   5.732   3.564   4.973  0.5564  0.1147  0.3560
 2064TIP3   OH227682   2.211   5.243  12.113 -0.7111 -0.8335 -0.6515
 2064TIP3    H127683   2.290   5.196  12.141  0.4861  0.8607 -1.0181
 2064TIP3    H227684   2.241   5.300  12.042 -2.0853  0.4528 -0.2605
 2065TIP3   OH227685   1.129   3.973  15.429 -0.7522  1.1860 -0.2561
 2065TIP3    H127686   1.223   3.994  15.430 -0.4710 -0.0018 -0.1868
 2065TIP3    H227687   1.105   3.970  15.521 -0.4705 -0.0619 -0.2014
 2066TIP3   OH227688   2.015   3.366   0.762 -0.0188 -0.2716  0.0364
 2066TIP3    H127689   2.019   3.298   0.694  0.8368  0.5259 -0.7323
 2066TIP3    H227690   2.104   3.373   0.795  0.2132  1.3887 -0.8400
 2067TIP3   OH227691   2.126   3.825  16.914  0.0721  0.1897 -0.2330
 2067TIP3    H127692   2.112   3.899  16.855  1.8407  2.8021  2.3034
 2067TIP3    H227693   2.201   3.779  16.877 -0.0160  0.6400 -0.9957
 2068TIP3   OH227694   2.707   2.671  11.107 -0.1113 -0.1024  0.3678
 2068TIP3    H127695   2.784   2.711  11.147 -0.4220  1.2097 -0.2946
 2068TIP3    H227696   2.714   2.692  11.014 -2.0435  1.4462  0.5010
 2069TIP3   OH227697   1.979   2.628  16.798  0.5905  0.2220 -0.2629
 2069TIP3    H127698   1.986   2.544  16.843 -0.7288  0.0301 -0.3900
 2069TIP3    H227699   2.070   2.651  16.778  1.1451 -0.0815  1.7278
 2070TIP3   OH227700   3.516   3.508   5.850 -0.3167 -0.4108 -0.2984
 2070TIP3    H127701   3.469   3.538   5.928  1.6281 -0.6306  1.0290
 2070TIP3    H227702   3.459   3.533   5.777 -1.8755  0.4511  1.1306
 2071TIP3   OH227703   2.733   2.071   1.000 -0.4246 -0.1195 -0.2397
 2071TIP3    H127704   2.789   1.995   1.013 -0.2434  0.3122  1.8679
 2071TIP3    H227705   2.761   2.133   1.067 -0.0748  2.1300 -2.3449
 2072TIP3   OH227706   5.782   4.645   5.558 -0.2308  0.1618 -0.0842
 2072TIP3    H127707   5.802   4.614   5.646  2.3046  0.0065 -0.6399
 2072TIP3    H227708   5.699   4.602   5.536 -0.7413 -0.0676  2.0565
 2073TIP3   OH227709   2.743   3.634  11.700  0.2989 -0.6827 -0.0137
 2073TIP3    H127710   2.739   3.628  11.796 -1.2856 -3.1510 -0.1525
 2073TIP3    H227711   2.659   3.600  11.670  1.3674 -1.4626 -2.3178
 2074TIP3   OH227712   2.977   5.223  11.920  0.0610  0.1396 -0.1525
 2074TIP3    H127713   2.996   5.269  11.838  1.1196 -0.6895 -0.4034
 2074TIP3    H227714   3.021   5.274  11.987  0.4366  0.0154 -0.3025
 2075TIP3   OH227715   4.086   1.362  14.589 -0.0143 -0.4783 -0.2643
 2075TIP3    H127716   4.026   1.374  14.663 -0.1284  0.8698 -0.5544
 2075TIP3    H227717   4.044   1.295  14.535 -1.1208  0.2078 -0.2997
 2076TIP3   OH227718   2.602   1.205  15.547 -0.1119 -0.1903  0.2575
 2076TIP3    H127719   2.649   1.285  15.570  0.4166 -1.0148  2.2885
 2076TIP3    H227720   2.510   1.225  15.566  0.1074 -0.2734  1.5111
 2077TIP3   OH227721   2.845   4.869  17.073  0.6481  0.0445 -0.5072
 2077TIP3    H127722   2.789   4.797  17.101  1.2064  0.2639  1.3641
 2077TIP3    H227723   2.886   4.839  16.993 -0.0680 -1.2108 -0.4237
 2078TIP3   OH227724   6.405   2.692   5.640  0.1639 -0.2486  0.6385
 2078TIP3    H127725   6.465   2.647   5.581  0.5270  0.8700  0.1213
 2078TIP3    H227726   6.446   2.684   5.726  0.5011 -0.4388  0.4635
 2079TIP3   OH227727   4.610   5.271  16.484 -0.2669  0.3750  0.4558
 2079TIP3    H127728   4.569   5.349  16.522  0.2475 -0.9106  3.9891
 2079TIP3    H227729   4.701   5.298  16.469 -0.1845  0.5933  1.2852
 2080TIP3   OH227730   5.098   3.645  12.903 -0.7958 -0.0238 -0.3991
 2080TIP3    H127731   5.022   3.677  12.953  0.1470 -2.3393  2.8489
 2080TIP3    H227732   5.171   3.651  12.964  0.8052 -1.6161 -2.0411
 2081TIP3   OH227733   6.686   3.525  15.746  1.0681  0.2287 -0.2100
 2081TIP3    H127734   6.641   3.520  15.830  1.1856 -1.0222 -0.2097
 2081TIP3    H227735   6.721   3.614  15.743 -0.6037  0.9423  0.1978
 2082TIP3   OH227736   2.459   4.802  10.921 -0.1464  0.4594 -0.2021
 2082TIP3    H127737   2.418   4.815  10.835 -0.4860  2.4104  0.1918
 2082TIP3    H227738   2.433   4.879  10.971  1.5456  0.2663  1.0680
 2083TIP3   OH227739   1.263   2.741  10.331 -0.4049 -0.4412  0.2085
 2083TIP3    H127740   1.332   2.794  10.291 -0.4622 -0.6967 -0.2393
 2083TIP3    H227741   1.279   2.652  10.298  0.5537 -1.0107  2.0660
 2084TIP3   OH227742   5.056   4.132  14.184 -0.3178  0.0343  0.0721
 2084TIP3    H127743   5.104   4.179  14.116 -0.2236  3.2916  2.1408
 2084TIP3    H227744   5.123   4.107  14.247 -0.7656  0.4083  0.7115
 2085TIP3   OH227745   6.394   0.314  15.190  0.5839 -0.1246 -0.0588
 2085TIP3    H127746   6.388   0.389  15.131 -3.4965 -1.2655 -1.4900
 2085TIP3    H227747   6.441   0.247  15.141  3.2792  1.0070  0.8121
 2086TIP3   OH227748   1.640   1.763   0.450  0.2903  0.0316  0.5407
 2086TIP3    H127749   1.566   1.790   0.395 -0.9447 -0.2621  1.9689
 2086TIP3    H227750   1.615   1.675   0.481  1.6060 -0.3893  0.4506
 2087TIP3   OH227751   4.912   6.712  16.979 -0.2191 -0.0241 -0.2011
 2087TIP3    H127752   4.902   6.620  16.955 -1.0147 -0.1072  0.3940
 2087TIP3    H227753   4.869   6.760  16.907  1.7821  0.0062 -1.4462
 2088TIP3   OH227754   3.830   3.699  14.862  0.6200 -0.5450 -0.8067
 2088TIP3    H127755   3.902   3.710  14.800  1.9915 -0.2961  0.7517
 2088TIP3    H227756   3.830   3.780  14.914  1.0653 -1.6773  1.0351
 2089TIP3   OH227757   4.091   1.712   2.413  0.1011  0.4969  0.0448
 2089TIP3    H127758   4.048   1.764   2.345 -0.0407 -0.3605 -0.5459
 2089TIP3    H227759   4.077   1.760   2.494 -0.7687  0.9331 -0.3580
 2090TIP3   OH227760   1.927   4.494  13.882 -0.3504 -0.2421 -0.5940
 2090TIP3    H127761   1.927   4.432  13.955 -0.8056  0.4018 -0.0376
 2090TIP3    H227762   1.919   4.439  13.804  0.3145 -0.9482 -0.1758
 2091TIP3   OH227763   5.858   3.214   5.003  0.1858 -0.0256 -0.4241
 2091TIP3    H127764   5.890   3.295   4.963  1.0774  0.0069  0.3285
 2091TIP3    H227765   5.925   3.190   5.067 -0.0830 -1.3449 -0.5987
 2092TIP3   OH227766   5.604   2.317   0.708 -0.2989 -0.3301 -0.2471
 2092TIP3    H127767   5.527   2.304   0.652 -0.8484 -0.2441  0.4758
 2092TIP3    H227768   5.661   2.244   0.687  0.4356  0.7462 -2.3928
 2093TIP3   OH227769   3.108   1.560   3.677  0.4699 -0.3427 -0.1281
 2093TIP3    H127770   3.036   1.514   3.635 -0.2564 -0.8998  1.6516
 2093TIP3    H227771   3.185   1.505   3.659  0.2030 -0.5221 -0.7685
 2094TIP3   OH227772   3.573   4.293  12.222  0.1265 -0.0299 -0.6490
 2094TIP3    H127773   3.591   4.247  12.303 -0.0821  0.1490 -0.5011
 2094TIP3    H227774   3.648   4.352  12.210  0.4961 -0.5542 -0.9473
 2095TIP3   OH227775   3.203   0.120  10.826  0.3676  0.3474  0.1385
 2095TIP3    H127776   3.254   0.067  10.765 -0.9297  0.4213 -1.0813
 2095TIP3    H227777   3.207   0.209  10.790 -2.2230  0.0214 -1.2158
 2096TIP3   OH227778   6.690   5.532   3.507  0.0619 -0.3200 -0.3661
 2096TIP3    H127779   6.633   5.597   3.465  0.8657  0.2160 -0.6631
 2096TIP3    H227780   6.645   5.509   3.588 -0.4998  0.2105 -0.5199
 2097TIP3   OH227781   4.125   1.807  14.492  0.2259 -0.5818 -0.3687
 2097TIP3    H127782   4.081   1.799  14.408  1.5773 -1.1765 -1.0490
 2097TIP3    H227783   4.157   1.897  14.495  1.4167 -0.9511 -1.1608
 2098TIP3   OH227784   1.109   5.823  16.334 -0.1859 -0.0455  0.0710
 2098TIP3    H127785   1.106   5.915  16.309 -0.7753  0.0576  0.4781
 2098TIP3    H227786   1.202   5.805  16.350  0.0229  0.2629 -0.7602
 2099TIP3   OH227787   5.528   0.761  11.913  0.3476 -0.1413 -0.7237
 2099TIP3    H127788   5.441   0.737  11.882  0.1792 -2.4794  1.2795
 2099TIP3    H227789   5.588   0.732  11.843 -0.3429 -0.0713 -1.3565
 2100TIP3   OH227790   5.802   5.005  11.959 -0.0608  0.9607 -0.4267
 2100TIP3    H127791   5.770   4.930  11.909 -0.4586  1.5368 -1.0540
 2100TIP3    H227792   5.730   5.027  12.019 -0.4883  1.6569 -1.1706
 2101TIP3   OH227793   5.643   1.992   0.275 -0.1738 -0.1414  0.2591
 2101TIP3    H127794   5.620   1.911   0.320  0.9447 -1.5042 -1.4823
 2101TIP3    H227795   5.733   1.979   0.246  0.6537  2.4501  1.4074
 2102TIP3   OH227796   5.328   1.436   0.181 -0.1170  0.4725 -0.0832
 2102TIP3    H127797   5.328   1.403   0.091 -0.6451 -1.2021  0.4796
 2102TIP3    H227798   5.273   1.374   0.229 -1.5683  2.4933  1.0160
 2103TIP3   OH227799   0.130   5.363  16.445  0.1631  0.1546 -0.6262
 2103TIP3    H127800   0.089   5.279  16.468 -0.1030 -0.0332 -1.7436
 2103TIP3    H227801   0.224   5.346  16.453  0.1223 -0.3403 -1.1162
 2104TIP3   OH227802   3.891   0.751  14.704 -0.0584 -0.3048  0.1932
 2104TIP3    H127803   3.953   0.797  14.647  0.2749  0.3077  1.0248
 2104TIP3    H227804   3.814   0.738  14.649  0.7032 -0.8541 -0.7785
 2105TIP3   OH227805   6.059   2.001  15.723  0.0756 -0.3689 -0.4572
 2105TIP3    H127806   6.044   1.973  15.633 -0.7687  0.3326 -0.5502
 2105TIP3    H227807   6.014   2.085  15.730  1.1773  0.1801  0.2721
 2106TIP3   OH227808   4.035   6.501  12.957  0.4635  0.1340 -0.1269
 2106TIP3    H127809   4.048   6.418  13.003  2.1210  0.8931  0.8810
 2106TIP3    H227810   4.007   6.476  12.870  0.9774 -1.4969  0.1434
 2107TIP3   OH227811   3.361   2.943  16.274 -0.2627  0.3470 -0.2856
 2107TIP3    H127812   3.421   3.011  16.303 -0.1799  0.8780 -1.6184
 2107TIP3    H227813   3.364   2.947  16.179 -0.9694 -0.9081 -0.3920
 2108TIP3   OH227814   0.814   2.443   2.653  0.8466  0.0942 -0.0542
 2108TIP3    H127815   0.800   2.348   2.650 -1.6952  0.3698  0.3847
 2108TIP3    H227816   0.725   2.479   2.656  1.7245  2.5431 -1.4105
 2109TIP3   OH227817   2.365   5.841   0.786 -0.1223 -0.4126 -0.4844
 2109TIP3    H127818   2.302   5.887   0.840 -0.3144  0.2165 -1.2277
 2109TIP3    H227819   2.353   5.749   0.807 -1.6547 -0.3479 -0.9923
 2110TIP3   OH227820   1.027   0.057  12.659  0.1065 -0.1347  0.4433
 2110TIP3    H127821   1.087   0.013  12.720 -0.8472 -2.7140 -0.3463
 2110TIP3    H227822   0.941   0.046  12.699 -0.3291 -0.3254 -0.5320
 2111TIP3   OH227823   5.277   3.087  14.402 -0.1788  0.2421  0.1184
 2111TIP3    H127824   5.205   3.024  14.411  0.8743 -1.0445 -0.1881
 2111TIP3    H227825   5.268   3.144  14.478 -2.0484  0.6837 -0.3809
 2112TIP3   OH227826   3.619   3.146  12.570 -0.0768  0.1852 -0.2628
 2112TIP3    H127827   3.591   3.158  12.479 -1.8804 -0.0916  0.2233
 2112TIP3    H227828   3.608   3.053  12.586  1.2917  0.0350 -0.0560
 2113TIP3   OH227829   0.867   5.710  15.644 -0.1415 -0.3447  0.9261
 2113TIP3    H127830   0.868   5.790  15.591 -1.7079 -1.0432 -0.2156
 2113TIP3    H227831   0.947   5.664  15.618 -0.1582  0.0026  0.2321
 2114TIP3   OH227832   3.037   5.118  13.456 -0.2170  0.2338  0.4680
 2114TIP3    H127833   3.040   5.109  13.551  1.0066 -1.9196  0.2824
 2114TIP3    H227834   3.115   5.169  13.435 -0.1854  0.2308  0.5769
 2115TIP3   OH227835   6.348   6.325   5.004  0.3540  0.0883  0.8689
 2115TIP3    H127836   6.340   6.371   5.088  0.7570  1.1962  0.3206
 2115TIP3    H227837   6.396   6.386   4.948  1.6141 -1.3243  0.3486
 2116TIP3   OH227838   4.175   2.731   2.852  0.1506  0.7762  0.1144
 2116TIP3    H127839   4.213   2.658   2.802 -1.6050  0.6600 -1.1435
 2116TIP3    H227840   4.114   2.689   2.913  1.7719  0.9762  1.9724
 2117TIP3   OH227841   2.844   6.035  10.912  0.0413  0.3186 -0.0288
 2117TIP3    H127842   2.827   6.112  10.857  0.4605  0.0326 -0.5687
 2117TIP3    H227843   2.929   6.053  10.953 -0.3627  0.6199  0.6911
 2118TIP3   OH227844   2.390   4.996  12.434 -0.7110 -0.0649  0.8342
 2118TIP3    H127845   2.427   4.929  12.492  1.4937 -0.0087 -0.4161
 2118TIP3    H227846   2.323   4.949  12.384  0.8886 -1.4268 -0.1238
 2119TIP3   OH227847   4.742   4.092   5.690  0.0679  0.4679  0.1520
 2119TIP3    H127848   4.682   4.163   5.710 -0.4866  1.0259 -2.9047
 2119TIP3    H227849   4.806   4.093   5.761 -1.7334  1.9049  1.8476
 2120TIP3   OH227850   4.742   4.081  12.212  0.4486  0.0935 -0.7744
 2120TIP3    H127851   4.653   4.099  12.181  0.9560  1.2912 -1.6024
 2120TIP3    H227852   4.777   4.167  12.237  0.5522 -0.6276  1.9023
 2121TIP3   OH227853   5.784   6.696   4.416 -0.2772  0.8209 -0.3309
 2121TIP3    H127854   5.859   6.724   4.468  0.5364  0.1574 -1.1253
 2121TIP3    H227855   5.774   6.763   4.350 -0.3960  0.9143 -0.2189
 2122TIP3   OH227856   4.541   0.460  13.927  0.1359 -0.0097  0.3290
 2122TIP3    H127857   4.450   0.445  13.900 -0.6160  4.7934 -0.7311
 2122TIP3    H227858   4.593   0.424  13.855 -0.7444 -3.2072  1.1376
 2123TIP3   OH227859   6.157   4.438  16.671  0.2178  0.7235 -0.4204
 2123TIP3    H127860   6.235   4.384  16.662  0.8929  1.8775 -1.8798
 2123TIP3    H227861   6.189   4.520  16.708  0.0385  1.8165 -2.5236
 2124TIP3   OH227862   1.993   2.627  15.500 -0.1391  0.0006  0.4252
 2124TIP3    H127863   2.009   2.629  15.406 -1.9074 -0.6737  0.0617
 2124TIP3    H227864   1.946   2.708  15.518  1.3993  0.7995  1.0150
 2125TIP3   OH227865   5.497   4.622   4.891 -0.0554 -0.0048 -0.0674
 2125TIP3    H127866   5.500   4.634   4.986 -0.0545  0.1081 -0.0821
 2125TIP3    H227867   5.514   4.529   4.878  0.5064  0.0858  0.0088
 2126TIP3   OH227868   2.291   5.969  14.890  0.1139 -0.6102 -0.0332
 2126TIP3    H127869   2.305   5.944  14.981  2.2761 -2.8849 -0.8648
 2126TIP3    H227870   2.308   5.889  14.840 -2.2218  0.2198 -2.4075
 2127TIP3   OH227871   6.232   0.618  14.625  0.1370 -0.3313 -0.4624
 2127TIP3    H127872   6.228   0.608  14.530 -0.7615 -2.3124 -0.2760
 2127TIP3    H227873   6.223   0.529  14.659  2.7357  0.0212  1.4647
 2128TIP3   OH227874   2.649   0.732  14.964  0.2276 -0.0096  0.6930
 2128TIP3    H127875   2.561   0.716  14.997 -0.0597 -0.5204 -0.2757
 2128TIP3    H227876   2.636   0.779  14.881  0.8802  0.1869  0.6900
 2129TIP3   OH227877   0.764   3.290  15.132 -0.0032  0.9240  0.0420
 2129TIP3    H127878   0.858   3.288  15.151 -0.0552  0.8742  0.2978
 2129TIP3    H227879   0.728   3.215  15.179  0.1813 -0.5820 -2.0945
 2130TIP3   OH227880   2.713   2.116  14.902 -0.3859 -0.7162  0.4509
 2130TIP3    H127881   2.732   2.167  14.980  2.7243 -1.8996  0.6037
 2130TIP3    H227882   2.620   2.094  14.909 -0.5844  0.6471  2.9091
 2131TIP3   OH227883   1.649   1.799   3.060  0.3656 -0.4452 -0.3502
 2131TIP3    H127884   1.711   1.804   2.987 -0.4238  1.9500 -0.9296
 2131TIP3    H227885   1.581   1.863   3.039  0.8278  1.4446  3.1520
 2132TIP3   OH227886   2.383   0.296   3.091  0.2131 -0.1064  0.2517
 2132TIP3    H127887   2.375   0.391   3.082 -1.9949 -0.0942  1.6296
 2132TIP3    H227888   2.472   0.282   3.124  0.6343  1.4523 -0.1355
 2133TIP3   OH227889   6.749   1.389  12.005 -0.5018  0.0741  0.2284
 2133TIP3    H127890   6.740   1.415  12.097  0.6868 -1.1480  0.7306
 2133TIP3    H227891   6.671   1.335  11.989  0.4377 -1.7240  1.3095
 2134TIP3   OH227892   5.306   2.699   0.801  0.0919 -0.7868  0.0916
 2134TIP3    H127893   5.289   2.643   0.726  0.9840 -1.9745  0.7377
 2134TIP3    H227894   5.312   2.639   0.875  0.7149  0.2030  0.8710
 2135TIP3   OH227895   6.557   4.459  15.139 -0.1589 -0.8782  0.0781
 2135TIP3    H127896   6.537   4.552  15.131 -2.5396 -1.3792 -0.5763
 2135TIP3    H227897   6.477   4.415  15.113  1.1394 -3.1560 -0.3281
 2136TIP3   OH227898   6.065   2.828  16.009 -0.0702 -0.1529  0.1796
 2136TIP3    H127899   6.096   2.738  15.995 -0.2869 -0.1682 -0.2050
 2136TIP3    H227900   6.103   2.853  16.093  1.2422 -0.0643 -0.4081
 2137TIP3   OH227901   5.084   3.755  12.426  0.2126 -0.4865  0.5176
 2137TIP3    H127902   5.026   3.828  12.402  2.0860  0.7239 -0.5583
 2137TIP3    H227903   5.103   3.769  12.519  2.1446  1.6793 -0.1076
 2138TIP3   OH227904   3.526   5.707   5.581  0.4627  0.2539  0.1002
 2138TIP3    H127905   3.480   5.721   5.498 -1.5207  1.1385  1.2524
 2138TIP3    H227906   3.554   5.616   5.578 -0.7321 -0.1158 -1.0234
 2139TIP3   OH227907   2.699   3.791  12.345 -0.1068  0.1074  0.3511
 2139TIP3    H127908   2.746   3.809  12.263 -1.7242 -0.6708 -0.7966
 2139TIP3    H227909   2.677   3.877  12.380  1.2641  0.4627  0.3845
 2140TIP3   OH227910   3.841   0.926  16.529  0.2213  0.3989  0.2015
 2140TIP3    H127911   3.869   1.012  16.497  1.4978  1.2737  3.3573
 2140TIP3    H227912   3.874   0.865  16.464  0.7966  2.1353 -1.2440
 2141TIP3   OH227913   0.590   0.434   1.917 -0.2931 -0.1191  0.5995
 2141TIP3    H127914   0.530   0.360   1.910 -0.4561 -0.1306  1.9437
 2141TIP3    H227915   0.575   0.484   1.837  0.5823 -2.0659 -0.8817
 2142TIP3   OH227916   4.174   3.315   4.568 -1.2711 -0.5227 -0.5091
 2142TIP3    H127917   4.147   3.338   4.657 -1.7592 -0.7042 -0.6051
 2142TIP3    H227918   4.115   3.365   4.511  0.0558  0.8046 -0.7597
 2143TIP3   OH227919   0.333   6.354  14.117  0.9054  0.4809 -0.7094
 2143TIP3    H127920   0.270   6.423  14.097 -1.5539 -1.6716 -1.0646
 2143TIP3    H227921   0.355   6.368  14.209 -0.7998  0.8499 -0.3143
 2144TIP3   OH227922   6.029   0.999  12.513 -0.6468 -0.1019 -0.1594
 2144TIP3    H127923   5.988   1.041  12.438 -0.9570  0.2342  0.1936
 2144TIP3    H227924   6.054   0.912  12.481 -3.2135 -1.0280  0.0464
 2145TIP3   OH227925   3.753   1.309   5.931 -0.2254 -0.1930  0.2785
 2145TIP3    H127926   3.781   1.242   5.869 -0.9314  1.1069 -1.5268
 2145TIP3    H227927   3.659   1.320   5.914 -0.3205  0.6019  1.2065
 2146TIP3   OH227928   5.017   4.333   3.501  0.0905  0.3193 -0.5378
 2146TIP3    H127929   4.994   4.326   3.593 -0.3350  0.8878 -0.5978
 2146TIP3    H227930   4.938   4.363   3.458  0.3593  0.3087 -1.0544
 2147TIP3   OH227931   5.359   0.175  13.046 -0.3447 -0.1313  0.7358
 2147TIP3    H127932   5.443   0.194  13.089 -0.7433  1.2139  0.9716
 2147TIP3    H227933   5.295   0.175  13.118 -0.7382  0.2318  0.3888
 2148TIP3   OH227934   0.451   1.175  17.074  0.2799  0.3199  0.5743
 2148TIP3    H127935   0.391   1.241  17.039  0.1401  0.9617  1.9475
 2148TIP3    H227936   0.499   1.143  16.998  1.3837  3.0220  0.0160
 2149TIP3   OH227937   4.330   2.434   4.863  0.8888 -0.9322  0.0001
 2149TIP3    H127938   4.281   2.449   4.944  1.6210 -0.1273  0.3063
 2149TIP3    H227939   4.278   2.476   4.795  1.2303  0.0864  0.3502
 2150TIP3   OH227940   3.493   1.763   0.484  0.2248  0.1845  0.2271
 2150TIP3    H127941   3.502   1.858   0.474  0.9613  0.1941  0.8769
 2150TIP3    H227942   3.567   1.727   0.434 -1.0637 -0.1529 -1.5482
 2151TIP3   OH227943   4.690   3.025   1.195 -0.6861 -0.4600  0.0152
 2151TIP3    H127944   4.677   2.941   1.240 -1.7149 -1.2733 -1.7120
 2151TIP3    H227945   4.604   3.048   1.161  0.0965 -0.0444 -1.7878
 2152TIP3   OH227946   3.395   4.562   1.691 -0.2661 -0.5826 -0.1717
 2152TIP3    H127947   3.310   4.576   1.732  1.2079  1.1098  2.5693
 2152TIP3    H227948   3.401   4.630   1.624 -2.1287 -2.5221 -2.5103
 2153TIP3   OH227949   2.976   2.523   2.593 -0.3552 -0.1264 -0.1778
 2153TIP3    H127950   2.960   2.556   2.504  0.5701  0.6319 -0.0819
 2153TIP3    H227951   2.973   2.601   2.648  2.8381  0.0452 -0.0703
 2154TIP3   OH227952   3.658   6.339   1.196  0.4225 -0.3739 -0.8184
 2154TIP3    H127953   3.743   6.378   1.175 -0.5062  2.7103  0.4514
 2154TIP3    H227954   3.677   6.246   1.211  3.6291  0.2243 -0.3133
 2155TIP3   OH227955   6.790   6.773   1.299  0.2796  0.1882 -0.2401
 2155TIP3    H127956   6.708   6.804   1.260  1.0224  0.8571 -1.3425
 2155TIP3    H227957   6.818   6.702   1.241  1.6408  1.5056 -1.2806
 2156TIP3   OH227958   3.557   2.551  13.904  0.8043  0.3637  0.4348
 2156TIP3    H127959   3.544   2.463  13.869  2.2377  0.1380  0.4005
 2156TIP3    H227960   3.569   2.607  13.827  2.1476  0.1778  0.4819
 2157TIP3   OH227961   4.734   2.488   4.003 -0.0033  0.0272  0.0540
 2157TIP3    H127962   4.688   2.567   4.031 -1.9289 -1.1233  0.3708
 2157TIP3    H227963   4.666   2.435   3.960  1.4049 -1.1202 -0.8619
 2158TIP3   OH227964   1.200   2.829   1.665  0.4076 -0.4119  0.1198
 2158TIP3    H127965   1.271   2.768   1.641  0.0382 -0.6072 -0.4980
 2158TIP3    H227966   1.126   2.802   1.611 -0.5879 -1.0922  1.7488
 2159TIP3   OH227967   0.144   5.552   5.469 -0.0864 -0.4018 -0.2232
 2159TIP3    H127968   0.145   5.462   5.438  0.4332 -0.6524  0.4979
 2159TIP3    H227969   0.235   5.579   5.472 -0.2030 -0.0079 -0.0043
 2160TIP3   OH227970   6.564   6.631   1.761  0.2270 -0.4964 -0.3537
 2160TIP3    H127971   6.553   6.725   1.753 -0.7891 -0.7277 -2.1937
 2160TIP3    H227972   6.503   6.604   1.829  0.1399  0.1050 -0.1964
 2161TIP3   OH227973   5.419   2.233   5.750  0.1419  0.9038 -0.0556
 2161TIP3    H127974   5.426   2.259   5.658  1.0788  0.2366 -0.1832
 2161TIP3    H227975   5.497   2.270   5.792  0.0847  0.6103  0.3214
 2162TIP3   OH227976   3.144   1.222   3.688 -0.3463 -0.1056 -0.3353
 2162TIP3    H127977   3.231   1.229   3.650 -0.5327 -2.8156 -1.4503
 2162TIP3    H227978   3.095   1.165   3.628 -2.0818 -0.7658  1.5721
 2163TIP3   OH227979   0.350   5.197  11.215  0.3211  0.3404  0.0990
 2163TIP3    H127980   0.269   5.237  11.183  0.8497  0.7755 -0.7274
 2163TIP3    H227981   0.406   5.190  11.137  0.5336 -1.3254  0.3700
 2164TIP3   OH227982   2.844   2.450   5.128  0.4909  0.5023 -0.1925
 2164TIP3    H127983   2.763   2.433   5.175  0.8011  0.4142  0.3084
 2164TIP3    H227984   2.838   2.543   5.103  0.3717  0.5741  0.1042
 2165TIP3   OH227985   6.424   3.300  16.630 -0.0012  0.6844  0.2189
 2165TIP3    H127986   6.432   3.246  16.551  2.6519  1.0919  0.1192
 2165TIP3    H227987   6.408   3.237  16.700  1.1008 -0.0692 -0.1768
 2166TIP3   OH227988   5.597   3.305   0.114 -0.2055  0.1450  0.2501
 2166TIP3    H127989   5.656   3.295   0.188 -1.1618  0.9721  1.1458
 2166TIP3    H227990   5.528   3.242   0.129 -0.9345  1.0122  0.6104
 2167TIP3   OH227991   6.031   1.444  12.772 -0.1114 -0.1773  0.1697
 2167TIP3    H127992   5.941   1.467  12.797 -0.2975  1.3285 -1.7086
 2167TIP3    H227993   6.022   1.402  12.686  0.8321 -1.9760  0.8930
 2168TIP3   OH227994   5.398   0.361   4.525  0.1081 -0.3606 -0.4102
 2168TIP3    H127995   5.321   0.418   4.535 -0.4977 -1.2441  0.0660
 2168TIP3    H227996   5.432   0.352   4.614  1.0710  0.4118 -0.6771
 2169TIP3   OH227997   6.639   5.195   3.881 -0.5016  0.0222 -0.3555
 2169TIP3    H127998   6.559   5.152   3.913  0.0339 -1.5649 -1.0556
 2169TIP3    H227999   6.691   5.210   3.959 -1.1151  0.2972  0.0089
 2170TIP3   OH228000   0.862   1.703  11.534 -0.4520 -0.0446 -0.2740
 2170TIP3    H128001   0.893   1.620  11.498  1.6626  0.8336 -0.6565
 2170TIP3    H228002   0.773   1.713  11.500 -0.8209 -2.1975 -0.0723
 2171TIP3   OH228003   2.477   0.762  15.634 -0.1165  0.1092 -0.3664
 2171TIP3    H128004   2.502   0.820  15.562 -0.7652  0.7496 -0.0887
 2171TIP3    H228005   2.393   0.724  15.606 -0.5673  0.6564  0.1968
 2172TIP3   OH228006   3.500   0.555   5.202  0.5966  0.2011 -0.1677
 2172TIP3    H128007   3.547   0.531   5.122 -0.2510  2.2790 -1.3950
 2172TIP3    H228008   3.417   0.508   5.195  0.7969 -0.1556 -0.1654
 2173TIP3   OH228009   0.633   2.061   4.485 -0.6130  0.0951 -0.0092
 2173TIP3    H128010   0.680   2.068   4.402 -1.8560 -0.9165 -0.8307
 2173TIP3    H228011   0.546   2.096   4.467 -0.8383  0.0639  0.9369
 2174TIP3   OH228012   3.609   0.602  17.084 -0.2640 -0.0473 -0.0556
 2174TIP3    H128013   3.561   0.649  17.152  2.7441  1.0214  1.5223
 2174TIP3    H228014   3.629   0.668  17.018 -0.2547 -0.2776 -0.2863
 2175TIP3   OH228015   4.364   4.964   4.926  0.2405 -0.3832 -0.4159
 2175TIP3    H128016   4.370   5.059   4.916  2.5511 -0.4244  0.0876
 2175TIP3    H228017   4.412   4.945   5.007 -1.3717 -1.8797  0.2593
 2176TIP3   OH228018   4.679   3.692  13.385 -0.2568 -0.1017  0.0752
 2176TIP3    H128019   4.773   3.699  13.367 -0.2364 -0.3113  0.1016
 2176TIP3    H228020   4.674   3.649  13.470 -0.4169 -5.2406 -2.1837
 2177TIP3   OH228021   1.226   5.417  15.433  0.0679 -0.2743 -0.2670
 2177TIP3    H128022   1.183   5.362  15.367  0.9042 -0.4563 -0.6734
 2177TIP3    H228023   1.304   5.368  15.459  0.0771  0.0858  0.4037
 2178TIP3   OH228024   5.782   1.463  16.621 -0.5023  0.1485 -0.3679
 2178TIP3    H128025   5.873   1.490  16.634 -0.9507  1.1016  1.0241
 2178TIP3    H228026   5.759   1.496  16.535 -0.0720  1.5636  0.0279
 2179TIP3   OH228027   2.063   4.542  16.346 -0.4322 -0.0247 -0.1423
 2179TIP3    H128028   2.152   4.577  16.355  0.1713 -1.4277 -0.4381
 2179TIP3    H228029   2.036   4.523  16.436  1.3720 -3.7908 -0.1846
 2180TIP3   OH228030   4.163   5.981   4.604 -0.0238  0.1346  0.2645
 2180TIP3    H128031   4.156   6.074   4.582  0.6227 -0.1651 -1.3929
 2180TIP3    H228032   4.072   5.951   4.611 -0.2541  0.6101 -0.5681
 2181TIP3   OH228033   4.806   1.563   0.529 -0.8928 -0.1736  0.5494
 2181TIP3    H128034   4.779   1.540   0.618 -1.6508  1.1446  0.6902
 2181TIP3    H228035   4.877   1.625   0.541 -0.5696 -0.4787  0.2230
 2182TIP3   OH228036   2.041   6.604   1.739 -0.2610 -0.6282 -0.5688
 2182TIP3    H128037   2.085   6.643   1.662  0.5177  0.5287  0.4143
 2182TIP3    H228038   1.956   6.648   1.743 -0.6269 -1.2601 -1.2027
 2183TIP3   OH228039   5.087   3.746  10.916  0.3340 -0.1254 -0.3900
 2183TIP3    H128040   5.035   3.742  10.836  1.2981  1.0998 -1.1217
 2183TIP3    H228041   5.120   3.657  10.928 -0.4856 -0.5032 -0.8915
 2184TIP3   OH228042   4.235   3.379  16.053 -0.1541  0.1311  0.7916
 2184TIP3    H128043   4.284   3.344  15.979 -0.9345  2.1826 -0.7720
 2184TIP3    H228044   4.289   3.452  16.084 -1.7287  1.8976 -0.4360
 2185TIP3   OH228045   2.788   5.512  10.013  0.3333  0.0759 -0.4287
 2185TIP3    H128046   2.715   5.470  10.058  0.1907  1.4435  0.6848
 2185TIP3    H228047   2.773   5.606  10.026  1.0768  0.4720 -2.1306
 2186TIP3   OH228048   6.428   6.501   1.969  0.1180 -0.0409 -0.5397
 2186TIP3    H128049   6.466   6.426   2.015 -1.4093  0.8806  2.5216
 2186TIP3    H228050   6.343   6.470   1.938  0.6929 -0.3511 -1.8493
 2187TIP3   OH228051   3.883   5.521  11.866 -0.3947  0.3486  0.1721
 2187TIP3    H128052   3.939   5.599  11.870 -0.9850  0.7591  0.6384
 2187TIP3    H228053   3.944   5.449  11.853  0.1138  0.9478 -0.9459
 2188TIP3   OH228054   6.483   0.280   5.810  0.0995  0.4094 -0.2014
 2188TIP3    H128055   6.439   0.321   5.885 -0.8974 -0.7978 -0.1083
 2188TIP3    H228056   6.564   0.244   5.847 -0.1658  0.2152  0.1915
 2189TIP3   OH228057   1.525   0.610   0.326  0.3316 -0.2488  0.1670
 2189TIP3    H128058   1.548   0.697   0.294  0.1100  0.0832  0.8943
 2189TIP3    H228059   1.608   0.565   0.338  0.5433  0.3885  1.2295
 2190TIP3   OH228060   6.299   2.935  12.048  0.0976  0.4213 -0.1772
 2190TIP3    H128061   6.214   2.974  12.026 -0.4681 -0.2170  0.8013
 2190TIP3    H228062   6.322   2.974  12.132  0.1855 -0.3038  0.1432
 2191TIP3   OH228063   3.942   2.524  12.564 -0.8829 -0.0215 -0.5068
 2191TIP3    H128064   3.865   2.468  12.575 -0.3028 -0.5411  1.1080
 2191TIP3    H228065   4.001   2.472  12.510 -0.7056 -0.6315  0.2512
 2192TIP3   OH228066   0.294   5.229  12.813 -0.2667 -0.2770 -0.9710
 2192TIP3    H128067   0.239   5.279  12.874 -1.9866 -1.4988 -1.4289
 2192TIP3    H228068   0.246   5.233  12.730  0.7221 -0.7938 -1.5844
 2193TIP3   OH228069   2.164   1.139   0.860 -0.6060  0.4156 -0.1604
 2193TIP3    H128070   2.111   1.212   0.893  0.7610  0.9514  0.9145
 2193TIP3    H228071   2.121   1.061   0.895 -0.0967  0.8979  1.6113
 2194TIP3   OH228072   3.399   0.157  16.212 -0.5129  0.3597 -0.1106
 2194TIP3    H128073   3.450   0.111  16.279 -2.2305 -1.9009 -0.2663
 2194TIP3    H228074   3.450   0.146  16.132 -0.8461 -1.2643 -0.1279
 2195TIP3   OH228075   3.534   0.606  11.493  1.0403  0.0691  0.2103
 2195TIP3    H128076   3.585   0.680  11.527 -0.7227  0.8865  1.1618
 2195TIP3    H228077   3.595   0.562  11.433  1.8293  2.8617 -1.2238
 2196TIP3   OH228078   2.705   3.046   6.316  0.2044  0.1938  0.9152
 2196TIP3    H128079   2.618   3.086   6.314  1.0892  2.1936  0.9266
 2196TIP3    H228080   2.724   3.033   6.409 -0.2870 -0.8151  0.8975
 2197TIP3   OH228081   3.467   4.671  16.260 -0.2790 -0.5563 -0.5667
 2197TIP3    H128082   3.510   4.724  16.327 -1.4028 -1.1902  0.7055
 2197TIP3    H228083   3.524   4.595  16.251 -1.7772 -2.2017  2.3018
 2198TIP3   OH228084   3.224   0.050  13.389  0.0554  1.0512  0.2931
 2198TIP3    H128085   3.186  -0.016  13.446 -1.6034  2.2046  0.5730
 2198TIP3    H228086   3.319   0.041  13.402 -0.0925 -1.4024  0.1292
 2199TIP3   OH228087   5.980   6.818  16.296 -0.2658 -0.7071  0.2074
 2199TIP3    H128088   5.998   6.883  16.228 -1.9557 -1.2838 -0.8386
 2199TIP3    H228089   5.984   6.734  16.251 -2.5733 -1.0357  0.4987
 2200TIP3   OH228090   5.070   3.668   1.088  0.4392  0.2662 -0.5007
 2200TIP3    H128091   5.101   3.693   1.175 -2.4120  1.2972  0.3385
 2200TIP3    H228092   5.071   3.572   1.088  1.1487  0.2674  0.3921
 2201TIP3   OH228093   2.204   1.030  16.476  0.2036 -0.1604 -0.1491
 2201TIP3    H128094   2.201   1.092  16.548 -0.5565  1.2118 -1.2996
 2201TIP3    H228095   2.114   1.001  16.465  0.1493  0.2898 -1.0465
 2202TIP3   OH228096   6.094   3.732   3.351 -0.2553 -0.1912  0.2963
 2202TIP3    H128097   6.074   3.798   3.417 -1.2280 -0.1328 -0.0525
 2202TIP3    H228098   6.166   3.771   3.300 -2.1464  1.5337 -1.2121
 2203TIP3   OH228099   5.572   1.049  10.913 -0.1411  0.2025  0.1515
 2203TIP3    H128100   5.647   1.109  10.921  0.2544 -0.4907  2.0867
 2203TIP3    H228101   5.497   1.102  10.939 -0.0417  0.3684  0.1032
 2204TIP3   OH228102   5.728   0.670   6.311  0.1021  0.0909  0.6094
 2204TIP3    H128103   5.711   0.586   6.352  0.1502  0.2473  0.9598
 2204TIP3    H228104   5.787   0.715   6.372  1.2465 -0.1888 -0.2582
 2205TIP3   OH228105   3.177   1.566   1.882 -0.1325  0.1219 -0.0741
 2205TIP3    H128106   3.114   1.577   1.953 -0.2197 -0.3926 -0.0718
 2205TIP3    H228107   3.228   1.647   1.883 -0.6566  0.4549  0.0552
 2206TIP3   OH228108   0.487   0.707  15.422  0.2155  0.4804  0.2930
 2206TIP3    H128109   0.466   0.620  15.387  0.0893  0.4897  0.3449
 2206TIP3    H228110   0.580   0.703  15.444 -0.0860 -0.0774  1.5570
 2207TIP3   OH228111   6.608   0.970   4.443 -0.3568 -0.5031  0.4181
 2207TIP3    H128112   6.560   1.026   4.382  0.3036 -0.7096 -0.2980
 2207TIP3    H228113   6.594   0.881   4.411  0.3868 -0.5742  0.2880
 2208TIP3   OH228114   6.530   0.568   4.878 -0.2490 -0.5578 -0.1674
 2208TIP3    H128115   6.466   0.615   4.824  0.8940 -1.5635 -2.5644
 2208TIP3    H228116   6.542   0.624   4.955  0.0533  2.4547 -2.2104
 2209TIP3   OH228117   4.222   6.214   3.265 -0.2438 -0.1544 -0.1740
 2209TIP3    H128118   4.185   6.295   3.299  1.3658  0.9534 -0.9458
 2209TIP3    H228119   4.180   6.202   3.179  0.3395  0.4918 -0.5576
 2210TIP3   OH228120   0.237   1.868  14.419 -0.1913  0.1700  0.3021
 2210TIP3    H128121   0.253   1.795  14.360  0.9638  0.9921 -0.4478
 2210TIP3    H228122   0.200   1.827  14.498 -1.1918 -1.0041 -0.7343
 2211TIP3   OH228123   3.432   4.561   1.198 -0.7396  0.4990 -0.4581
 2211TIP3    H128124   3.443   4.488   1.137  2.3595  0.2505  0.1949
 2211TIP3    H228125   3.469   4.636   1.153  0.6672  0.5218  0.6404
 2212TIP3   OH228126   2.675   3.341  12.209  0.5320  0.1151  0.3275
 2212TIP3    H128127   2.754   3.331  12.157  2.0558  0.9323  2.3613
 2212TIP3    H228128   2.621   3.403  12.159 -0.1493 -2.4595 -2.4172
 2213TIP3   OH228129   5.077   2.709   3.926 -0.1932 -0.4088 -0.0314
 2213TIP3    H128130   5.157   2.707   3.979 -0.7134 -0.0540  0.7693
 2213TIP3    H228131   5.039   2.794   3.943 -0.9754 -0.7446 -0.0746
 2214TIP3   OH228132   4.126   1.272   6.004  0.3078  0.1645 -0.0994
 2214TIP3    H128133   4.109   1.354   5.956  2.1426  0.2220 -0.7270
 2214TIP3    H228134   4.160   1.212   5.937  0.3618 -0.6427  0.6386
 2215TIP3   OH228135   0.338   5.795   4.205  0.3593 -0.3520  0.2094
 2215TIP3    H128136   0.313   5.833   4.290  0.3821 -2.6528  1.3151
 2215TIP3    H228137   0.418   5.841   4.180  0.0416  0.7497  1.1515
 2216TIP3   OH228138   3.661   6.442  11.806  0.1219 -0.1898  0.2937
 2216TIP3    H128139   3.609   6.477  11.879  0.8913 -0.1223  0.8282
 2216TIP3    H228140   3.744   6.417  11.847 -0.3839 -2.7139 -0.0165
 2217TIP3   OH228141   6.506   3.443   1.646  0.0923  0.1352  0.0241
 2217TIP3    H128142   6.559   3.420   1.722 -0.2425 -1.5123 -0.2075
 2217TIP3    H228143   6.530   3.378   1.580 -1.0192  0.3726 -0.6304
 2218TIP3   OH228144   4.241   1.990  16.151 -1.1353 -0.2537  0.1643
 2218TIP3    H128145   4.272   2.054  16.087  0.2259  1.0632  2.0464
 2218TIP3    H228146   4.258   1.906  16.110  0.9486  0.5102 -0.6931
 2219TIP3   OH228147   5.382   2.407  10.511 -0.0779 -0.1432  0.5595
 2219TIP3    H128148   5.356   2.376  10.597  2.7420 -0.1395  1.5237
 2219TIP3    H228149   5.416   2.329  10.467 -1.0139 -0.0406 -0.3959
 2220TIP3   OH228150   0.698   5.115  13.279 -0.3743 -0.2596 -0.1801
 2220TIP3    H128151   0.676   5.070  13.360  1.2490  0.8439  0.9409
 2220TIP3    H228152   0.666   5.058  13.210 -3.5238 -0.3689  1.1929
 2221TIP3   OH228153   1.508   3.224  13.521  0.1131 -0.3344  0.3082
 2221TIP3    H128154   1.418   3.234  13.552 -0.1675 -1.2476 -0.1709
 2221TIP3    H228155   1.538   3.142  13.561  0.6679 -0.1399  0.3012
 2222TIP3   OH228156   0.382   3.786   3.692  0.0718 -0.5099 -0.5038
 2222TIP3    H128157   0.297   3.743   3.703 -0.3487  0.7482  1.5974
 2222TIP3    H228158   0.397   3.784   3.597 -1.6260 -1.9821 -0.7971
 2223TIP3   OH228159   6.112   0.692   0.744 -0.3619 -0.4737 -0.4373
 2223TIP3    H128160   6.146   0.648   0.666 -0.1208 -0.8698 -0.1086
 2223TIP3    H228161   6.017   0.685   0.735 -0.3283 -0.9892 -0.4307
 2224TIP3   OH228162   3.594   2.701  10.892  0.0848  0.1535  0.1405
 2224TIP3    H128163   3.627   2.611  10.888  1.9743  0.6856  1.9724
 2224TIP3    H228164   3.561   2.718  10.804 -0.1106 -2.2366 -0.3271
 2225TIP3   OH228165   4.130   2.221   1.545 -0.2441 -0.2340 -0.1662
 2225TIP3    H128166   4.170   2.210   1.459 -0.6200 -0.2729 -0.3386
 2225TIP3    H228167   4.102   2.133   1.570  1.9215 -0.6314  1.0288
 2226TIP3   OH228168   4.482   3.391   2.335 -0.6049 -0.5359  0.0659
 2226TIP3    H128169   4.577   3.397   2.326 -0.6054 -0.1077  0.3119
 2226TIP3    H228170   4.452   3.356   2.251 -0.4544  1.7204 -1.0071
 2227TIP3   OH228171   1.969   3.135   0.049 -0.1056  0.2635 -0.1239
 2227TIP3    H128172   1.987   3.146  -0.044  1.0784 -0.9401 -0.0563
 2227TIP3    H228173   2.004   3.049   0.071 -0.8026  0.3210  1.3348
 2228TIP3   OH228174   2.480   6.666  15.972  0.3323 -0.0762  0.4030
 2228TIP3    H128175   2.519   6.747  16.005 -0.5702  1.5857 -2.2501
 2228TIP3    H228176   2.539   6.597  16.001  1.8311  1.6616  1.7160
 2229TIP3   OH228177   0.636   4.396   1.740 -0.4482 -0.1334  0.1335
 2229TIP3    H128178   0.660   4.308   1.769  0.0893  0.5298  1.8252
 2229TIP3    H228179   0.601   4.439   1.819 -1.6033  0.8727 -0.8791
 2230TIP3   OH228180   1.953   1.157  11.957 -0.3420  0.3084  0.0934
 2230TIP3    H128181   2.018   1.200  11.903  1.6034 -1.4655  0.8570
 2230TIP3    H228182   1.948   1.210  12.036 -2.1535  2.1260 -1.1581
 2231TIP3   OH228183   0.223   6.091  15.598 -0.5717  0.4139 -0.9257
 2231TIP3    H128184   0.283   6.100  15.524 -0.3650  1.4836 -0.6450
 2231TIP3    H228185   0.202   6.181  15.623 -1.2736  0.0597 -0.1915
 2232TIP3   OH228186   1.899   0.548  11.968 -0.3024  0.4089  0.1557
 2232TIP3    H128187   1.832   0.610  11.942  0.7544  2.5023  2.0943
 2232TIP3    H228188   1.966   0.601  12.011  2.4922 -1.6074 -1.3988
 2233TIP3   OH228189   6.579   3.989  12.906 -0.1283 -0.0775  0.6029
 2233TIP3    H128190   6.497   3.978  12.858 -0.2309  1.3042  0.4077
 2233TIP3    H228191   6.605   3.901  12.930 -0.4258 -0.7540 -1.3952
 2234TIP3   OH228192   6.206   5.869  13.699  0.5375  0.5682 -0.5450
 2234TIP3    H128193   6.215   5.828  13.613 -1.1201 -0.6703 -0.1692
 2234TIP3    H228194   6.183   5.960  13.679  1.8864  0.7573 -1.3823
 2235TIP3   OH228195   3.802   0.254  14.842  0.0111 -0.1455  0.0853
 2235TIP3    H128196   3.887   0.294  14.822 -0.2307 -0.3271 -1.4494
 2235TIP3    H228197   3.741   0.327  14.844 -0.1691 -0.2253 -1.1944
 2236TIP3   OH228198   5.998   1.580   0.811 -0.0987 -0.5571  0.3453
 2236TIP3    H128199   5.912   1.540   0.796  0.0163 -0.5161 -0.4641
 2236TIP3    H228200   6.057   1.532   0.754  0.5851 -1.1144  1.4861
 2237TIP3   OH228201   5.688   1.675   5.575 -0.1051  0.4316 -0.3625
 2237TIP3    H128202   5.645   1.751   5.535 -0.9381  1.0725  1.6397
 2237TIP3    H228203   5.768   1.664   5.523  0.5921  3.3591 -0.1309
 2238TIP3   OH228204   4.596   2.618   3.387  0.1388  0.1485 -0.6284
 2238TIP3    H128205   4.583   2.702   3.430  0.1664  0.7792 -1.8093
 2238TIP3    H228206   4.625   2.559   3.457 -1.5414  0.6639  0.5500
 2239TIP3   OH228207   3.276   3.743  15.737 -0.2197 -0.4497 -0.1849
 2239TIP3    H128208   3.198   3.691  15.754 -2.2423  0.1818 -5.6026
 2239TIP3    H228209   3.334   3.684  15.689  1.6142 -0.1516  1.5356
 2240TIP3   OH228210   3.073   0.309  12.228 -0.0171  0.7563  0.1045
 2240TIP3    H128211   3.032   0.223  12.217 -1.1647  1.2322  0.5714
 2240TIP3    H228212   3.082   0.342  12.139  0.1103  0.3083 -0.0547
 2241TIP3   OH228213   6.443   1.677  13.433 -0.3190 -0.2218 -0.5349
 2241TIP3    H128214   6.476   1.695  13.521  0.0409 -1.7537 -0.3225
 2241TIP3    H228215   6.521   1.677  13.378 -0.3882 -0.4371 -0.6356
 2242TIP3   OH228216   2.207   2.129  11.524  0.5535  0.5649 -0.0019
 2242TIP3    H128217   2.271   2.057  11.522  0.3889  0.4196 -2.0405
 2242TIP3    H228218   2.158   2.114  11.604  1.4985 -0.7368  0.3760
 2243TIP3   OH228219   5.654   2.184   4.294  0.0657  0.0386 -0.1223
 2243TIP3    H128220   5.675   2.122   4.363  1.0386 -0.5964 -0.9640
 2243TIP3    H228221   5.594   2.136   4.236  0.5660 -0.0113 -0.6018
 2244TIP3   OH228222   2.610   4.624  15.909 -0.1321 -0.5261 -0.6456
 2244TIP3    H128223   2.554   4.599  15.835  0.5515 -0.7368 -1.1029
 2244TIP3    H228224   2.567   4.588  15.986  0.2172 -2.1278 -1.1616
 2245TIP3   OH228225   0.573   5.066  16.103 -0.3963 -0.5159  0.5711
 2245TIP3    H128226   0.497   5.038  16.153 -0.0491 -1.1241  0.7602
 2245TIP3    H228227   0.648   5.033  16.152  0.0001  0.2339  0.4837
 2246TIP3   OH228228   1.453   5.997   5.489  0.0646  0.1801 -0.2795
 2246TIP3    H128229   1.437   6.044   5.570 -0.1224  0.4226 -0.4567
 2246TIP3    H228230   1.549   5.989   5.484  0.0713  0.0568  0.0225
 2247TIP3   OH228231   0.245   6.745  14.198 -0.4223  0.6525 -0.1842
 2247TIP3    H128232   0.207   6.827  14.231  0.7558  1.3455 -0.4697
 2247TIP3    H228233   0.331   6.771  14.163  0.2679 -0.8240  0.3203
 2248TIP3   OH228234   1.692   1.974  11.119 -0.1905  0.6637 -0.5919
 2248TIP3    H128235   1.627   1.908  11.139 -0.2554  0.6665 -0.7910
 2248TIP3    H228236   1.657   2.020  11.043 -1.5015  2.7692  1.1720
 2249TIP3   OH228237   5.313   1.141  14.241  0.0624  0.6950 -0.1177
 2249TIP3    H128238   5.269   1.122  14.324  1.5647  0.7272  0.7368
 2249TIP3    H228239   5.245   1.179  14.186 -0.9894  0.6376  1.0860
 2250TIP3   OH228240   2.341   1.448   4.668 -0.0668 -0.5457  0.1101
 2250TIP3    H128241   2.328   1.505   4.744 -0.4371  1.2241 -1.2303
 2250TIP3    H228242   2.279   1.376   4.682 -2.0814  1.1048  0.2321
 2251TIP3   OH228243   1.487   6.695   0.235 -0.0336 -0.2264  0.7668
 2251TIP3    H128244   1.402   6.724   0.202 -0.1052  1.0724  1.9978
 2251TIP3    H228245   1.501   6.611   0.193 -1.4816 -0.0184 -0.2158
 2252TIP3   OH228246   5.665   5.902   0.166 -0.1958  0.4092  0.5147
 2252TIP3    H128247   5.721   5.826   0.148 -0.9632 -0.2728  0.9513
 2252TIP3    H228248   5.708   5.974   0.120  0.1224 -0.4465 -0.5753
 2253TIP3   OH228249   2.249   0.571   4.056  0.6194  0.1871  0.7250
 2253TIP3    H128250   2.338   0.603   4.039  0.3261  0.0216 -1.4785
 2253TIP3    H228251   2.241   0.494   4.000 -0.5827 -0.4083  1.6775
 2254TIP3   OH228252   5.013   1.454  11.195  0.6292 -0.0490 -0.4420
 2254TIP3    H128253   5.028   1.363  11.169  1.6373 -0.0564  0.0925
 2254TIP3    H228254   5.056   1.506  11.127  0.9085 -0.0009 -0.2300
 2255TIP3   OH228255   6.815   3.679   0.078  0.0999 -0.1731 -0.2064
 2255TIP3    H128256   6.804   3.614   0.147  0.1801 -2.0344 -1.8739
 2255TIP3    H228257   6.901   3.718   0.094  0.2151 -0.7522  0.5887
 2256TIP3   OH228258   0.012   5.131   1.836 -0.6738  0.3769 -0.0654
 2256TIP3    H128259   0.095   5.127   1.882  0.3227 -1.0642 -1.8427
 2256TIP3    H228260  -0.051   5.090   1.896 -0.0832  1.2963  1.2083
 2257TIP3   OH228261   0.198   5.332   0.273  0.0141  0.0223  0.4951
 2257TIP3    H128262   0.244   5.254   0.305 -0.0252  0.0830  0.7038
 2257TIP3    H228263   0.264   5.402   0.277  0.2784 -0.1631 -0.4399
 2258TIP3   OH228264   4.491   4.862   5.141  0.3536 -0.0645  0.3625
 2258TIP3    H128265   4.450   4.775   5.138  0.5131 -0.1227 -0.3057
 2258TIP3    H228266   4.562   4.852   5.204 -0.0104 -0.2488  0.7486
 2259TIP3   OH228267   4.568   3.051  14.187  0.8059  0.5641 -0.1169
 2259TIP3    H128268   4.510   3.127  14.185 -0.0911 -0.1226 -0.7412
 2259TIP3    H228269   4.521   2.986  14.240  0.7816 -0.1657 -1.0103
 2260TIP3   OH228270   3.205   4.516  16.821 -0.5261  0.1839  0.4132
 2260TIP3    H128271   3.160   4.456  16.762  1.6424 -2.2144  1.0087
 2260TIP3    H228272   3.298   4.496  16.809  0.0582 -0.3098  4.3911
 2261TIP3   OH228273   0.892   3.053   1.323 -0.0460  0.3773  0.3410
 2261TIP3    H128274   0.910   3.111   1.397 -3.7560  0.3895  1.3997
 2261TIP3    H228275   0.904   3.108   1.246 -2.3291  2.3475  1.2729
 2262TIP3   OH228276   4.557   1.093   0.312 -0.5406 -0.0600 -0.3253
 2262TIP3    H128277   4.560   1.101   0.407 -0.9688 -1.1588 -0.2093
 2262TIP3    H228278   4.506   1.169   0.283 -1.0615 -0.1349  0.3854
 2263TIP3   OH228279   1.665   0.671  11.744 -0.6323  0.4910 -0.1981
 2263TIP3    H128280   1.631   0.642  11.828 -0.0563  0.9868  0.2154
 2263TIP3    H228281   1.660   0.767  11.748 -1.2119  0.5054 -0.9878
 2264TIP3   OH228282   6.059   1.841  16.056  0.1112  0.9740  0.3429
 2264TIP3    H128283   6.135   1.887  16.021  0.9971 -2.5544 -3.0891
 2264TIP3    H228284   6.095   1.763  16.099 -1.3794 -0.9462 -1.6286
 2265TIP3   OH228285   4.959   1.741  13.970  0.2457  0.1889  0.2092
 2265TIP3    H128286   4.982   1.791  14.049  0.2331  1.5098 -0.5904
 2265TIP3    H228287   4.944   1.808  13.903  3.3533 -0.8974 -1.7810
 2266TIP3   OH228288   1.863   6.636  14.610 -0.2191  0.2690  0.2413
 2266TIP3    H128289   1.783   6.589  14.631  0.6773 -0.8983  1.2176
 2266TIP3    H228290   1.907   6.648  14.695  1.1040 -0.0275 -0.3669
 2267TIP3   OH228291   3.552   4.417   3.388 -0.2322  0.2403  0.3523
 2267TIP3    H128292   3.593   4.501   3.367  1.0847 -0.1938  1.0309
 2267TIP3    H228293   3.602   4.353   3.338 -0.8753 -0.1960  0.2626
 2268TIP3   OH228294   2.524   6.708  14.061  0.3189 -0.4726 -0.7913
 2268TIP3    H128295   2.616   6.732  14.074 -0.0272  0.0219  1.1915
 2268TIP3    H228296   2.479   6.792  14.051 -0.2461 -0.4955  1.1262
 2269TIP3   OH228297   4.589   2.981   1.699 -0.4611  0.3352  0.1061
 2269TIP3    H128298   4.655   3.039   1.737 -0.4920  0.8048 -0.5501
 2269TIP3    H228299   4.614   2.894   1.730  0.3190  0.5394  0.0815
 2270TIP3   OH228300   1.840   3.747   3.448 -0.3174 -0.3505 -0.4341
 2270TIP3    H128301   1.832   3.679   3.514 -0.3522 -0.7584 -0.8524
 2270TIP3    H228302   1.752   3.757   3.413 -1.3590  2.9307  2.5286
 2271TIP3   OH228303   1.491   1.026   0.719  0.5143  0.1329  0.0075
 2271TIP3    H128304   1.543   0.954   0.754  0.4452 -1.0802 -2.2076
 2271TIP3    H228305   1.506   1.024   0.625 -2.0491  0.9254 -0.5207
 2272TIP3   OH228306   3.621   4.120   3.220  0.0178  0.3810  0.1441
 2272TIP3    H128307   3.634   4.097   3.312 -1.0141 -0.6146  0.0768
 2272TIP3    H228308   3.619   4.035   3.175 -0.3115  0.8106 -0.6704
 2273TIP3   OH228309   1.611   0.006  13.348  0.1307 -0.1905 -0.3693
 2273TIP3    H128310   1.591  -0.062  13.413 -0.7406  1.5091  1.2076
 2273TIP3    H228311   1.561   0.082  13.376  1.2113  1.1930 -1.9983
 2274TIP3   OH228312   3.736   2.726   4.990  0.2565 -0.4606 -0.1615
 2274TIP3    H128313   3.798   2.756   4.923  0.5517 -1.3551 -0.3107
 2274TIP3    H228314   3.697   2.806   5.024 -0.5384 -0.0110 -2.0003
 2275TIP3   OH228315   2.327   6.078  13.819 -0.9361 -0.8372 -0.1789
 2275TIP3    H128316   2.345   5.985  13.816 -0.4241 -0.7457  0.0190
 2275TIP3    H228317   2.404   6.117  13.860 -0.7932 -0.2301 -0.9989
 2276TIP3   OH228318   0.631   4.069  13.192  0.0666 -0.0528 -0.4905
 2276TIP3    H128319   0.712   4.084  13.240 -1.1067  2.3408  0.9280
 2276TIP3    H228320   0.583   4.005  13.245  0.3017 -0.1680 -0.4152
 2277TIP3   OH228321   0.413   5.704   1.334  0.4082 -0.4711  0.0493
 2277TIP3    H128322   0.443   5.795   1.341  1.4559 -0.7490 -0.7497
 2277TIP3    H228323   0.350   5.705   1.262  1.6148 -0.6593 -1.0447
 2278TIP3   OH228324   2.593   3.435   3.482 -0.5719  0.4880  0.1737
 2278TIP3    H128325   2.677   3.445   3.527  0.1586 -3.5731  0.1211
 2278TIP3    H228326   2.618   3.407   3.394 -2.0582  3.6937 -1.4126
 2279TIP3   OH228327   2.342   0.201  13.475 -0.1902 -0.1609 -0.6487
 2279TIP3    H128328   2.366   0.287  13.440 -1.2153  0.0873 -0.7816
 2279TIP3    H228329   2.309   0.219  13.563 -2.1122 -0.1592 -1.3275
 2280TIP3   OH228330   3.556   4.657   3.707 -0.2299  0.1059  0.4210
 2280TIP3    H128331   3.616   4.670   3.634 -0.6473  1.4769  0.2971
 2280TIP3    H228332   3.606   4.607   3.771  0.6773  0.2900 -0.1353
 2281TIP3   OH228333   0.682   5.528   2.755 -0.6277 -0.8202 -0.2652
 2281TIP3    H128334   0.711   5.600   2.699 -2.8467  0.0258 -0.4339
 2281TIP3    H228335   0.646   5.463   2.695 -2.8802  0.0237  0.0667
 2282TIP3   OH228336   5.876   5.402   5.750 -0.0476 -0.2182  0.5250
 2282TIP3    H128337   5.836   5.488   5.765 -0.2781 -0.1480 -0.4465
 2282TIP3    H228338   5.892   5.399   5.656 -1.2198 -1.7498  0.3475
 2283TIP3   OH228339   1.402   2.828   5.901  0.1194  0.4435 -0.1157
 2283TIP3    H128340   1.447   2.745   5.886  1.4759  1.2020 -0.3796
 2283TIP3    H228341   1.471   2.894   5.897 -0.6568  1.4446  1.8550
 2284TIP3   OH228342   1.133   5.667   3.299  0.1343 -0.0538 -0.3789
 2284TIP3    H128343   1.046   5.707   3.292  0.4119  0.5035 -0.6033
 2284TIP3    H228344   1.182   5.725   3.357  0.9548  0.6778 -1.7444
 2285TIP3   OH228345   1.976   5.232   2.928  0.3402  0.6073  0.3201
 2285TIP3    H128346   1.960   5.144   2.894  2.7098  0.1321  0.2722
 2285TIP3    H228347   1.889   5.267   2.945 -0.7046 -1.3286 -0.6939
 2286TIP3   OH228348   1.637   4.591  16.291 -0.6022 -0.5107 -0.0267
 2286TIP3    H128349   1.549   4.625  16.274 -0.8596 -1.0843  0.1325
 2286TIP3    H228350   1.638   4.574  16.386 -0.2945 -0.4282 -0.0146
 2287TIP3   OH228351   6.548   2.440  15.892 -0.0112  0.3440 -0.3675
 2287TIP3    H128352   6.540   2.431  15.797 -1.7670 -0.1268 -0.2128
 2287TIP3    H228353   6.642   2.452  15.907  1.2232 -4.8910 -1.7737
 2288TIP3   OH228354   2.623   0.742   5.676 -0.0848 -0.4707 -0.2229
 2288TIP3    H128355   2.591   0.665   5.723 -0.0865 -0.0636  0.4690
 2288TIP3    H228356   2.686   0.708   5.613 -0.2250 -1.0566 -0.0464
 2289TIP3   OH228357   0.537   5.915  12.827  0.6293  0.6717 -0.4656
 2289TIP3    H128358   0.493   5.880  12.750  0.2301 -1.0180  0.4915
 2289TIP3    H228359   0.495   5.999  12.843 -1.1063 -0.1363 -0.5759
 2290TIP3   OH228360   4.422   4.882  13.772  0.4907 -0.6490 -0.1699
 2290TIP3    H128361   4.488   4.877  13.703  0.3285  1.1406 -0.5175
 2290TIP3    H228362   4.471   4.865  13.853  1.4578  0.8418 -0.4012
 2291TIP3   OH228363   6.542   2.467  14.332 -0.1281  0.2253 -0.2451
 2291TIP3    H128364   6.635   2.447  14.321  0.2284  0.6699  1.6274
 2291TIP3    H228365   6.502   2.441  14.249  1.1345 -2.9988  0.0052
 2292TIP3   OH228366   0.112   2.808  12.497 -0.2512 -0.4428  0.5732
 2292TIP3    H128367   0.112   2.804  12.593  1.5744  0.2149  0.6392
 2292TIP3    H228368   0.159   2.730  12.470 -0.3336 -0.3753  0.2371
 2293TIP3   OH228369   1.912   2.131   5.752 -0.3698 -0.2827 -0.5816
 2293TIP3    H128370   1.910   2.087   5.666  0.3723  0.1923 -0.8448
 2293TIP3    H228371   1.895   2.223   5.732 -2.1773 -0.4396 -0.0060
 2294TIP3   OH228372   2.550   1.896   2.757 -0.0301  0.3243  0.1753
 2294TIP3    H128373   2.529   1.897   2.664  2.7572  1.7279 -0.5232
 2294TIP3    H228374   2.538   1.987   2.785  0.7651  0.2474  0.7941
 2295TIP3   OH228375   4.934   3.968   0.067 -0.3183  0.4451 -0.1276
 2295TIP3    H128376   5.019   3.936   0.098 -0.1762  1.2850  0.3898
 2295TIP3    H228377   4.942   3.968  -0.028  0.1571  0.2283 -0.0908
 2296TIP3   OH228378   2.471   5.528   2.274  0.2007  0.5043  0.2210
 2296TIP3    H128379   2.419   5.579   2.336 -1.6130 -0.2066 -0.6387
 2296TIP3    H228380   2.478   5.441   2.314 -0.3433  0.2519 -0.2221
 2297TIP3   OH228381   0.711   1.596   4.331  0.3790 -0.1915 -0.2766
 2297TIP3    H128382   0.728   1.543   4.253 -1.2035 -0.4800 -0.4611
 2297TIP3    H228383   0.747   1.544   4.403  1.6405 -0.0359 -0.7684
 2298TIP3   OH228384   6.630   5.553   4.981  0.0722  0.1124  0.0829
 2298TIP3    H128385   6.539   5.559   5.009  0.2756 -0.3897  0.8852
 2298TIP3    H228386   6.632   5.478   4.922  0.3232 -1.2092  1.6782
 2299TIP3   OH228387   2.613   6.454  16.090  0.1113 -0.8692 -0.1121
 2299TIP3    H128388   2.611   6.495  16.177  0.4583 -1.7093  0.3039
 2299TIP3    H228389   2.700   6.414  16.085 -0.0743 -1.2091 -0.6639
 2300TIP3   OH228390   3.397   1.059   6.310 -0.4215 -0.8253  0.2196
 2300TIP3    H128391   3.416   1.111   6.231  2.1591 -1.7619  0.1226
 2300TIP3    H228392   3.387   1.125   6.379  1.1409 -0.0813 -0.2033
 2301TIP3   OH228393   3.749   2.499  17.044 -0.5953  0.1441  0.4955
 2301TIP3    H128394   3.770   2.498  16.951  1.1161 -1.8400  0.8223
 2301TIP3    H228395   3.663   2.457  17.049 -0.4369 -0.2887 -0.1679
 2302TIP3   OH228396   5.693   0.524  15.846  0.2649 -0.1821  0.1921
 2302TIP3    H128397   5.687   0.533  15.751  1.9132  1.3295  0.1795
 2302TIP3    H228398   5.700   0.430  15.861  1.9674 -0.3551 -1.3739
 2303TIP3   OH228399   4.153   3.698  14.734 -0.3253  0.1332  0.7436
 2303TIP3    H128400   4.069   3.667  14.700 -0.9140  0.8987  1.4437
 2303TIP3    H228401   4.130   3.769  14.794  0.8465  0.6062  0.6771
 2304TIP3   OH228402   1.660   6.114   5.199  0.2019  0.1582  0.1436
 2304TIP3    H128403   1.692   6.028   5.225  0.8966  0.5303  0.5468
 2304TIP3    H228404   1.612   6.098   5.118 -1.9288 -1.0272  1.5274
 2305TIP3   OH228405   5.464   0.401  13.541 -0.2606  0.1903  0.5361
 2305TIP3    H128406   5.525   0.411  13.467  0.5560  0.1657  1.1906
 2305TIP3    H228407   5.414   0.322  13.519 -0.3331  0.4293 -0.1975
 2306TIP3   OH228408   2.489   2.534   3.930 -0.2045 -0.4296  0.4235
 2306TIP3    H128409   2.447   2.479   3.863 -0.1130 -0.7743  0.6472
 2306TIP3    H228410   2.499   2.477   4.006 -0.6511  0.0691  0.8649
 2307TIP3   OH228411   5.824   1.010   0.103  0.4504 -0.1910  0.7825
 2307TIP3    H128412   5.899   1.068   0.113  1.1219 -0.7406 -0.7443
 2307TIP3    H228413   5.854   0.924   0.133  0.7008 -0.5742 -0.4796
 2308TIP3   OH228414   3.059   1.647  14.019 -0.6146  0.2268 -0.4775
 2308TIP3    H128415   3.118   1.573  14.008  1.2971  1.4998  0.6844
 2308TIP3    H228416   3.064   1.670  14.111 -3.3882  0.0927 -0.1935
 2309TIP3   OH228417   0.622   4.739  16.277  0.5845 -0.4678  0.2328
 2309TIP3    H128418   0.687   4.805  16.299  0.2407 -0.9351  3.1262
 2309TIP3    H228419   0.664   4.686  16.209  3.5701 -1.1096  2.3479
 2310TIP3   OH228420   0.608   5.519   3.591  0.2356 -0.1012 -0.2378
 2310TIP3    H128421   0.628   5.513   3.684 -0.9437  1.2292  0.1260
 2310TIP3    H228422   0.524   5.473   3.581  0.0700  0.2516 -0.5289
 2311TIP3   OH228423   6.404   5.400   0.169  0.0135  0.0390 -0.3335
 2311TIP3    H128424   6.465   5.383   0.097 -1.7895 -1.5625 -1.5782
 2311TIP3    H228425   6.403   5.496   0.176  1.9578  0.1536 -0.8456
 2312TIP3   OH228426   0.419   2.575  11.913 -0.6161  0.5358 -0.4346
 2312TIP3    H128427   0.455   2.660  11.888 -0.9252  1.4367  1.9575
 2312TIP3    H228428   0.487   2.535  11.967 -0.7934 -0.4249 -0.8963
 2313TIP3   OH228429   3.173   4.012   6.158  0.7978 -0.3885  0.5149
 2313TIP3    H128430   3.137   3.961   6.231 -0.8844 -0.0926 -0.0800
 2313TIP3    H228431   3.201   3.946   6.094 -1.6777 -0.6522 -0.4038
 2314TIP3   OH228432   3.313   1.617  14.693 -0.3003  0.2165 -0.2106
 2314TIP3    H128433   3.269   1.555  14.636 -0.1788  1.6272 -1.9398
 2314TIP3    H228434   3.244   1.677  14.722 -0.3991 -0.6061  1.3377
 2315TIP3   OH228435   0.087   6.451  11.672 -0.0538 -0.4552 -0.4071
 2315TIP3    H128436   0.086   6.485  11.583 -2.3588 -0.6804 -0.5121
 2315TIP3    H228437   0.137   6.369  11.666  1.0707  0.2505 -1.1588
 2316TIP3   OH228438   1.995   1.300   1.928  0.3323  0.1830  0.4521
 2316TIP3    H128439   1.992   1.264   1.839  0.6962  1.6957 -0.2065
 2316TIP3    H228440   1.920   1.359   1.932  1.2057  1.3218  0.5888
 2317TIP3   OH228441   6.683   3.927   3.891  0.0655  0.1690 -0.4127
 2317TIP3    H128442   6.646   3.872   3.960  1.0885 -1.1590 -0.8937
 2317TIP3    H228443   6.682   4.016   3.929 -0.0146 -0.4184  1.0441
 2318TIP3   OH228444   5.819   1.078   1.335  0.1891  0.1702 -0.2223
 2318TIP3    H128445   5.761   1.052   1.264 -0.5686 -1.3566  0.8961
 2318TIP3    H228446   5.896   1.022   1.324  1.7515  2.4467 -1.9304
 2319TIP3   OH228447   1.421   2.190   2.199  0.3407  0.2572  0.2500
 2319TIP3    H128448   1.450   2.266   2.148  0.2704  1.3839  1.8124
 2319TIP3    H228449   1.354   2.224   2.257  0.8429 -0.8317  1.5229
 2320TIP3   OH228450   0.765   5.283   2.092 -0.0844  0.1497  0.1445
 2320TIP3    H128451   0.678   5.318   2.109 -0.3392 -0.4247  0.0537
 2320TIP3    H228452   0.757   5.238   2.008  0.6058  1.0936 -0.4419
 2321TIP3   OH228453   5.446   4.127   3.852 -0.6508 -0.1178 -0.6579
 2321TIP3    H128454   5.439   4.054   3.912  2.8519 -1.3656 -1.5313
 2321TIP3    H228455   5.367   4.122   3.798 -0.9181 -2.7302 -0.1186
 2322TIP3   OH228456   4.022   5.002  11.028 -0.2510  0.0752 -0.1166
 2322TIP3    H128457   4.028   4.912  11.061 -1.1522 -0.1425 -0.5096
 2322TIP3    H228458   4.048   4.995  10.936 -3.0149 -0.3301 -0.9584
 2323TIP3   OH228459   4.866   5.547  12.327 -0.6692  0.0761  0.3931
 2323TIP3    H128460   4.940   5.585  12.376 -0.8303  2.4416 -1.0675
 2323TIP3    H228461   4.901   5.466  12.291  0.8484  0.5323  0.7626
 2324TIP3   OH228462   0.762   3.575   0.972 -0.2320 -0.4464 -0.3095
 2324TIP3    H128463   0.671   3.576   0.941 -0.6740  0.0679  0.9421
 2324TIP3    H228464   0.794   3.488   0.948 -1.8046 -1.5347  1.2074
 2325TIP3   OH228465   0.707   6.104   3.524  0.2723  0.0897  0.9644
 2325TIP3    H128466   0.641   6.131   3.588  0.2586  0.2127  0.8992
 2325TIP3    H228467   0.716   6.010   3.537  2.2031  0.4778  2.9742
 2326TIP3   OH228468   0.809   0.510   5.651 -0.2966  0.4580  0.6666
 2326TIP3    H128469   0.784   0.563   5.727  1.1044  0.1329  1.3890
 2326TIP3    H228470   0.766   0.553   5.577  0.8476  2.6902  1.2037
 2327TIP3   OH228471   5.354   0.063   0.281 -0.1021 -0.1460  0.6474
 2327TIP3    H128472   5.365  -0.024   0.320 -0.1258 -0.3990  0.0965
 2327TIP3    H228473   5.439   0.083   0.243 -0.5903 -0.7048 -0.7823
 2328TIP3   OH228474   1.208   1.037  16.381  0.3856 -0.2510  0.4903
 2328TIP3    H128475   1.172   1.110  16.331 -0.4015 -0.4272  0.7914
 2328TIP3    H228476   1.261   1.078  16.449 -0.1927  0.0549  0.7650
 2329TIP3   OH228477   5.555   0.495  16.226 -0.0551  0.0193  0.7539
 2329TIP3    H128478   5.607   0.574  16.211  1.7477 -0.9059  1.7910
 2329TIP3    H228479   5.487   0.498  16.158  0.4600  2.0150  0.2526
 2330TIP3   OH228480   2.218   3.242   4.585  0.0866 -0.0397 -0.3706
 2330TIP3    H128481   2.216   3.269   4.677 -1.2314  1.0667 -0.6710
 2330TIP3    H228482   2.281   3.171   4.581 -0.7917 -1.0051  1.6402
 2331TIP3   OH228483   6.477   2.511   0.064  0.2894  0.4782 -0.8735
 2331TIP3    H128484   6.465   2.416   0.070  0.1550  0.5006 -0.7772
 2331TIP3    H228485   6.551   2.530   0.123 -0.1765  0.5285 -0.2975
 2332TIP3   OH228486   3.726   1.061   4.714  0.0320 -0.0024  0.6691
 2332TIP3    H128487   3.753   1.047   4.805 -0.9350  0.5697  1.0669
 2332TIP3    H228488   3.765   0.989   4.665  0.5754 -0.3069  1.5375
 2333TIP3   OH228489   3.462   4.558  12.668  0.7941 -0.1736 -0.5820
 2333TIP3    H128490   3.422   4.640  12.640 -0.9356 -1.1279 -1.0197
 2333TIP3    H228491   3.461   4.561  12.763 -0.0216 -0.0410 -0.5953
 2334TIP3   OH228492   1.863   4.414   3.690  0.0922 -0.0418  0.6616
 2334TIP3    H128493   1.919   4.394   3.765 -0.7980  1.8852  1.9223
 2334TIP3    H228494   1.890   4.501   3.662  0.1548 -0.5663 -1.0794
 2335TIP3   OH228495   0.004   1.724  15.127 -0.0789  0.1303  0.9529
 2335TIP3    H128496   0.015   1.660  15.199 -1.6812 -0.0819  1.0519
 2335TIP3    H228497  -0.043   1.675  15.060 -0.5743  0.9681  0.6822
 2336TIP3   OH228498   4.702   6.111   0.185 -0.4711  0.2596 -0.3847
 2336TIP3    H128499   4.762   6.145   0.251 -1.0563 -1.3853  1.0353
 2336TIP3    H228500   4.615   6.125   0.222 -0.9831  1.5880 -1.9389
 2337TIP3   OH228501   6.365   2.639   1.537  0.3651  0.0376  0.0108
 2337TIP3    H128502   6.382   2.611   1.627 -2.6308 -0.5065  0.5037
 2337TIP3    H228503   6.414   2.721   1.528  0.7044  0.1290  2.1425
 2338TIP3   OH228504   0.965   0.088  15.912 -0.0360 -0.2964  0.4521
 2338TIP3    H128505   1.019   0.158  15.876 -1.1640 -0.2662 -1.2801
 2338TIP3    H228506   0.876   0.109  15.883 -0.5371 -1.9118  0.7407
 2339TIP3   OH228507   4.696   6.033  14.214 -0.2390  0.7293  0.1546
 2339TIP3    H128508   4.705   6.000  14.124 -0.3599  2.4348 -0.5162
 2339TIP3    H228509   4.770   6.092  14.225 -0.3977  0.7629  1.0813
 2340TIP3   OH228510   1.712   4.386   0.260 -0.0241 -0.3684  0.0654
 2340TIP3    H128511   1.719   4.324   0.332  2.3255  0.6937  0.8610
 2340TIP3    H228512   1.732   4.471   0.300 -1.5540  0.6859 -1.2946
 2341TIP3   OH228513   0.469   5.049  16.998  0.5514  0.4734 -0.0328
 2341TIP3    H128514   0.538   5.027  17.060 -1.0186 -0.6724  1.3884
 2341TIP3    H228515   0.448   4.966  16.955  0.1742  0.8363 -0.5587
 2342TIP3   OH228516   6.239   5.106   1.327 -0.3015 -0.2154  0.2070
 2342TIP3    H128517   6.280   5.022   1.307 -0.1801 -0.0546 -0.2169
 2342TIP3    H228518   6.293   5.171   1.283 -1.2852 -0.0330 -0.7756
 2343TIP3   OH228519   1.520   5.938   5.040 -0.4156 -0.4036 -0.0123
 2343TIP3    H128520   1.464   5.861   5.043  0.6650 -1.2018  0.5543
 2343TIP3    H228521   1.589   5.915   4.978  0.6823 -0.4626  1.1885
 2344TIP3   OH228522   4.046   0.693   3.773 -0.3199  0.1916  0.5735
 2344TIP3    H128523   3.982   0.762   3.792 -0.3882  0.0270  0.9440
 2344TIP3    H228524   4.058   0.647   3.856 -0.2287 -0.2064  0.3461
 2345TIP3   OH228525   0.419   4.138  13.007  0.0039 -0.2542  1.1243
 2345TIP3    H128526   0.487   4.109  13.069  1.5706  2.2187  0.6746
 2345TIP3    H228527   0.373   4.208  13.053  0.9337  1.3487 -0.2847
 2346TIP3   OH228528   5.903   0.571   1.017  0.4285 -0.1456 -0.6082
 2346TIP3    H128529   5.890   0.568   0.922 -0.9938 -1.1079 -0.4076
 2346TIP3    H228530   5.997   0.554   1.029  0.3678 -1.4543 -1.7820
 2347TIP3   OH228531   6.402   5.935   4.097 -0.0291 -0.5514  0.5953
 2347TIP3    H128532   6.366   5.983   4.172  3.0082  2.3064  0.4832
 2347TIP3    H228533   6.461   5.871   4.136  0.1464 -0.3374  0.6832
 2348TIP3   OH228534   0.995   4.799   2.193 -0.3474  0.3787 -0.1353
 2348TIP3    H128535   0.997   4.860   2.266 -0.9383 -1.6423  1.6689
 2348TIP3    H228536   1.043   4.844   2.123 -0.6731  2.8234  1.0987
 2349TIP3   OH228537   3.620   0.841   5.050 -0.5906  0.2168 -0.1987
 2349TIP3    H128538   3.670   0.760   5.059 -0.9942  0.0819  0.9621
 2349TIP3    H228539   3.529   0.811   5.044 -0.7850  0.5912  0.7043
 2350TIP3   OH228540   1.131   0.668  15.000 -0.3199 -0.2345  0.1052
 2350TIP3    H128541   1.042   0.641  15.023 -0.3781  0.4131  0.6474
 2350TIP3    H228542   1.126   0.688  14.906 -0.6153 -0.6995  0.0161
 2351TIP3   OH228543   0.163   0.460   5.454 -0.0172 -0.8381 -0.2073
 2351TIP3    H128544   0.073   0.466   5.486  0.0162  1.6973 -0.3703
 2351TIP3    H228545   0.167   0.374   5.412 -1.7885 -1.7911  1.3618
 2352TIP3   OH228546   0.633   3.738   6.151 -0.2468  1.1029  0.0863
 2352TIP3    H128547   0.692   3.715   6.079 -1.9988  0.1264 -1.1299
 2352TIP3    H228548   0.679   3.806   6.199  2.1443 -0.0857 -0.3733
 2353TIP3   OH228549   2.957   0.047   4.730 -0.0833 -0.3541 -0.2947
 2353TIP3    H128550   3.008   0.126   4.711  1.0010 -0.5650  1.5445
 2353TIP3    H228551   2.874   0.081   4.764 -0.6037 -0.0206 -1.8205
 2354TIP3   OH228552   4.362   5.627  12.387 -0.2301 -0.5496 -0.0529
 2354TIP3    H128553   4.435   5.591  12.336  1.2743 -1.3122  2.4730
 2354TIP3    H228554   4.304   5.553  12.403  0.3008 -0.7844  0.9013
 2355TIP3   OH228555   0.089   4.826   2.131  0.1912 -0.6063  0.1549
 2355TIP3    H128556   0.018   4.889   2.120  0.3150 -0.7078 -1.5464
 2355TIP3    H228557   0.080   4.767   2.056  0.9043 -1.8037  0.9776
 2356TIP3   OH228558   6.286   6.181  12.781  0.2888 -0.5949 -0.0785
 2356TIP3    H128559   6.356   6.118  12.762  1.3391  0.8705 -1.4091
 2356TIP3    H228560   6.291   6.244  12.708 -0.5127  1.1717  1.3213
 2357TIP3   OH228561   5.251   1.345  16.956 -0.3724  0.3919 -0.6873
 2357TIP3    H128562   5.274   1.436  16.937  1.6014 -0.3035 -1.9407
 2357TIP3    H228563   5.169   1.331  16.909  0.4937  0.9102 -2.4475
 2358TIP3   OH228564   1.588   3.228   6.007 -0.0864  0.3531 -0.4446
 2358TIP3    H128565   1.654   3.295   6.025  0.7042 -0.3264 -0.7922
 2358TIP3    H228566   1.515   3.250   6.066  0.5414  0.9653  0.1162
 2359TIP3   OH228567   0.292   2.795   5.158  0.2037  0.3248 -0.2780
 2359TIP3    H128568   0.282   2.868   5.220 -1.1137 -0.3691  0.3618
 2359TIP3    H228569   0.205   2.781   5.123  0.3405 -1.2112 -0.0655
 2360TIP3   OH228570   2.680   4.571   1.332  0.2798  0.3071  0.0379
 2360TIP3    H128571   2.636   4.631   1.393  0.5767  1.0330 -0.4551
 2360TIP3    H228572   2.609   4.535   1.279 -0.1057 -1.0318  1.3784
 2361TIP3   OH228573   1.381   5.815   4.727 -0.4921  0.0926 -0.2858
 2361TIP3    H128574   1.367   5.795   4.819 -0.3595  0.6395 -0.1436
 2361TIP3    H228575   1.467   5.778   4.707 -0.5171 -0.0165 -0.1890
 2362TIP3   OH228576   1.150   5.270  13.253 -0.0122  0.1204  0.3376
 2362TIP3    H128577   1.063   5.296  13.221  0.1399 -0.2053 -0.3497
 2362TIP3    H228578   1.136   5.184  13.291  0.2003 -0.3969 -0.7138
 2363TIP3   OH228579   4.426   0.167  13.929 -0.3512  0.3468 -0.2876
 2363TIP3    H128580   4.361   0.178  13.998 -0.4931  0.1496 -0.3916
 2363TIP3    H228581   4.376   0.139  13.853 -0.4251  2.1354 -0.9332
 2364TIP3   OH228582   2.833   3.136   3.693  0.5364 -0.1291 -0.3767
 2364TIP3    H128583   2.739   3.143   3.712  0.4917 -0.6880 -0.3850
 2364TIP3    H228584   2.871   3.213   3.736  0.3471 -0.9890  1.4287
 2365TIP3   OH228585   1.802   0.462   3.046 -0.3253  0.1422  0.5392
 2365TIP3    H128586   1.851   0.394   3.000  0.6858 -0.5841  2.5881
 2365TIP3    H228587   1.861   0.492   3.115 -2.0379  0.6566  1.8529
 2366TIP3   OH228588   0.144   0.732  16.861 -0.6522 -0.3060 -0.3338
 2366TIP3    H128589   0.056   0.697  16.849 -0.7936  0.0727 -0.4147
 2366TIP3    H228590   0.148   0.757  16.953 -0.5891 -0.4287 -0.3020
 2367TIP3   OH228591   0.806   0.152  10.414  0.1425  0.2870 -0.3980
 2367TIP3    H128592   0.806   0.085  10.346 -0.0741 -1.2353  1.0335
 2367TIP3    H228593   0.761   0.227  10.375 -0.9033 -0.9106 -1.5727
 2368TIP3   OH228594   4.038   2.286  13.825 -0.2184  0.6202 -0.3531
 2368TIP3    H128595   4.022   2.193  13.840 -0.2973  1.0528  2.7196
 2368TIP3    H228596   4.117   2.288  13.771  0.1893 -1.2169  0.1306
 2369TIP3   OH228597   5.022   5.788  15.489  0.3924  0.4221 -0.0558
 2369TIP3    H128598   5.100   5.835  15.519  0.1189  0.5932  0.4068
 2369TIP3    H228599   5.023   5.706  15.538 -0.4096  0.9835  0.9467
 2370TIP3   OH228600   5.565   5.653  17.171  0.6629 -0.2181  0.0358
 2370TIP3    H128601   5.643   5.609  17.206 -0.1248 -1.0833  0.7334
 2370TIP3    H228602   5.542   5.602  17.093  0.5826 -0.1715  0.0292
 2371TIP3   OH228603   1.571   1.419  17.168 -0.8588  0.2612  0.1158
 2371TIP3    H128604   1.499   1.470  17.203 -0.8100  0.9386 -0.7198
 2371TIP3    H228605   1.578   1.343  17.225 -0.8773  1.2303  1.4560
 2372TIP3   OH228606   4.757   6.276   6.533 -0.1210 -0.1100  0.2044
 2372TIP3    H128607   4.696   6.308   6.468 -2.2463 -1.6187  1.3403
 2372TIP3    H228608   4.777   6.352   6.588  1.2122  1.0184 -1.7455
 2373TIP3   OH228609   1.819   1.882   2.412 -0.5268 -0.3865 -0.3186
 2373TIP3    H128610   1.783   1.967   2.389 -1.0130 -0.1800  1.1110
 2373TIP3    H228611   1.905   1.901   2.449 -0.5541 -0.5407 -0.1750
 2374TIP3   OH228612   5.841   0.966   2.545  0.4082 -0.4142 -0.0887
 2374TIP3    H128613   5.931   0.948   2.572 -0.5579 -1.6437  2.6663
 2374TIP3    H228614   5.817   0.890   2.492  0.7620 -0.3813 -0.3048
 2375TIP3   OH228615   5.640   3.682  15.723  0.0233  0.3479 -0.0531
 2375TIP3    H128616   5.596   3.623  15.663  0.8639 -0.2950 -0.0599
 2375TIP3    H228617   5.577   3.696  15.794  0.1503 -1.3652  0.4575
 2376TIP3   OH228618   6.405   5.451   4.595  0.0650  0.2222 -0.4832
 2376TIP3    H128619   6.390   5.384   4.528  0.2597  0.6750 -0.9849
 2376TIP3    H228620   6.371   5.532   4.556  0.8159  0.6257 -0.3177
 2377TIP3   OH228621   5.907   2.655   1.757 -0.1346  0.1174  0.0558
 2377TIP3    H128622   5.823   2.684   1.792 -1.0320 -0.4215 -1.5516
 2377TIP3    H228623   5.902   2.559   1.757  0.1080  0.0991 -0.9179
 2378TIP3   OH228624   4.702   2.080  14.492  0.0034  0.3990 -0.1788
 2378TIP3    H128625   4.698   2.163  14.446  1.3697  0.0165 -1.0310
 2378TIP3    H228626   4.721   2.015  14.424  1.3857 -0.2760  0.7914
 2379TIP3   OH228627   5.356   1.006   4.695  0.4795 -0.0243  0.2899
 2379TIP3    H128628   5.320   1.034   4.611 -0.6559 -0.5191  0.5912
 2379TIP3    H228629   5.307   0.926   4.716 -0.7959  1.2455  2.4477
 2380TIP3   OH228630   6.314   6.340   3.766 -0.7173  0.4386  0.4813
 2380TIP3    H128631   6.229   6.340   3.810  0.0423  0.6286  1.9930
 2380TIP3    H228632   6.372   6.291   3.825  0.2438  0.3584 -0.4968
 2381TIP3   OH228633   3.022   6.486  16.429 -0.0948 -0.0822  0.1127
 2381TIP3    H128634   3.046   6.459  16.518 -0.1752 -1.3930 -0.2414
 2381TIP3    H228635   3.027   6.405  16.378 -0.6464  0.5430 -0.9471
 2382TIP3   OH228636   0.184   0.860  13.064  0.1053 -0.3978 -0.0252
 2382TIP3    H128637   0.206   0.903  13.146  1.5448  0.2467 -0.7311
 2382TIP3    H228638   0.144   0.777  13.091  0.0861  0.0221  1.3115
 2383TIP3   OH228639   0.916   1.508   4.075  0.2830  0.0654 -0.4264
 2383TIP3    H128640   0.929   1.552   3.991  1.8573 -0.7603 -0.6477
 2383TIP3    H228641   0.973   1.556   4.136  0.2740 -0.2601 -0.1612
 2384TIP3   OH228642   0.314   2.792   0.073  0.3080 -0.4813  0.5657
 2384TIP3    H128643   0.267   2.808  -0.009  1.0265 -1.2398 -0.0126
 2384TIP3    H228644   0.287   2.703   0.098  3.7625 -2.2821 -1.4595
 2385TIP3   OH228645   1.226   2.136   4.109  0.9626 -0.3424 -0.6572
 2385TIP3    H128646   1.240   2.169   4.198 -0.8474 -1.1001 -0.0495
 2385TIP3    H228647   1.293   2.181   4.057  1.0249  1.3777  0.7872
 2386TIP3   OH228648   4.675   2.886  12.862  0.1923 -0.3656 -0.4105
 2386TIP3    H128649   4.621   2.965  12.866 -0.3920 -0.7387 -0.7226
 2386TIP3    H228650   4.752   2.906  12.915 -0.0407  0.3437 -0.3354
 2387TIP3   OH228651   4.530   6.504  12.346 -0.2443  0.3497 -0.4673
 2387TIP3    H128652   4.519   6.488  12.439 -0.3149  3.0549  0.0664
 2387TIP3    H228653   4.441   6.512  12.312 -0.2004  0.3520 -0.5827
 2388TIP3   OH228654   4.657   3.524   1.603  0.0247  0.1427 -0.3940
 2388TIP3    H128655   4.656   3.619   1.591 -0.9649  0.0153 -1.4516
 2388TIP3    H228656   4.685   3.512   1.694  0.6211  1.4185 -0.3898
 2389TIP3   OH228657   6.187   2.469   4.071 -0.0718 -0.4864 -0.2321
 2389TIP3    H128658   6.185   2.375   4.054 -1.5809 -0.6185  0.4854
 2389TIP3    H228659   6.095   2.496   4.066  0.0843  0.5565  1.5924
 2390TIP3   OH228660   3.313   1.212  16.733 -0.1194 -0.0482 -0.6082
 2390TIP3    H128661   3.325   1.177  16.644  0.0562 -1.8460  0.0774
 2390TIP3    H228662   3.374   1.285  16.738  1.8163 -1.5325 -1.1617
 2391TIP3   OH228663   0.033   0.595  13.137  0.4564  0.7342  0.4503
 2391TIP3    H128664   0.011   0.506  13.110 -3.3286  1.6852 -0.2814
 2391TIP3    H228665   0.012   0.598  13.230  0.9062  0.7991  0.5543
 2392TIP3   OH228666   6.021   1.868   0.586 -0.0617  0.4464  0.0812
 2392TIP3    H128667   6.014   1.892   0.678 -1.8846 -0.5128  0.2479
 2392TIP3    H228668   6.037   1.952   0.541 -1.2813  1.2574  1.0848
 2393TIP3   OH228669   3.735   4.362   2.432 -0.5368 -0.0740 -0.6737
 2393TIP3    H128670   3.703   4.386   2.519  1.2013  0.0075 -0.0067
 2393TIP3    H228671   3.746   4.445   2.386  0.4487  0.0600 -0.2317
 2394TIP3   OH228672   5.371   2.201  17.190 -0.8835  0.1377 -0.1901
 2394TIP3    H128673   5.334   2.271  17.243 -0.2646  0.7977 -0.6178
 2394TIP3    H228674   5.376   2.126  17.249  1.8802  1.4313  1.4121
 2395TIP3   OH228675   2.833   0.666   0.297  0.2596  0.2594  0.4305
 2395TIP3    H128676   2.749   0.624   0.282 -0.0259  1.1823 -0.6773
 2395TIP3    H228677   2.884   0.648   0.218  0.6456  0.7544  0.5576
 2396TIP3   OH228678   4.549   0.181   5.882  0.0635 -0.2490  0.3608
 2396TIP3    H128679   4.622   0.235   5.912  0.4477 -0.4514 -0.1850
 2396TIP3    H228680   4.501   0.159   5.961  0.3254  0.2846  0.6703
 2397TIP3   OH228681   2.224   1.854  13.451 -0.7825  0.2487  0.2421
 2397TIP3    H128682   2.195   1.945  13.454 -0.8110  0.2305  0.6196
 2397TIP3    H228683   2.264   1.844  13.365  0.6661  1.0657  0.7775
 2398TIP3   OH228684   2.443   5.786  13.238 -0.2771  0.2632 -0.5225
 2398TIP3    H128685   2.529   5.758  13.207 -1.0882 -2.8780 -0.2091
 2398TIP3    H228686   2.389   5.787  13.159 -0.8680 -1.7586 -0.1924
 2399TIP3   OH228687   6.030   0.227  15.443  0.3719  0.0181 -0.3489
 2399TIP3    H128688   5.959   0.172  15.476  1.2525 -1.5702 -1.0039
 2399TIP3    H228689   6.074   0.259  15.522 -1.7792  2.1149  0.1179
 2400TIP3   OH228690   2.958   6.110  13.974  0.3782 -0.4891  0.0560
 2400TIP3    H128691   2.903   6.189  13.973  0.8556 -0.1547  0.0858
 2400TIP3    H228692   2.918   6.055  14.042 -0.4297 -0.6193 -0.5099
 2401TIP3   OH228693   6.359   3.851   3.880 -0.4252  0.4421 -0.0750
 2401TIP3    H128694   6.451   3.843   3.906 -0.4868 -0.4651 -0.0799
 2401TIP3    H228695   6.334   3.762   3.855 -1.1676  0.7745 -0.5430
 2402TIP3   OH228696   0.591   2.544  12.484 -0.5604  0.2490 -0.2406
 2402TIP3    H128697   0.570   2.493  12.563 -0.1891  0.9608  0.3362
 2402TIP3    H228698   0.686   2.557  12.489 -0.8576  2.4515  0.5632
 2403TIP3   OH228699   5.654   4.716  14.349  0.2074  0.3725  0.1258
 2403TIP3    H128700   5.729   4.775  14.360 -0.0212  0.5151  0.9863
 2403TIP3    H228701   5.578   4.773  14.344  0.0405  0.1781  0.4113
 2404TIP3   OH228702   2.690   3.239   1.808  0.0152 -0.3311 -0.5165
 2404TIP3    H128703   2.722   3.322   1.774  0.3928 -0.3426 -0.1989
 2404TIP3    H228704   2.766   3.181   1.806  0.4585  0.0889  1.7140
 2405TIP3   OH228705   5.817   2.153  14.723 -0.2375  0.0716 -0.6791
 2405TIP3    H128706   5.784   2.091  14.658  1.6117 -0.9743 -0.6928
 2405TIP3    H228707   5.871   2.214  14.673 -1.6983  1.4916 -0.6009
 2406TIP3   OH228708   1.319   4.690   2.464  0.2906 -0.3447 -0.1442
 2406TIP3    H128709   1.352   4.774   2.433 -0.3589 -0.2665 -0.6375
 2406TIP3    H228710   1.369   4.625   2.414  0.6229 -0.2559  0.0655
 2407TIP3   OH228711   0.855   1.228  17.002 -0.0670 -0.8736  0.3799
 2407TIP3    H128712   0.891   1.305  16.958 -3.6167 -0.1371 -1.6807
 2407TIP3    H228713   0.852   1.253  17.095  0.0586  0.9720 -0.0696
 2408TIP3   OH228714   4.243   5.990  13.334 -0.0025  0.0796 -0.1776
 2408TIP3    H128715   4.305   6.044  13.285  0.2908  1.4343  1.5670
 2408TIP3    H228716   4.277   5.989  13.423  0.7139 -4.1774 -0.3199
 2409TIP3   OH228717   6.246   4.027   4.743 -0.2274 -0.0579 -0.7445
 2409TIP3    H128718   6.236   4.066   4.656  0.5135  0.2332 -0.7071
 2409TIP3    H228719   6.210   3.938   4.734  0.3853 -0.2425 -1.5143
 2410TIP3   OH228720   0.173   0.617   1.535 -0.2100  0.5105  0.6870
 2410TIP3    H128721   0.124   0.635   1.615 -0.3126  0.3165  0.6694
 2410TIP3    H228722   0.242   0.684   1.533 -2.3504  2.8263 -0.9456
 2411TIP3   OH228723   4.711   1.559  16.111 -0.0759  0.0069  0.1250
 2411TIP3    H128724   4.621   1.576  16.139 -0.0714 -2.2974  1.8289
 2411TIP3    H228725   4.763   1.628  16.153 -0.8065  0.0655  0.9603
 2412TIP3   OH228726   0.542   5.970   1.317 -0.1620 -0.0892  0.1872
 2412TIP3    H128727   0.523   6.045   1.261  0.7579 -0.1428 -0.2087
 2412TIP3    H228728   0.539   6.005   1.406 -1.7142 -0.0198  0.1391
 2413TIP3   OH228729   2.483   6.496  14.561  0.2365  0.0463  0.0539
 2413TIP3    H128730   2.442   6.562  14.506  0.0129 -0.4410 -0.3763
 2413TIP3    H228731   2.486   6.535  14.648 -1.0410  0.1290  0.0696
 2414TIP3   OH228732   4.869   1.422  14.331  0.3262  0.3893 -0.2806
 2414TIP3    H128733   4.791   1.477  14.331  0.7238  1.0345 -2.5550
 2414TIP3    H228734   4.929   1.464  14.269  2.0928 -0.6463  0.6258
 2415TIP3   OH228735   3.816   2.979   2.741  0.2046 -0.0498  0.0683
 2415TIP3    H128736   3.789   2.887   2.734  2.7384 -0.8194 -0.5857
 2415TIP3    H228737   3.782   3.007   2.826  0.9550 -2.1901  1.1556
 2416TIP3   OH228738   0.832   6.025  13.772 -0.3857  0.2082 -0.4625
 2416TIP3    H128739   0.846   6.113  13.735  2.2505  1.4113  2.8741
 2416TIP3    H228740   0.755   6.035  13.828  0.5762  0.7850  0.7993
 2417TIP3   OH228741   6.749   2.027   1.909 -0.2496  0.7813 -0.0958
 2417TIP3    H128742   6.688   2.050   1.979  1.3530 -0.5328  1.8563
 2417TIP3    H228743   6.803   2.106   1.897 -0.2329  0.8595  0.4900
 2418TIP3   OH228744   5.301   0.515   6.084 -0.4335 -0.5213 -0.0787
 2418TIP3    H128745   5.321   0.447   6.149 -2.1040  0.5218  1.6303
 2418TIP3    H228746   5.337   0.595   6.122 -0.9971  0.0343 -0.6940
 2419TIP3   OH228747   3.704   2.955   1.020  0.0818  0.1522  0.1188
 2419TIP3    H128748   3.792   2.935   1.051 -0.0611 -2.2909 -0.8225
 2419TIP3    H228749   3.702   3.051   1.012  2.4044  0.3079  0.7763
 2420TIP3   OH228750   2.240   0.646   1.555  0.0196  0.2268 -0.0625
 2420TIP3    H128751   2.313   0.583   1.556 -0.1487 -0.0056 -1.0848
 2420TIP3    H228752   2.282   0.730   1.537  0.1445  0.2606  0.3796
 2421TIP3   OH228753   2.602   4.781  14.920 -0.1084  0.4963 -0.3587
 2421TIP3    H128754   2.612   4.876  14.934  0.2057  0.5510 -0.9018
 2421TIP3    H228755   2.592   4.772  14.825  0.7616 -0.0773 -0.4135
 2422TIP3   OH228756   6.489   5.529   1.065  1.0594  0.1294 -1.1731
 2422TIP3    H128757   6.559   5.594   1.070  0.4597  0.7061  0.3427
 2422TIP3    H228758   6.417   5.576   1.022 -0.1824  1.3392  1.9413
 2423TIP3   OH228759   5.322   0.960   2.352  0.3477 -0.4802 -0.3680
 2423TIP3    H128760   5.375   0.881   2.363 -0.1662 -0.5933  1.7574
 2423TIP3    H228761   5.299   0.986   2.441 -2.2395  0.1869 -1.1476
 2424TIP3   OH228762   3.499   0.029  16.595  0.4879  0.1883  0.5363
 2424TIP3    H128763   3.498   0.027  16.691 -0.5217  0.5764  0.5436
 2424TIP3    H228764   3.440  -0.042  16.570 -2.1845  2.3289  0.2812
 2425TIP3   OH228765   5.717   4.557   2.148  0.2215 -0.0913 -0.5674
 2425TIP3    H128766   5.755   4.488   2.094  1.7374  0.1386  0.1670
 2425TIP3    H228767   5.751   4.638   2.111  0.6901  0.1091  0.2862
 2426TIP3   OH228768   0.577   2.195   2.905 -0.0494 -0.2821 -0.3268
 2426TIP3    H128769   0.562   2.274   2.956  0.1100 -1.6747  2.0153
 2426TIP3    H228770   0.672   2.183   2.907  0.0322  0.0649 -1.6442
 2427TIP3   OH228771   0.777   3.988   1.355  0.1505 -0.5075  0.5866
 2427TIP3    H128772   0.688   3.956   1.338  0.3130 -0.6481 -0.0417
 2427TIP3    H228773   0.767   4.082   1.368 -0.4462 -0.8665  3.2437
 2428TIP3   OH228774   3.951   5.896  11.034 -0.0713  0.0207 -0.8495
 2428TIP3    H128775   3.944   5.854  10.949  0.8976  1.3346 -1.6230
 2428TIP3    H228776   3.905   5.980  11.024  0.2369  0.2864 -0.1569
 2429TIP3   OH228777   4.557   4.444  13.719 -0.6166  0.1508 -0.3892
 2429TIP3    H128778   4.492   4.373  13.711 -1.1072  0.7210 -1.9146
 2429TIP3    H228779   4.628   4.417  13.661 -0.7555  0.8337 -0.8859
 2430TIP3   OH228780   6.056   0.976   4.949 -0.1007  0.4532  0.0136
 2430TIP3    H128781   6.046   0.900   5.006  1.9466  0.0780 -0.0463
 2430TIP3    H228782   5.967   1.010   4.938 -1.3873 -3.0022 -1.4718
 2431TIP3   OH228783   2.920   4.095  15.299  0.2267  0.3732  0.5280
 2431TIP3    H128784   2.885   4.184  15.297  0.0193  0.2875 -0.0460
 2431TIP3    H228785   2.952   4.083  15.388 -0.6852  0.6589  0.8976
 2432TIP3   OH228786   4.978   1.076   4.517  0.2704 -0.1106  0.0332
 2432TIP3    H128787   4.972   1.137   4.443 -1.7347  0.5807  0.7102
 2432TIP3    H228788   4.988   0.990   4.476 -0.3611  0.3049 -1.0303
 2433TIP3   OH228789   1.187   0.652   2.093 -0.2728  0.1917  0.4325
 2433TIP3    H128790   1.182   0.733   2.143 -0.9602  1.2862 -1.3166
 2433TIP3    H228791   1.099   0.640   2.059 -0.8915 -2.6813  2.6210
 2434TIP3   OH228792   0.483   1.124   0.297  0.2756  0.3450 -0.3993
 2434TIP3    H128793   0.436   1.091   0.220  2.7506  2.8747 -3.2794
 2434TIP3    H228794   0.443   1.210   0.313  1.0057  0.6304 -0.0825
 2435TIP3   OH228795   5.941   0.922  13.192 -0.3789 -0.1744 -0.3523
 2435TIP3    H128796   5.921   1.014  13.210 -0.2926 -0.3889  0.9484
 2435TIP3    H228797   6.030   0.922  13.158  0.9283  0.0016  2.7257
 2436TIP3   OH228798   5.070   6.588  15.710  0.6601  0.1661 -0.3648
 2436TIP3    H128799   5.114   6.556  15.788 -1.5792 -2.5833 -0.0609
 2436TIP3    H228800   5.134   6.580  15.640  2.5048  2.0914  0.9617
 2437TIP3   OH228801   4.292   0.940  13.755  0.2949 -0.4329  0.0467
 2437TIP3    H128802   4.204   0.941  13.794  1.0532  0.7711  1.8737
 2437TIP3    H228803   4.326   1.028  13.771  2.0798 -1.0699 -0.0581
 2438TIP3   OH228804   1.315   2.497   4.802 -0.2471  0.1204  0.3592
 2438TIP3    H128805   1.276   2.459   4.881  1.2000 -0.8075  0.6677
 2438TIP3    H228806   1.245   2.550   4.763 -1.0016  0.5562  2.2272
 2439TIP3   OH228807   1.894   4.942  16.014  0.9815 -0.0474 -0.1954
 2439TIP3    H128808   1.926   5.007  16.077 -0.3869 -0.2929  0.7843
 2439TIP3    H228809   1.921   4.858  16.051  0.3112 -0.1819  0.0041
 2440TIP3   OH228810   3.475   4.141   4.322  0.2767 -0.6171 -0.4023
 2440TIP3    H128811   3.404   4.082   4.349 -0.2690  0.9021  1.7258
 2440TIP3    H228812   3.545   4.124   4.384  0.1064  0.9365  0.2551
 2441TIP3   OH228813   1.003   4.611   1.365 -0.0256 -0.3047 -0.4011
 2441TIP3    H128814   0.907   4.609   1.361  0.0147 -1.5246 -1.2817
 2441TIP3    H228815   1.022   4.657   1.446 -1.3589 -0.1081 -0.1686
 2442TIP3   OH228816   0.058   6.312   0.747 -0.0977 -0.2338 -0.4706
 2442TIP3    H128817   0.012   6.391   0.719 -1.6103 -0.8195  0.2244
 2442TIP3    H228818   0.051   6.313   0.843  0.5614 -0.8068 -0.4093
 2443TIP3   OH228819   3.023   2.735   0.564 -0.4198  0.5044  0.1508
 2443TIP3    H128820   2.978   2.778   0.637  0.4469  1.9671 -0.1175
 2443TIP3    H228821   3.081   2.803   0.529  1.5311 -1.0841  0.0979
 2444TIP3   OH228822   0.638   6.226  16.471  0.8140  0.3160 -0.4980
 2444TIP3    H128823   0.679   6.273  16.398  1.2536  0.1209 -0.3796
 2444TIP3    H228824   0.645   6.133  16.447  1.3651  0.2250 -0.0005
 2445TIP3   OH228825   3.801   4.871   1.913  0.7727 -0.4714  0.6650
 2445TIP3    H128826   3.891   4.870   1.880  1.0588 -1.2126  1.4342
 2445TIP3    H228827   3.747   4.864   1.834  1.3208  1.3597  0.0695
 2446TIP3   OH228828   1.800   3.048   3.786 -0.1154 -0.0083  0.2351
 2446TIP3    H128829   1.872   3.031   3.846  0.8244 -0.6573 -1.0380
 2446TIP3    H228830   1.805   3.142   3.769  0.0729  0.0441  0.5733
 2447TIP3   OH228831   5.479   2.887   0.451 -0.3990 -0.2398  0.2188
 2447TIP3    H128832   5.390   2.918   0.463 -0.1656 -0.0561  1.7498
 2447TIP3    H228833   5.534   2.955   0.492  0.5195  0.0938 -1.4721
 2448TIP3   OH228834   3.514   3.971   1.770  0.2745  0.1402  0.2496
 2448TIP3    H128835   3.600   3.928   1.776  0.8966  1.3938  0.5684
 2448TIP3    H228836   3.495   3.974   1.677  0.4264 -0.4355  0.1968
 2449TIP3   OH228837   6.368   5.096   0.486  0.1359 -0.4251 -0.4381
 2449TIP3    H128838   6.429   5.157   0.445 -0.4832  0.6507  0.1965
 2449TIP3    H228839   6.359   5.025   0.422  1.0365  0.0320 -1.1007
 2450TIP3   OH228840   0.015   6.667   3.911  0.3195 -0.5390  0.4934
 2450TIP3    H128841   0.042   6.703   3.996  0.5232  0.7488 -0.0915
 2450TIP3    H228842  -0.077   6.645   3.923 -0.7391  3.0032  0.0973
 2451TIP3   OH228843   2.886   5.521   1.915  0.4471  0.4873 -1.1329
 2451TIP3    H128844   2.817   5.564   1.966  0.2847 -1.9209  0.9124
 2451TIP3    H228845   2.863   5.539   1.824 -2.4861  0.4156 -0.5228
 2452TIP3   OH228846   5.910   2.937  12.761  0.1893  0.2812  0.3122
 2452TIP3    H128847   5.938   2.846  12.756  0.0454  0.3083 -1.3449
 2452TIP3    H228848   5.860   2.942  12.842 -1.3899 -1.5620 -0.4763
 2453TIP3   OH228849   3.795   0.165  12.834  0.2199 -0.4199 -0.2816
 2453TIP3    H128850   3.824   0.256  12.829 -0.8343  0.0214  1.0172
 2453TIP3    H228851   3.733   0.156  12.762 -1.1301  0.4904  0.7155
 2454TIP3   OH228852   2.099   1.551   2.276 -0.0605 -0.2902  0.4767
 2454TIP3    H128853   2.114   1.622   2.339 -1.2024  0.2449  0.1724
 2454TIP3    H228854   2.152   1.575   2.200  1.5397 -1.0766  1.2960
 2455TIP3   OH228855   6.266   0.301  13.896  0.0832  0.3602  0.0082
 2455TIP3    H128856   6.189   0.258  13.858 -0.9247  0.7895  1.4802
 2455TIP3    H228857   6.313   0.230  13.941 -0.8756  0.5230  1.3184
 2456TIP3   OH228858   1.046   5.896   0.416  0.2350  0.7612 -0.3739
 2456TIP3    H128859   1.080   5.985   0.415  0.0227  0.8490 -1.4939
 2456TIP3    H228860   1.043   5.870   0.323 -0.0321 -0.2788 -0.0944
 2457TIP3   OH228861   3.671   3.213  12.824 -0.3545 -0.1669 -0.1766
 2457TIP3    H128862   3.668   3.195  12.730 -0.2686 -0.5950 -0.1012
 2457TIP3    H228863   3.634   3.301  12.833 -0.4166 -0.1469 -0.6043
 2458TIP3   OH228864   2.858   5.640   1.157  0.2357 -0.5755 -0.2904
 2458TIP3    H128865   2.812   5.672   1.080 -1.8811 -1.9005  0.3210
 2458TIP3    H228866   2.910   5.566   1.126  1.8919  0.8058 -0.9521
 2459TIP3   OH228867   6.044   0.048   5.222 -0.9006  0.1761  0.0976
 2459TIP3    H128868   6.017   0.111   5.155 -0.5904 -0.6887 -0.8571
 2459TIP3    H228869   6.009   0.084   5.304 -0.1293  1.9513 -0.3032
 2460TIP3   OH228870   1.780   5.521   3.643  0.5880 -0.2380 -0.0657
 2460TIP3    H128871   1.745   5.448   3.593  1.5929 -1.0813  0.4136
 2460TIP3    H228872   1.875   5.506   3.644  1.1931  2.6330 -2.4056
 2461TIP3   OH228873   4.524   6.257  12.612  0.1970  0.1485  0.1587
 2461TIP3    H128874   4.445   6.215  12.646 -0.1894  0.9475  0.2462
 2461TIP3    H228875   4.518   6.348  12.640  0.7099  0.4255 -0.5936
 2462TIP3   OH228876   3.709   6.721  17.101  0.1407  0.2431  0.0432
 2462TIP3    H128877   3.784   6.780  17.103  0.6841 -0.3902 -1.0320
 2462TIP3    H228878   3.713   6.673  17.183 -1.2257  2.7682  1.7253
 2463TIP3   OH228879   0.390   2.710  11.237  0.0374 -0.2300  0.2099
 2463TIP3    H128880   0.373   2.710  11.331 -2.4795 -1.6464 -0.1557
 2463TIP3    H228881   0.423   2.622  11.219 -1.4174 -0.6607 -0.4790
 2464TIP3   OH228882   1.626   4.982  13.842 -0.1304  0.3146 -0.0521
 2464TIP3    H128883   1.640   4.952  13.932  0.4684  1.5346  0.2742
 2464TIP3    H228884   1.539   5.021  13.843 -0.4404 -0.3552 -0.2018
 2465TIP3   OH228885   1.431   0.711  12.280  0.4760 -0.0173 -0.4048
 2465TIP3    H128886   1.368   0.780  12.303 -0.2481 -0.5437 -0.7789
 2465TIP3    H228887   1.512   0.737  12.325 -0.4438 -0.1631  1.4408
 2466TIP3   OH228888   1.494   4.317  17.133 -0.7041  0.1809  0.3492
 2466TIP3    H128889   1.494   4.289  17.041 -1.3051 -1.3833  0.7956
 2466TIP3    H228890   1.581   4.355  17.146 -0.1315 -0.7656 -0.5360
 2467TIP3   OH228891   5.131   4.701  14.410  0.3283 -0.4759 -0.5330
 2467TIP3    H128892   5.043   4.734  14.427  0.7831  0.7958 -0.5345
 2467TIP3    H228893   5.120   4.640  14.337 -0.1942  1.7467 -2.4234
 2468TIP3   OH228894   3.742   6.080   2.960  0.2019 -0.7461 -0.1881
 2468TIP3    H128895   3.696   5.999   2.985  0.6429 -1.3305 -1.1972
 2468TIP3    H228896   3.832   6.052   2.944  0.3409 -0.0657 -0.6084
 2469TIP3   OH228897   5.981   4.154  16.050 -0.1435  0.0795  0.4284
 2469TIP3    H128898   5.950   4.104  15.974  0.1303  1.8449 -0.9091
 2469TIP3    H228899   5.935   4.238  16.043  1.9747  1.3095  0.5925
 2470TIP3   OH228900   2.767   0.520  15.379 -0.0207  0.1588  0.2492
 2470TIP3    H128901   2.748   0.462  15.453  1.2592 -1.8475 -0.8828
 2470TIP3    H228902   2.712   0.487  15.308  0.4027  0.6218 -0.2994
 2471TIP3   OH228903   4.523   2.163  10.935  0.0975 -0.2670  0.7258
 2471TIP3    H128904   4.459   2.096  10.959  0.3188 -0.3185  1.1789
 2471TIP3    H228905   4.608   2.121  10.949  0.2434  0.2407  1.4457
 2472TIP3   OH228906   1.167   3.606  15.295  0.0209  0.4802 -0.5271
 2472TIP3    H128907   1.078   3.634  15.315 -0.0804 -0.5974  0.7069
 2472TIP3    H228908   1.159   3.512  15.276  1.2873 -0.7461  3.7500
 2473TIP3   OH228909   0.428   4.188   0.310  0.2927 -0.0913 -0.2884
 2473TIP3    H128910   0.384   4.232   0.237  1.8364  0.3705 -0.9849
 2473TIP3    H228911   0.392   4.230   0.388  0.0860  0.8364 -0.8649
 2474TIP3   OH228912   5.736   4.338  12.802 -0.2632 -0.6648  0.5079
 2474TIP3    H128913   5.766   4.265  12.747  1.7782 -0.2294  0.9579
 2474TIP3    H228914   5.680   4.390  12.743 -1.2249 -2.1997 -0.0036
 2475TIP3   OH228915   2.623   3.687   2.906 -0.3491 -0.0399  0.2661
 2475TIP3    H128916   2.564   3.760   2.889 -0.0490  0.2995  0.6641
 2475TIP3    H228917   2.573   3.609   2.881 -1.3733  0.1505  1.5856
 2476TIP3   OH228918   1.503   6.560   5.538  0.1849  0.5115  0.0219
 2476TIP3    H128919   1.487   6.591   5.628  1.7234 -0.3133  0.6148
 2476TIP3    H228920   1.453   6.479   5.532  0.4683  0.3144  0.3032
 2477TIP3   OH228921   3.730   1.326  12.123 -0.6147  0.4775  0.0914
 2477TIP3    H128922   3.739   1.244  12.172 -0.9299 -1.5012 -2.8986
 2477TIP3    H228923   3.654   1.368  12.161 -1.4813 -1.4750  0.6588
 2478TIP3   OH228924   4.818   5.504   3.859  0.7675  0.1580  0.0871
 2478TIP3    H128925   4.888   5.556   3.899  1.0985 -0.7318  0.6824
 2478TIP3    H228926   4.744   5.565   3.856  1.5860  1.1662 -0.7098
 2479TIP3   OH228927   2.478   2.897   0.723 -0.6535  0.8955 -0.1532
 2479TIP3    H128928   2.551   2.903   0.662 -0.7684  1.9324 -0.2113
 2479TIP3    H228929   2.482   2.808   0.757  0.6606  0.9426 -0.1259
 2480TIP3   OH228930   4.287   5.146  17.052  0.1320 -0.3990 -0.7260
 2480TIP3    H128931   4.316   5.186  17.134 -1.4400  0.7470 -0.6667
 2480TIP3    H228932   4.326   5.200  16.984  0.7038 -0.7987 -0.7164
 2481TIP3   OH228933   3.843   4.089  12.642 -0.0205 -0.3071  0.7276
 2481TIP3    H128934   3.769   4.099  12.582 -0.4041 -2.3810  0.7881
 2481TIP3    H228935   3.913   4.141  12.603 -1.2406  1.0224  0.2326
 2482TIP3   OH228936   4.551   1.920  16.310 -0.1936 -0.0340 -0.3441
 2482TIP3    H128937   4.634   1.961  16.287 -0.6022 -0.1453 -2.2225
 2482TIP3    H228938   4.576   1.834  16.344  0.4668 -0.3258 -1.5001
 2483TIP3   OH228939   1.350   0.779  10.879 -0.7369 -0.6189  0.2487
 2483TIP3    H128940   1.283   0.725  10.837 -2.0099  0.3583  0.9564
 2483TIP3    H228941   1.354   0.858  10.826  1.1704 -1.3474 -0.8250
 2484TIP3   OH228942   3.258   4.078  13.603  0.3392 -0.2488 -0.6183
 2484TIP3    H128943   3.198   4.038  13.666  2.3250 -0.7867  1.0574
 2484TIP3    H228944   3.295   4.153  13.649  0.4986  0.4535 -1.8382
 2485TIP3   OH228945   4.946   1.547  12.654  0.0997 -0.3071 -0.0457
 2485TIP3    H128946   4.974   1.631  12.619 -0.7274 -0.1330 -0.3104
 2485TIP3    H228947   4.924   1.565  12.746  1.1078 -0.5089  0.2511
 2486TIP3   OH228948   1.630   4.654  12.902 -0.1556  0.2566 -0.4303
 2486TIP3    H128949   1.650   4.565  12.871  0.3305  0.1082  0.2718
 2486TIP3    H228950   1.659   4.654  12.993  0.1090  1.2251 -0.5011
 2487TIP3   OH228951   2.230   4.470   3.024  0.3762  0.1070 -0.8963
 2487TIP3    H128952   2.246   4.564   3.034  1.7212 -0.1713 -0.1605
 2487TIP3    H228953   2.317   4.431   3.031 -0.4021 -1.3930  1.3474
 2488TIP3   OH228954   2.877   1.048  12.438 -0.7462 -0.5017 -0.4224
 2488TIP3    H128955   2.958   1.094  12.462 -1.9044  1.8254 -0.6380
 2488TIP3    H228956   2.866   0.982  12.506  0.4745  0.2612  0.5699
 2489TIP3   OH228957   5.260   1.885  12.510  0.3789  0.5445  0.0783
 2489TIP3    H128958   5.205   1.871  12.434 -1.4638  1.1949  1.2199
 2489TIP3    H228959   5.291   1.975  12.501  2.3743 -0.1978 -1.1879
 2490TIP3   OH228960   3.573   5.052  13.066  0.4509 -0.1071 -0.4476
 2490TIP3    H128961   3.526   4.993  13.007  0.3837  0.2622 -0.7698
 2490TIP3    H228962   3.509   5.120  13.087  0.0344 -0.9260  1.1265
 2491TIP3   OH228963   5.740   5.664  12.050  0.2052 -0.1198  0.7181
 2491TIP3    H128964   5.832   5.638  12.062  0.5068  0.9300  0.8222
 2491TIP3    H228965   5.742   5.722  11.974 -0.1553  0.8883  1.4510
 2492TIP3   OH228966   4.134   6.517   3.824 -0.1275 -0.3001 -0.1105
 2492TIP3    H128967   4.128   6.588   3.888  0.6835  0.0091 -0.3658
 2492TIP3    H228968   4.066   6.455   3.851  0.7358 -0.5732  1.5404
 2493TIP3   OH228969   5.243   6.324  13.458 -0.4936 -0.3105  0.0338
 2493TIP3    H128970   5.264   6.234  13.484 -1.0482 -0.7370 -0.9177
 2493TIP3    H228971   5.184   6.355  13.526 -1.0076 -0.9888 -0.0909
 2494TIP3   OH228972   4.056   2.679   0.403  0.2363 -0.1275  0.1878
 2494TIP3    H128973   4.014   2.758   0.440  0.0885  0.1165 -0.4831
 2494TIP3    H228974   4.148   2.687   0.427  0.5229  1.0481 -1.1757
 2495TIP3   OH228975   0.047   4.163   0.053 -0.4018 -0.0974 -0.5181
 2495TIP3    H128976  -0.017   4.113   0.102  0.2239  0.1967  0.6466
 2495TIP3    H228977   0.132   4.132   0.085  0.0259  2.2835  0.9782
 2496TIP3   OH228978   1.299   0.130   4.311 -0.3416 -0.2625  0.2986
 2496TIP3    H128979   1.371   0.112   4.250  0.3408  0.7146  0.7756
 2496TIP3    H228980   1.245   0.195   4.267 -0.5083 -0.4299  0.2548
 2497TIP3   OH228981   6.690   1.867  15.477 -0.0662  0.4442  0.3197
 2497TIP3    H128982   6.664   1.851  15.568  1.5523  0.9520  0.9112
 2497TIP3    H228983   6.711   1.961  15.475  2.4283 -0.0379  0.1623
 2498TIP3   OH228984   4.623   5.159  11.825  0.5681  0.0411 -0.5691
 2498TIP3    H128985   4.621   5.195  11.914 -1.5266 -2.8617  0.6939
 2498TIP3    H228986   4.700   5.102  11.824  1.1625  0.8181 -1.0191
 2499TIP3   OH228987   5.200   6.751   0.065  0.3948 -0.4467 -0.1533
 2499TIP3    H128988   5.164   6.832   0.100 -0.9565 -0.3537 -1.6564
 2499TIP3    H228989   5.285   6.741   0.109  0.7868  1.9916 -0.2428
 2500TIP3   OH228990   2.843   3.831  14.976  1.0254  0.2187  0.5338
 2500TIP3    H128991   2.831   3.817  15.070  2.0709  0.7654  0.7732
 2500TIP3    H228992   2.895   3.912  14.971  1.3744 -0.0509 -0.4937
 2501TIP3   OH228993   6.505   0.710   5.446  0.3788  0.5378  0.3641
 2501TIP3    H128994   6.467   0.796   5.461 -0.7978  0.0426  0.2712
 2501TIP3    H228995   6.600   0.726   5.450  0.2187  2.0033 -0.5594
 2502TIP3   OH228996   1.505   4.589   3.046 -0.1053  0.1029 -0.8264
 2502TIP3    H128997   1.540   4.667   3.089 -0.2721  0.6564 -1.6601
 2502TIP3    H228998   1.450   4.624   2.976  1.1149 -0.7616 -2.2619
 2503TIP3   OH228999   2.975   3.104  14.775 -0.0568 -0.2653  0.2871
 2503TIP3    H129000   2.901   3.144  14.729 -0.3808 -2.0253 -0.8201
 2503TIP3    H229001   2.944   3.090  14.864 -0.7893 -0.2785  0.0321
 2504TIP3   OH229002   5.887   4.939  12.888  0.4753 -0.8755  0.0396
 2504TIP3    H129003   5.811   4.882  12.894 -0.5923  0.3728 -1.1272
 2504TIP3    H229004   5.902   4.968  12.978 -0.7911 -0.6807  0.1951
 2505TIP3   OH229005   0.823   0.242   2.704 -0.2815  0.1389  0.0762
 2505TIP3    H129006   0.852   0.333   2.696  1.1995 -0.1175  1.8471
 2505TIP3    H229007   0.744   0.246   2.759 -0.5931  0.3999 -0.3886
 2506TIP3   OH229008   3.313   3.365  13.161  0.4076 -0.5462 -0.1253
 2506TIP3    H129009   3.243   3.336  13.104 -1.5410  0.0061  1.8545
 2506TIP3    H229010   3.315   3.460  13.150  1.0316 -0.5791 -0.3439
 2507TIP3   OH229011   2.655   2.629   5.804 -0.4238  0.1037  0.0858
 2507TIP3    H129012   2.605   2.564   5.855 -1.1932  0.0501 -0.7089
 2507TIP3    H229013   2.715   2.577   5.751 -0.9880  0.0345 -0.4956
 2508TIP3   OH229014   1.345   3.973  14.881 -0.2222 -0.5848 -0.2750
 2508TIP3    H129015   1.402   3.897  14.874  0.0025 -0.4012 -0.4714
 2508TIP3    H229016   1.282   3.963  14.810 -0.7860 -1.0733  0.2825
 2509TIP3   OH229017   3.787   5.233  13.264 -0.1311 -0.2795 -0.2705
 2509TIP3    H129018   3.881   5.227  13.278 -0.2143  0.0152  0.5139
 2509TIP3    H229019   3.749   5.181  13.335 -0.5488 -0.8293 -0.8858
 2510TIP3   OH229020   0.677   2.385   3.762 -0.4414 -0.1676 -0.0499
 2510TIP3    H129021   0.597   2.335   3.776  0.3282 -1.3143  0.4557
 2510TIP3    H229022   0.659   2.471   3.800 -1.8855  0.0539 -1.1551
 2511TIP3   OH229023   4.024   0.869   1.340 -0.1413  0.3031 -0.2250
 2511TIP3    H129024   3.963   0.937   1.367  0.3932  1.1251 -1.0157
 2511TIP3    H229025   4.096   0.916   1.297  0.7129 -0.6883  0.0517
 2512TIP3   OH229026   3.046   3.160   6.381 -0.3943 -0.0813 -0.5038
 2512TIP3    H129027   3.002   3.099   6.440  0.1315 -0.2667 -0.2984
 2512TIP3    H229028   3.115   3.199   6.435 -0.9055  0.9150 -0.5412
 2513TIP3   OH229029   2.878   5.912   2.201  0.2245  0.3258  0.1207
 2513TIP3    H129030   2.819   5.891   2.129 -0.4065 -0.1854  0.7690
 2513TIP3    H229031   2.918   5.996   2.176 -1.2849  1.0304 -0.0158
 2514TIP3   OH229032   3.299   5.690   0.815  0.3177 -0.0786  0.4373
 2514TIP3    H129033   3.278   5.773   0.774  0.9151  0.6747  1.6036
 2514TIP3    H229034   3.382   5.663   0.774  2.1733  1.8308  2.6621
 2515TIP3   OH229035   4.772   4.868  11.642 -0.4127  0.7643  0.0536
 2515TIP3    H129036   4.813   4.810  11.577 -0.6331  0.4949  0.1533
 2515TIP3    H229037   4.706   4.813  11.685 -1.0595  1.2587 -0.2865
 2516TIP3   OH229038   2.573   6.713   5.581  0.0559  0.8396 -0.4863
 2516TIP3    H129039   2.617   6.709   5.666 -0.1464 -0.0617 -0.4101
 2516TIP3    H229040   2.569   6.622   5.552 -1.0008  0.9976 -0.8756
 2517TIP3   OH229041   3.868   2.733  11.891  0.5336  0.0257 -0.0061
 2517TIP3    H129042   3.821   2.712  11.971  0.6233  3.2686  1.0629
 2517TIP3    H229043   3.882   2.649  11.848 -0.7689 -1.6872  2.6569
 2518TIP3   OH229044   5.888   4.053  12.409 -0.4205 -0.0675  0.6763
 2518TIP3    H129045   5.920   4.086  12.324 -1.5370 -1.7002 -0.4407
 2518TIP3    H229046   5.807   4.007  12.388 -0.9407 -0.1850  2.7266
 2519TIP3   OH229047   2.380   3.657   2.678 -0.2443 -0.5987 -0.5391
 2519TIP3    H129048   2.387   3.604   2.757  1.0358 -0.4038 -0.5008
 2519TIP3    H229049   2.340   3.599   2.613 -0.2098 -1.1334 -0.0883
 2520TIP3   OH229050   1.359   3.961   5.838 -0.6035  0.1533 -0.3497
 2520TIP3    H129051   1.387   3.870   5.834 -1.1494  0.0218 -2.0590
 2520TIP3    H229052   1.292   3.963   5.906 -1.8800 -1.1299 -1.5142
 2521TIP3   OH229053   2.154   3.012  16.213  0.2582 -0.5245 -0.0160
 2521TIP3    H129054   2.207   3.088  16.237  0.4116 -0.5020 -0.4150
 2521TIP3    H229055   2.073   3.023  16.262 -0.7562  1.2271 -1.9674
 2522TIP3   OH229056   4.506   2.805  16.889 -0.3141 -0.1646  0.2999
 2522TIP3    H129057   4.458   2.884  16.914  2.2455  0.9126  2.3302
 2522TIP3    H229058   4.577   2.836  16.834 -0.7528 -1.4504 -1.0515
 2523TIP3   OH229059   1.143   5.735   1.205 -0.8442 -0.3994  0.4562
 2523TIP3    H129060   1.077   5.763   1.142  0.1433  0.9087 -0.0420
 2523TIP3    H229061   1.126   5.788   1.283 -0.7094 -0.4199  0.5004
 2524TIP3   OH229062   1.989   4.118   4.169 -0.7809  0.0583 -0.6124
 2524TIP3    H129063   1.900   4.127   4.204 -0.4971  1.6798 -0.2319
 2524TIP3    H229064   1.990   4.031   4.130 -1.8064 -0.9642  1.4541
 2525TIP3   OH229065   5.712   6.804   0.044 -0.8546  0.0014  0.1803
 2525TIP3    H129066   5.653   6.826  -0.028 -0.9957 -1.1592 -0.0844
 2525TIP3    H229067   5.722   6.709   0.038 -0.2350 -0.0107  1.2105
 2526TIP3   OH229068   1.391   5.083   2.153  0.5019  0.0752 -1.1921
 2526TIP3    H129069   1.395   5.015   2.220 -2.0486 -0.7213 -1.7284
 2526TIP3    H229070   1.435   5.044   2.077  1.2821  0.0409 -0.7294
 2527TIP3   OH229071   3.203   0.314  13.422  0.0881 -0.5021  0.0047
 2527TIP3    H129072   3.183   0.313  13.515 -1.4265 -3.3311 -0.2319
 2527TIP3    H229073   3.183   0.225  13.392 -0.1109  0.4725 -3.1430
 2528TIP3   OH229074   0.645   6.386  14.243 -0.5020  1.5356  0.8467
 2528TIP3    H129075   0.731   6.416  14.213 -0.0631  0.2179  0.7454
 2528TIP3    H229076   0.583   6.449  14.206  0.3148  1.8098 -0.0833
 2529TIP3   OH229077   6.494   2.154  15.072  0.1345 -0.3436  0.9656
 2529TIP3    H129078   6.558   2.083  15.066  1.1575  0.6721 -1.0733
 2529TIP3    H229079   6.433   2.137  15.000  0.7660  1.1599  0.0405
 2530TIP3   OH229080   6.764   4.663   3.903 -0.0201 -0.1472  0.8310
 2530TIP3    H129081   6.843   4.624   3.941  0.8396  2.1547  1.5773
 2530TIP3    H229082   6.753   4.746   3.950 -0.9695  1.1700 -1.5319
 2531TIP3   OH229083   3.004   0.215  16.035  0.1906 -0.5380 -0.0615
 2531TIP3    H129084   2.965   0.302  16.031 -0.4761 -0.8402 -0.3421
 2531TIP3    H229085   3.057   0.208  15.955  1.8802  0.3467  0.9288
 2532TIP3   OH229086   3.570   5.196   3.515  0.0281  0.0351  0.1531
 2532TIP3    H129087   3.607   5.277   3.480 -0.1492 -0.4338 -1.1750
 2532TIP3    H229088   3.490   5.223   3.559 -0.5162  0.4889 -1.0727
 2533TIP3   OH229089   5.660   2.054   0.651  0.4781  0.2061  0.6860
 2533TIP3    H129090   5.625   1.973   0.615 -0.4237  0.8600  0.0370
 2533TIP3    H229091   5.642   2.048   0.745 -1.8579  0.6903  0.3399
 2534TIP3   OH229092   4.239   0.815  15.327  0.1987 -0.6518  0.2897
 2534TIP3    H129093   4.288   0.869  15.266  0.3510  0.1409  1.0994
 2534TIP3    H229094   4.205   0.743  15.273  2.5425 -1.4637 -0.2538
 2535TIP3   OH229095   3.484   4.954   3.073 -0.4217  0.2807 -0.2501
 2535TIP3    H129096   3.452   4.970   2.984  0.2458 -1.7786 -0.9098
 2535TIP3    H229097   3.509   5.041   3.105 -3.3135  1.5016 -0.9549
 2536TIP3   OH229098   6.753   6.690   3.372 -0.0590  0.1021 -0.2003
 2536TIP3    H129099   6.734   6.652   3.457  1.7445 -1.6670 -0.4821
 2536TIP3    H229100   6.839   6.653   3.349 -0.3806  0.7213 -2.6511
 2537TIP3   OH229101   5.504   0.779   1.593 -0.6674  0.3361 -0.3492
 2537TIP3    H129102   5.484   0.739   1.677  1.1407  0.2547  0.0879
 2537TIP3    H229103   5.534   0.707   1.538 -1.3740  0.4650 -0.9217
 2538TIP3   OH229104   3.545   5.890   1.255 -0.5359  0.0671 -0.0841
 2538TIP3    H129105   3.578   5.824   1.316  1.1930  0.8325 -0.1126
 2538TIP3    H229106   3.470   5.929   1.299 -2.7406 -3.0401 -0.8005
 2539TIP3   OH229107   5.013   1.539  11.522  0.0951 -0.2201  0.1851
 2539TIP3    H129108   4.958   1.509  11.594  0.6430 -0.5363  0.4800
 2539TIP3    H229109   5.058   1.460  11.492 -0.0738 -0.0784 -0.4592
 2540TIP3   OH229110   0.798   0.522   3.783  0.2604  0.0591 -0.8454
 2540TIP3    H129111   0.818   0.550   3.872  0.5593  1.0307 -1.2093
 2540TIP3    H229112   0.803   0.426   3.786 -3.2548 -0.2441  1.0567
 2541TIP3   OH229113   5.314   5.698   3.045  0.2476  0.4742 -0.2730
 2541TIP3    H129114   5.375   5.636   3.007  0.5449  0.5073  0.1428
 2541TIP3    H229115   5.239   5.645   3.072 -1.1445  0.7694 -3.2465
 2542TIP3   OH229116   0.822   6.784   2.168  0.5621 -0.1290 -0.7048
 2542TIP3    H129117   0.736   6.825   2.178  0.8559  0.1660  1.0025
 2542TIP3    H229118   0.881   6.856   2.144  0.7720  0.1777  0.6452
 2543TIP3   OH229119   3.415   0.200  14.417 -0.1206  0.0085 -0.5741
 2543TIP3    H129120   3.469   0.257  14.471 -0.1234  0.7677 -1.3540
 2543TIP3    H229121   3.475   0.165  14.351 -0.3699  0.0534 -0.8262
 2544TIP3   OH229122   5.000   2.094   4.944 -0.0495  0.4062  0.1799
 2544TIP3    H129123   5.023   2.060   5.030 -0.8030 -1.3200 -0.2602
 2544TIP3    H229124   4.905   2.098   4.943 -0.0671  0.1149 -0.6641
 2545TIP3   OH229125   3.363   0.576   6.437 -0.2796 -0.3173  0.3214
 2545TIP3    H129126   3.390   0.508   6.375 -0.2402 -0.0588  0.0492
 2545TIP3    H229127   3.403   0.656   6.403  1.8597 -0.5472  2.0507
 2546TIP3   OH229128   2.008   1.041  14.968 -0.4979 -0.5313  0.2100
 2546TIP3    H129129   1.961   1.122  14.989  1.6416  1.8337 -3.1437
 2546TIP3    H229130   2.017   1.043  14.873 -0.6366 -5.0190 -0.0783
 2547TIP3   OH229131   0.712   3.346   1.940 -0.1149  0.6357 -0.0128
 2547TIP3    H129132   0.656   3.304   1.875 -0.9795  0.7216  0.6490
 2547TIP3    H229133   0.668   3.429   1.959 -0.1259  0.4197  0.9897
 2548TIP3   OH229134   0.167   4.660  12.458  0.4725 -0.1738  0.1201
 2548TIP3    H129135   0.221   4.732  12.492  1.0650 -0.7294  0.3631
 2548TIP3    H229136   0.212   4.632  12.378 -0.3678  0.4566 -0.5929
 2549TIP3   OH229137   3.432   1.983  11.733  0.0821 -0.3056  0.2886
 2549TIP3    H129138   3.445   1.891  11.707 -0.9236 -0.0962 -1.1281
 2549TIP3    H229139   3.349   1.982  11.781  0.6058 -0.2848  1.2032
 2550TIP3   OH229140   1.957   2.989  14.148 -0.0536 -0.4982  0.1621
 2550TIP3    H129141   1.998   2.917  14.197  0.5652 -0.2927 -0.0444
 2550TIP3    H229142   1.987   3.068  14.194 -1.0450 -0.3787  0.6272
 2551TIP3   OH229143   2.172   3.600   1.172 -0.1770  0.3161  0.0748
 2551TIP3    H129144   2.119   3.623   1.096 -0.9545 -1.9460 -0.1438
 2551TIP3    H229145   2.115   3.614   1.247  0.2423  1.5619  0.1717
 2552TIP3   OH229146   0.731   3.327  14.473  0.2305 -0.0746 -0.3042
 2552TIP3    H129147   0.791   3.396  14.446 -0.4471  0.9865  0.8246
 2552TIP3    H229148   0.787   3.252  14.492  1.5262  1.5322  2.8945
 2553TIP3   OH229149   1.962   5.011  14.565  0.1426  1.1332  0.4115
 2553TIP3    H129150   1.973   5.070  14.639  1.6839  0.9112  0.3842
 2553TIP3    H229151   2.036   4.951  14.571 -1.1843 -0.6089  0.2413
 2554TIP3   OH229152   2.101   1.560   0.907 -0.2887  0.5631  0.3792
 2554TIP3    H129153   2.184   1.583   0.865 -0.9273  0.4442 -1.0129
 2554TIP3    H229154   2.063   1.492   0.850 -1.0398  0.1397  1.3480
 2555TIP3   OH229155   2.042   4.838  17.175 -0.3289 -0.0901 -0.1376
 2555TIP3    H129156   1.959   4.886  17.181  0.0489  0.4517  0.8412
 2555TIP3    H229157   2.079   4.842  17.263 -0.4763 -2.5558  0.1013
 2556TIP3   OH229158   5.164   2.354  13.889  0.3446  0.2265  0.3181
 2556TIP3    H129159   5.122   2.438  13.905  0.2690  0.1409  0.5615
 2556TIP3    H229160   5.158   2.342  13.794  0.9258  0.7979  0.2013
 2557TIP3   OH229161   6.673   2.936   0.618 -0.2589 -0.6049 -0.2164
 2557TIP3    H129162   6.679   2.876   0.545 -1.3517 -1.5804  0.4649
 2557TIP3    H229163   6.587   2.977   0.610 -0.1165 -0.2160  0.1447
 2558TIP3   OH229164   1.776   2.032  13.857  0.4684 -0.0321 -0.5219
 2558TIP3    H129165   1.835   1.975  13.906 -0.7474 -1.8921 -1.1240
 2558TIP3    H229166   1.697   2.036  13.911 -0.5239 -1.3125 -1.8242
 2559TIP3   OH229167   1.575   1.922   5.034  0.5448 -0.3200  0.4952
 2559TIP3    H129168   1.569   1.877   4.950  2.0333 -1.7968  1.1119
 2559TIP3    H229169   1.530   2.005   5.021  1.0681 -0.3495 -1.8688
 2560TIP3   OH229170   3.957   0.409   0.519 -0.2107  0.2801  0.2402
 2560TIP3    H129171   3.944   0.477   0.453 -0.0515  0.5686  0.5042
 2560TIP3    H229172   3.868   0.386   0.547 -0.2200  1.6745  1.4595
 2561TIP3   OH229173   1.381   0.060  12.058  0.0729  0.3735  0.0533
 2561TIP3    H129174   1.426   0.079  11.975  0.1861  1.2305  0.3056
 2561TIP3    H229175   1.419   0.122  12.120 -1.2065  0.8658  0.3562
 2562TIP3   OH229176   4.909   4.846  16.610 -0.4588 -0.2811  0.2324
 2562TIP3    H129177   4.913   4.879  16.520  1.4289 -0.9535  0.0458
 2562TIP3    H229178   4.880   4.755  16.601  3.6855 -1.7829 -0.2014
 2563TIP3   OH229179   0.178   6.248   3.261  0.4127 -0.1468  0.2291
 2563TIP3    H129180   0.099   6.300   3.251 -0.1165 -0.8379  0.7456
 2563TIP3    H229181   0.243   6.293   3.207 -0.8206 -0.6056 -1.7444
 2564TIP3   OH229182   1.170   4.984  17.004  0.2955 -0.2364  0.1041
 2564TIP3    H129183   1.134   5.068  17.033 -1.0811 -1.2193  1.4412
 2564TIP3    H229184   1.263   5.001  16.988 -0.3199  1.9789 -1.6097
 2565TIP3   OH229185   3.498   0.464  12.855 -0.6751 -0.3089  0.2556
 2565TIP3    H129186   3.519   0.405  12.783 -2.0789 -0.8282  0.2457
 2565TIP3    H229187   3.527   0.417  12.933 -2.1140 -1.1997  0.2764
 2566TIP3   OH229188   3.008   6.683   5.155  0.4681 -0.0936  1.1369
 2566TIP3    H129189   2.965   6.746   5.097 -0.3805 -0.3737  1.4454
 2566TIP3    H229190   2.990   6.716   5.243 -1.6418 -1.7522  1.3977
 2567TIP3   OH229191   2.983   3.491  15.505  0.0757 -0.2795 -0.5470
 2567TIP3    H129192   3.031   3.508  15.586  1.6259 -0.5242 -1.3793
 2567TIP3    H229193   2.918   3.425  15.529 -0.9301  1.1890  0.9559
 2568TIP3   OH229194   0.214   0.420  12.849 -0.6090 -0.3127  0.4201
 2568TIP3    H129195   0.271   0.358  12.802  1.2768  0.4941  1.5567
 2568TIP3    H229196   0.193   0.487  12.784  0.8060  0.0412  0.2967
 2569TIP3   OH229197   1.827   4.972   0.287  0.2918 -0.0387  0.0986
 2569TIP3    H129198   1.754   5.002   0.232  0.6497 -2.4964 -1.9447
 2569TIP3    H229199   1.889   5.045   0.286 -0.6606  0.8087 -1.0339
 2570TIP3   OH229200   0.595   5.062   0.657  1.0756  0.1660  0.3588
 2570TIP3    H129201   0.635   4.976   0.646  0.6126 -0.2037  1.5014
 2570TIP3    H229202   0.515   5.045   0.707 -0.1569  0.9757 -1.2248
 2571TIP3   OH229203   2.807   5.288  16.749 -0.0248 -0.0299  0.3272
 2571TIP3    H129204   2.776   5.323  16.833  1.5391  0.2438  0.8089
 2571TIP3    H229205   2.851   5.206  16.771 -2.0462 -1.4439 -0.5898
 2572TIP3   OH229206   6.571   4.917  17.050  0.0873 -0.1156 -0.4305
 2572TIP3    H129207   6.664   4.917  17.069  0.0771  1.4090 -0.1915
 2572TIP3    H229208   6.530   4.947  17.132 -0.7381 -1.9563 -0.1285
 2573TIP3   OH229209   4.038   4.516   1.401  0.3927 -0.4555  0.2923
 2573TIP3    H129210   3.944   4.520   1.419  0.2596  2.4864 -0.5376
 2573TIP3    H229211   4.045   4.527   1.306  1.5783  2.5424  0.6139
 2574TIP3   OH229212   2.204   5.360   5.097 -0.1426 -0.1358 -0.2994
 2574TIP3    H129213   2.126   5.350   5.042 -1.7278  0.1922  1.7844
 2574TIP3    H229214   2.217   5.274   5.137 -0.0675  0.0834  0.1550
 2575TIP3   OH229215   0.636   0.209  13.372 -0.1688 -0.2060 -0.5751
 2575TIP3    H129216   0.641   0.304  13.383 -3.8633  0.0971 -0.5253
 2575TIP3    H229217   0.716   0.176  13.414  0.3494  2.7350  1.0147
 2576TIP3   OH229218   6.670   3.551  15.331 -0.4023  0.2313  0.0342
 2576TIP3    H129219   6.701   3.528  15.419 -1.4914  2.5716  1.1219
 2576TIP3    H229220   6.607   3.482  15.309  0.2879 -0.6777  0.8492
 2577TIP3   OH229221   4.945   2.374   2.811 -0.0426 -0.5754  0.5414
 2577TIP3    H129222   4.952   2.281   2.834 -1.2430 -0.7274  0.3430
 2577TIP3    H229223   4.885   2.376   2.737  1.3468  0.2140 -0.5941
 2578TIP3   OH229224   2.407   6.073  13.420 -0.2012  0.2213 -0.1583
 2578TIP3    H129225   2.465   6.115  13.483 -1.9167  0.1222  1.5792
 2578TIP3    H229226   2.464   6.052  13.346  1.2436  3.3602 -0.1218
 2579TIP3   OH229227   4.588   6.192  11.247  0.1449 -0.1855 -0.5818
 2579TIP3    H129228   4.582   6.118  11.306 -2.3859  0.2030 -0.2483
 2579TIP3    H229229   4.682   6.213  11.244  0.5116 -1.0157  2.2696
 2580TIP3   OH229230   1.188   0.299  11.311  0.2975 -0.1185  0.7383
 2580TIP3    H129231   1.253   0.273  11.376 -0.9134  1.5279  2.7298
 2580TIP3    H229232   1.238   0.308  11.230  2.3054 -0.1582  1.8955
 2581TIP3   OH229233   4.522   6.661  15.745  0.3262 -0.0339  0.5985
 2581TIP3    H129234   4.599   6.610  15.719  0.0183 -0.4679  0.5278
 2581TIP3    H229235   4.558   6.740  15.784  0.8147 -0.3363  0.7729
 2582TIP3   OH229236   0.234   6.290   5.151  0.7565  0.0292  0.8042
 2582TIP3    H129237   0.235   6.320   5.060  3.2334  0.4951  0.9248
 2582TIP3    H229238   0.216   6.196   5.145 -0.9363  0.3580  0.0025
 2583TIP3   OH229239   0.837   3.738   3.781 -0.1971  0.1392  0.6066
 2583TIP3    H129240   0.811   3.685   3.706  0.1876  1.3158 -0.3854
 2583TIP3    H229241   0.757   3.744   3.834 -0.8980  0.4773 -0.4434
 2584TIP3   OH229242   0.951   0.464  13.112  0.3690  0.3823 -0.3446
 2584TIP3    H129243   0.857   0.475  13.102 -0.1315 -1.8289  1.0890
 2584TIP3    H229244   0.971   0.506  13.196  0.5347  0.2908 -0.3377
 2585TIP3   OH229245   2.174   0.926   0.322  0.0010  0.3655  0.3626
 2585TIP3    H129246   2.141   0.962   0.405  1.3199 -0.9585  1.5168
 2585TIP3    H229247   2.267   0.948   0.323  0.2261 -0.5424 -0.2989
 2586TIP3   OH229248   4.653   1.721   1.399  0.1052 -0.7892  0.7678
 2586TIP3    H129249   4.678   1.727   1.491  1.3879 -1.0470  0.4547
 2586TIP3    H229250   4.599   1.799   1.383  2.5870  1.0587  0.9256
 2587TIP3   OH229251   2.484   6.191   1.842 -0.5075 -0.0176  0.3399
 2587TIP3    H129252   2.430   6.191   1.764 -1.5579  0.1137  1.0497
 2587TIP3    H229253   2.452   6.117   1.894 -1.4533  1.2725  1.7098
 2588TIP3   OH229254   1.880   1.073  12.422  0.2160  0.0235  0.6641
 2588TIP3    H129255   1.960   1.022  12.429 -0.3847 -0.8373  1.4960
 2588TIP3    H229256   1.899   1.139  12.355  1.1319 -1.0738 -0.1979
 2589TIP3   OH229257   2.577   0.056  11.768  0.4280 -0.1633  0.0025
 2589TIP3    H129258   2.631   0.051  11.847  2.0668  0.7002 -0.9966
 2589TIP3    H229259   2.535   0.141  11.773  1.0709  0.1825 -0.3660
 2590TIP3   OH229260   2.989   4.498  14.777 -0.0868  0.3887 -0.4172
 2590TIP3    H129261   2.971   4.522  14.868  3.6075  2.1659  0.0202
 2590TIP3    H229262   2.975   4.579  14.728  0.7326  0.2131 -0.9566
 2591TIP3   OH229263   0.478   3.519  15.015 -0.1155 -0.4006 -0.0773
 2591TIP3    H129264   0.422   3.464  15.071  0.6963 -0.6660  0.4888
 2591TIP3    H229265   0.504   3.592  15.072  1.3882 -1.1038  0.1644
 2592TIP3   OH229266   0.777   5.777  13.929  0.3543 -0.0710 -0.2559
 2592TIP3    H129267   0.761   5.712  13.861 -0.8198  0.5613 -0.6173
 2592TIP3    H229268   0.803   5.856  13.880  0.3455  0.1457  0.0864
 2593TIP3   OH229269   2.100   4.759  12.690 -1.1129  0.2423 -0.8350
 2593TIP3    H129270   2.101   4.664  12.701 -0.2752  0.3258 -0.0905
 2593TIP3    H229271   2.167   4.791  12.751 -2.3135  1.4152 -0.0743
 2594TIP3   OH229272   2.876   5.589  14.563  0.1311 -0.6362 -0.3365
 2594TIP3    H129273   2.889   5.565  14.655  2.5145 -0.0950 -0.4655
 2594TIP3    H229274   2.799   5.646  14.564  1.8154  1.8338  1.8285
 2595TIP3   OH229275   4.478   3.471   4.915 -0.1666 -0.0420  0.1799
 2595TIP3    H129276   4.485   3.474   4.820 -0.6936 -0.2329  0.1305
 2595TIP3    H229277   4.559   3.431   4.944 -0.8912 -2.0000 -0.3329
 2596TIP3   OH229278   4.804   3.866   5.539  0.3284 -0.1339  0.1319
 2596TIP3    H129279   4.764   3.939   5.587 -0.0371 -0.0144 -0.3403
 2596TIP3    H229280   4.808   3.897   5.448  0.7652 -0.4571  0.0417
 2597TIP3   OH229281   6.605   3.236  12.920 -0.8280 -0.4781  0.1384
 2597TIP3    H129282   6.685   3.184  12.910 -0.9625 -0.8863  1.0662
 2597TIP3    H229283   6.536   3.179  12.886 -0.8970 -0.6718  0.5977
 2598TIP3   OH229284   4.115   5.399  12.100  0.2160  0.2422 -0.0776
 2598TIP3    H129285   4.136   5.489  12.123  1.0275  0.7024 -2.3312
 2598TIP3    H229286   4.160   5.385  12.016  0.4521 -2.3837  0.3955
 2599TIP3   OH229287   2.661   3.514   2.363  0.3657  0.5900  0.0211
 2599TIP3    H129288   2.693   3.603   2.373  0.9925  0.4719 -0.7917
 2599TIP3    H229289   2.663   3.498   2.268 -0.8146  0.1013  0.0513
 2600TIP3   OH229290   3.270   5.488  15.009  0.1881  0.1399  0.7417
 2600TIP3    H129291   3.287   5.479  15.103  1.2406 -0.8381  0.4722
 2600TIP3    H229292   3.301   5.406  14.971  0.3623  0.7819 -0.5404
 2601TIP3   OH229293   5.030   3.971   3.502  0.8061  0.1203 -0.0515
 2601TIP3    H129294   5.064   4.044   3.451  0.3145 -1.2724 -2.5545
 2601TIP3    H229295   4.936   3.986   3.507  0.6498 -0.4851 -0.9082
 2602TIP3   OH229296   4.892   6.734  13.422 -0.1583  0.1342  0.0516
 2602TIP3    H129297   4.825   6.706  13.485 -1.2134  1.7824 -0.2796
 2602TIP3    H229298   4.968   6.754  13.475 -1.1537  1.8759  0.9253
 2603TIP3   OH229299   2.786   5.208   4.397 -0.1896 -0.1207  0.1667
 2603TIP3    H129300   2.843   5.233   4.323 -1.0643  1.4475 -0.0168
 2603TIP3    H229301   2.731   5.285   4.412 -0.0753 -0.4116  2.4450
 2604TIP3   OH229302   4.640   1.759   5.109  0.1008 -0.3601  0.2825
 2604TIP3    H129303   4.640   1.777   5.015 -0.2443 -0.8258  0.1860
 2604TIP3    H229304   4.568   1.697   5.121 -1.6672  1.7806  1.2699
 2605TIP3   OH229305   6.586   2.731   5.072 -0.5466  0.1004  0.4343
 2605TIP3    H129306   6.535   2.752   5.151 -3.4419  0.2227 -1.3206
 2605TIP3    H229307   6.582   2.635   5.066  2.6127 -0.2762  2.1288
 2606TIP3   OH229308   4.825   6.304   3.429  0.2653 -0.1433 -0.5118
 2606TIP3    H129309   4.898   6.242   3.429 -0.0303 -0.5027 -0.8485
 2606TIP3    H229310   4.753   6.256   3.470  0.7860  0.9380  1.8399
 2607TIP3   OH229311   0.524   3.166   2.231 -0.4600  0.3236  0.0287
 2607TIP3    H129312   0.594   3.134   2.175  0.0283  0.2599  0.6663
 2607TIP3    H229313   0.553   3.146   2.320 -0.6047  1.6113  0.3965
 2608TIP3   OH229314   2.812   5.390  13.841 -0.8391 -0.0640  0.6815
 2608TIP3    H129315   2.787   5.448  13.912 -1.7476 -0.7195  0.9047
 2608TIP3    H229316   2.831   5.306  13.883  1.7838  0.3615  0.5360
 2609TIP3   OH229317   2.450   3.255   2.700 -0.4032 -0.4596  0.2845
 2609TIP3    H129318   2.412   3.168   2.706 -0.7010 -0.5794 -2.1675
 2609TIP3    H229319   2.532   3.243   2.652  1.1929  0.2428  2.6630
 2610TIP3   OH229320   3.245   2.413  14.930  0.0577  0.0858 -0.4252
 2610TIP3    H129321   3.309   2.409  15.002 -0.0835  1.6686 -0.1608
 2610TIP3    H229322   3.174   2.355  14.957  1.1043 -1.2585 -0.4595
 2611TIP3   OH229323   5.576   6.794  16.829  0.2953 -0.3156  0.5646
 2611TIP3    H129324   5.649   6.747  16.789 -1.1890 -1.4691 -0.9028
 2611TIP3    H229325   5.558   6.867  16.769 -1.4366 -1.6004 -0.5592
 2612TIP3   OH229326   0.874   4.509  15.467  0.5947 -0.5390 -0.7929
 2612TIP3    H129327   0.915   4.425  15.446 -0.3710 -0.8358 -1.5809
 2612TIP3    H229328   0.927   4.574  15.421  0.3654 -0.8896 -1.5694
 2613TIP3   OH229329   5.138   2.383  13.614 -0.3784 -0.5429  0.4436
 2613TIP3    H129330   5.167   2.344  13.531  0.4151 -1.5083  1.1461
 2613TIP3    H229331   5.200   2.454  13.630 -1.1138  0.2772 -0.2506
 2614TIP3   OH229332   5.052   4.965   0.120  0.3591  0.2513 -0.0456
 2614TIP3    H129333   5.050   4.986   0.027 -0.9215  1.4103  0.2003
 2614TIP3    H229334   4.960   4.951   0.144  0.7651 -1.2438  0.8122
 2615TIP3   OH229335   5.632   3.450   0.791  0.2428  0.4356 -0.4567
 2615TIP3    H129336   5.694   3.419   0.725 -0.9913  1.5857 -2.2723
 2615TIP3    H229337   5.677   3.522   0.834  0.3972  0.9177 -1.3921
 2616TIP3   OH229338   6.285   6.114  11.543 -0.2686 -0.2621  0.2543
 2616TIP3    H129339   6.228   6.191  11.540  0.3885  0.2337 -3.0516
 2616TIP3    H229340   6.365   6.145  11.588 -0.8217  0.3282  0.8600
 2617TIP3   OH229341   3.427   1.944   4.466  0.4087 -0.5235  0.0054
 2617TIP3    H129342   3.429   1.867   4.523  1.9409 -0.5140  0.0026
 2617TIP3    H229343   3.519   1.959   4.443  0.1280  1.2159 -0.1042
 2618TIP3   OH229344   3.307   3.526   1.175  0.3261 -0.1855  0.1969
 2618TIP3    H129345   3.253   3.604   1.160 -2.0482 -1.3220  2.1207
 2618TIP3    H229346   3.291   3.471   1.098  1.8592  1.0533 -1.0766
 2619TIP3   OH229347   3.618   4.834   1.701 -0.1491 -0.2764 -0.1361
 2619TIP3    H129348   3.617   4.879   1.617 -1.8984  0.7172  0.3559
 2619TIP3    H229349   3.636   4.743   1.680  1.0334  0.2189 -1.4129
 2620TIP3   OH229350   1.629   0.319  13.702  0.1875 -0.2263  0.7064
 2620TIP3    H129351   1.578   0.331  13.782 -0.8469 -1.3765  0.2387
 2620TIP3    H229352   1.625   0.225  13.685 -0.9648  0.1854 -1.5699
 2621TIP3   OH229353   3.417   3.357   4.371 -0.3852 -0.1442  0.2181
 2621TIP3    H129354   3.495   3.411   4.381 -1.9324  2.0239  1.3729
 2621TIP3    H229355   3.344   3.419   4.375 -2.2369 -2.2091  0.4661
 2622TIP3   OH229356   0.215   3.191  13.423 -0.0559  0.8236 -0.3959
 2622TIP3    H129357   0.290   3.132  13.426 -1.7496 -1.6622 -2.4747
 2622TIP3    H229358   0.234   3.249  13.349 -0.3465 -0.1112 -1.2228
 2623TIP3   OH229359   2.333   2.357  16.441 -0.1389  0.2144 -0.3706
 2623TIP3    H129360   2.304   2.324  16.526 -0.8573 -1.8655 -1.3462
 2623TIP3    H229361   2.274   2.430  16.423  1.4424  2.1863  1.8251
 2624TIP3   OH229362   2.483   4.074   3.240 -0.5001 -0.5380 -0.2238
 2624TIP3    H129363   2.447   4.106   3.323 -0.2523  0.3791 -0.4575
 2624TIP3    H229364   2.416   4.094   3.175  0.1032  0.5584 -0.5496
 2625TIP3   OH229365   2.872   3.693  16.321 -0.2113 -0.0238 -0.4144
 2625TIP3    H129366   2.922   3.712  16.242 -1.0174 -0.3045 -1.0004
 2625TIP3    H229367   2.820   3.772  16.336 -1.9159 -0.8572 -1.6040
 2626TIP3   OH229368   1.227   6.690  14.077  0.2315 -0.0401  0.3341
 2626TIP3    H129369   1.194   6.749  14.145 -0.7067  0.5563 -0.6066
 2626TIP3    H229370   1.184   6.607  14.093  0.2749  0.0017  0.6705
 2627TIP3   OH229371   1.421   1.060   5.165  0.2063  0.8083 -0.0839
 2627TIP3    H129372   1.397   1.152   5.150  0.6850  1.3151  1.9838
 2627TIP3    H229373   1.510   1.053   5.130  1.2280  1.9072  2.0872
 2628TIP3   OH229374   2.322   4.165   1.919 -0.2740  0.5431 -0.2090
 2628TIP3    H129375   2.391   4.166   1.853  0.5085 -0.9999  0.5320
 2628TIP3    H229376   2.243   4.139   1.872  0.0237  0.5865 -0.7395
 2629TIP3   OH229377   0.970   2.949  14.689 -0.0606  0.2705 -0.2683
 2629TIP3    H129378   0.945   3.040  14.704 -1.4278 -0.0643 -0.3939
 2629TIP3    H229379   0.981   2.943  14.594  2.2335  0.8160 -0.0922
 2630TIP3   OH229380   6.085   4.381   2.516  0.3912  0.3752 -0.0056
 2630TIP3    H129381   5.994   4.358   2.497  1.0493 -1.1941 -1.5482
 2630TIP3    H229382   6.083   4.474   2.536 -1.2949  0.8462 -2.0100
 2631TIP3   OH229383   3.297   5.468   2.581 -0.0538  0.2307 -0.5208
 2631TIP3    H129384   3.354   5.401   2.617 -0.3066  0.8346  1.1002
 2631TIP3    H229385   3.350   5.547   2.579  0.3753 -0.0581 -2.8169
 2632TIP3   OH229386   0.288   4.543  16.546 -0.2004  0.5099 -0.3527
 2632TIP3    H129387   0.203   4.575  16.514 -1.0996  0.2398  1.6513
 2632TIP3    H229388   0.308   4.469  16.488 -1.3309  0.5747 -0.8581
 2633TIP3   OH229389   3.698   2.389  12.786 -0.1757 -0.4793 -0.2244
 2633TIP3    H129390   3.612   2.377  12.826 -0.7186  0.3962 -1.0823
 2633TIP3    H229391   3.735   2.301  12.784 -0.2314 -0.6025  1.9005
 2634TIP3   OH229392   6.723   1.449   2.518  0.1230 -0.3743 -0.1715
 2634TIP3    H129393   6.723   1.447   2.423  1.5606  0.8961 -0.2256
 2634TIP3    H229394   6.776   1.373   2.544  1.3612  0.3756 -0.4541
 2635TIP3   OH229395   0.370   3.657   1.786  0.1185 -0.3372 -0.7138
 2635TIP3    H129396   0.391   3.687   1.875 -3.5284  0.0943  0.1927
 2635TIP3    H229397   0.333   3.569   1.799  0.7069 -0.7910 -1.9896
 2636TIP3   OH229398   2.857   5.704   5.238 -0.1313  0.4835 -0.2939
 2636TIP3    H129399   2.908   5.664   5.309 -0.0980  1.2906  0.1484
 2636TIP3    H229400   2.766   5.688   5.262 -0.1301  1.0981  0.1467
 2637TIP3   OH229401   3.100   4.741   5.848 -0.3246 -0.1342 -0.4820
 2637TIP3    H129402   3.066   4.655   5.822 -0.0261 -0.5915  0.5535
 2637TIP3    H229403   3.037   4.772   5.914  0.1433 -0.0515 -0.0663
 2638TIP3   OH229404   6.466   5.242  11.138  0.0947  0.4083 -0.5580
 2638TIP3    H129405   6.512   5.178  11.084 -1.8724  0.0981 -1.9444
 2638TIP3    H229406   6.482   5.326  11.094 -1.6104  0.1392 -1.7541
 2639TIP3   OH229407   5.691   4.116  13.852 -0.0844 -0.0186  0.0493
 2639TIP3    H129408   5.743   4.153  13.781 -1.0972 -1.4468 -1.4960
 2639TIP3    H229409   5.604   4.104  13.815 -0.2370 -2.3292  1.0021
 2640TIP3   OH229410   1.829   1.918   3.301  0.3556  0.4412  0.1704
 2640TIP3    H129411   1.761   1.850   3.294  0.9551 -0.2093  0.5430
 2640TIP3    H229412   1.882   1.892   3.376  1.8054  0.2160 -0.8769
 2641TIP3   OH229413   3.817   4.012  11.291 -0.1569 -0.0479  0.3219
 2641TIP3    H129414   3.796   4.104  11.278 -0.5719 -0.0484  0.9368
 2641TIP3    H229415   3.764   3.986  11.367 -0.3366 -0.8867 -0.0805
 2642TIP3   OH229416   0.117   3.591   0.583 -0.4587  0.3437  0.2837
 2642TIP3    H129417   0.095   3.631   0.498 -0.3365  0.6268  0.3853
 2642TIP3    H229418   0.092   3.499   0.573 -1.1334  0.5303  0.1890
 2643TIP3   OH229419   4.952   4.646  11.804  0.1828 -0.7914  0.4353
 2643TIP3    H129420   4.996   4.572  11.762 -1.0961 -0.5828 -1.3479
 2643TIP3    H229421   4.954   4.716  11.739 -0.0111  0.2474  1.5134
 2644TIP3   OH229422   4.801   3.925   2.402 -0.2674 -0.4846 -0.2752
 2644TIP3    H129423   4.744   3.925   2.325 -0.7853 -1.0991  0.1010
 2644TIP3    H229424   4.770   3.998   2.456 -1.1955 -1.2777  0.2828
 2645TIP3   OH229425   6.617   3.231  14.706  0.2035  0.2746  0.4834
 2645TIP3    H129426   6.634   3.243  14.799  1.4997  2.5492  0.0195
 2645TIP3    H229427   6.672   3.295  14.662 -1.0668 -0.0776 -1.8229
 2646TIP3   OH229428   5.413   2.336   5.496 -0.1787 -0.0654  0.1441
 2646TIP3    H129429   5.415   2.408   5.433 -0.8082  1.4472  1.7591
 2646TIP3    H229430   5.330   2.291   5.479 -1.6840  1.9981  1.5756
 2647TIP3   OH229431   2.061   2.009  11.017  0.0075  0.3794  0.2260
 2647TIP3    H129432   2.071   2.054  11.102  2.0614  1.6854 -0.6117
 2647TIP3    H229433   2.139   1.953  11.011 -2.0328 -2.7527  0.8188
 2648TIP3   OH229434   0.091   5.046  12.710  0.0891  0.3789 -0.0523
 2648TIP3    H129435   0.089   5.122  12.653 -2.0656  0.4946  0.0944
 2648TIP3    H229436   0.073   5.081  12.797 -0.2260 -0.2230  0.1281
 2649TIP3   OH229437   1.408   1.840  13.568  0.2725  0.1090 -0.4672
 2649TIP3    H129438   1.364   1.765  13.528 -1.6215  0.4380  0.9199
 2649TIP3    H229439   1.386   1.914  13.511 -0.5032  0.1664 -0.1001
 2650TIP3   OH229440   1.866   1.120   4.392 -0.1225 -0.2382  0.1243
 2650TIP3    H129441   1.863   1.187   4.323 -0.6326 -1.4113 -1.0472
 2650TIP3    H229442   1.867   1.037   4.344 -0.2656 -1.0914  1.5469
 2651TIP3   OH229443   0.287   6.264  11.299  0.2677 -0.0588 -0.1081
 2651TIP3    H129444   0.208   6.228  11.338 -0.1781  0.2133 -0.7499
 2651TIP3    H229445   0.335   6.187  11.267 -1.0697 -0.0988 -2.2131
 2652TIP3   OH229446   1.791   2.000  14.829  0.8258 -0.3218  0.6132
 2652TIP3    H129447   1.709   1.978  14.871  0.8699  0.1868  0.9758
 2652TIP3    H229448   1.813   1.923  14.777  0.9541 -1.1017  1.7931
 2653TIP3   OH229449   5.558   1.209   3.408  0.3469 -0.4569 -0.1425
 2653TIP3    H129450   5.543   1.249   3.323  0.5362 -0.1076 -0.0124
 2653TIP3    H229451   5.616   1.270   3.454  1.6953 -1.4991 -0.4073
 2654TIP3   OH229452   5.928   1.082   0.597  0.0618  0.3168  0.8120
 2654TIP3    H129453   5.919   1.001   0.547 -1.5064  0.5810  0.5949
 2654TIP3    H229454   5.975   1.141   0.539 -0.1236  0.0416  0.3777
 2655TIP3   OH229455   1.462   5.230  14.809 -0.0559 -0.5368  0.4069
 2655TIP3    H129456   1.554   5.238  14.835  0.4580 -3.8232  0.0453
 2655TIP3    H229457   1.440   5.138  14.825 -3.0052 -0.0974 -0.4741
 2656TIP3   OH229458   0.630   0.897   4.783  0.0162 -0.3128 -0.8255
 2656TIP3    H129459   0.551   0.853   4.751 -1.8533  2.2704 -0.0697
 2656TIP3    H229460   0.693   0.887   4.711 -1.5705 -0.9225 -2.2194
 2657TIP3   OH229461   2.296   4.859   0.243 -0.1945  0.1794 -0.0657
 2657TIP3    H129462   2.374   4.832   0.194 -0.5054  0.5126 -0.7421
 2657TIP3    H229463   2.257   4.776   0.272  0.3301  0.0035  0.1617
 2658TIP3   OH229464   0.075   6.535  14.386  0.4215 -0.1975  0.4312
 2658TIP3    H129465   0.136   6.577  14.325 -0.6866  1.3106  0.2889
 2658TIP3    H229466   0.128   6.472  14.434  1.4039 -1.2478 -1.8776
 2659TIP3   OH229467   2.233   3.533  13.377 -0.7889 -0.4304  0.0101
 2659TIP3    H129468   2.220   3.439  13.361 -0.7131 -0.2273 -1.3765
 2659TIP3    H229469   2.283   3.536  13.458 -0.1062 -1.6344 -0.3320
 2660TIP3   OH229470   2.948   4.705   2.932  0.0396  0.4064  0.4251
 2660TIP3    H129471   3.001   4.735   2.858  2.2626 -1.4197  1.1501
 2660TIP3    H229472   2.994   4.738   3.009 -2.4017  2.5267  1.1008
 2661TIP3   OH229473   1.993   6.354  12.038 -0.7325  0.3616  0.1303
 2661TIP3    H129474   1.909   6.364  11.993 -0.5708  1.4389  0.0416
 2661TIP3    H229475   2.034   6.440  12.032  1.6300 -0.7902 -2.2745
 2662TIP3   OH229476   6.776   5.132   3.494  0.1342 -0.2725 -0.0974
 2662TIP3    H129477   6.749   5.061   3.553 -1.9027  0.9774  0.5764
 2662TIP3    H229478   6.830   5.189   3.549 -1.6313  0.8072  0.6079
 2663TIP3   OH229479   1.646   3.343  16.950  0.3359  0.0153 -0.4825
 2663TIP3    H129480   1.567   3.396  16.937  1.0718  1.7628  1.5007
 2663TIP3    H229481   1.716   3.393  16.909  0.8852  0.1389  0.5596
 2664TIP3   OH229482   2.973   2.303   3.764 -0.4192  0.0781  0.2397
 2664TIP3    H129483   2.918   2.304   3.686 -0.2359  1.4293  0.0959
 2664TIP3    H229484   3.045   2.244   3.742 -0.5477  0.1847 -0.4855
 2665TIP3   OH229485   5.512   1.013   5.546  0.1040  0.8026  0.7404
 2665TIP3    H129486   5.594   1.007   5.595  0.5855  0.6459 -0.0491
 2665TIP3    H229487   5.450   1.052   5.607  0.1007 -1.2639  2.1742
 2666TIP3   OH229488   5.437   3.656   4.610  0.1171  0.6915  0.2487
 2666TIP3    H129489   5.478   3.678   4.694 -0.5489  0.9028  0.5205
 2666TIP3    H229490   5.376   3.586   4.630 -0.8503  1.4827  0.1506
 2667TIP3   OH229491   5.914   5.284  16.309  0.7888  0.4855  0.5302
 2667TIP3    H129492   5.965   5.226  16.253  1.0133 -0.3291  1.5462
 2667TIP3    H229493   5.955   5.370  16.298  1.3580  0.1691  0.1006
 2668TIP3   OH229494   1.916   0.845  12.776 -0.1713  0.0791 -0.2706
 2668TIP3    H129495   1.948   0.932  12.801  0.0078  0.5328 -1.9558
 2668TIP3    H229496   1.899   0.852  12.682  1.3649 -2.1722 -0.7754
 2669TIP3   OH229497   3.366   3.564  14.959  0.0188  0.6905  0.3915
 2669TIP3    H129498   3.280   3.525  14.943 -0.3407  1.0953  1.2597
 2669TIP3    H229499   3.354   3.657  14.941  0.8179  0.4836 -1.4693
 2670TIP3   OH229500   2.229   2.955  14.565 -0.0166  0.9240 -0.0966
 2670TIP3    H129501   2.228   2.873  14.614 -1.3025  0.5753 -0.6685
 2670TIP3    H229502   2.312   2.952  14.516 -0.5901 -0.6409 -1.0696
 2671TIP3   OH229503   0.684   3.398  13.153 -0.5794 -0.2863  0.0907
 2671TIP3    H129504   0.668   3.489  13.175 -1.6089 -0.2407 -0.7838
 2671TIP3    H229505   0.608   3.372  13.101  0.8567 -0.9199 -1.7973
 2672TIP3   OH229506   0.624   0.629  15.731  0.0708  0.4838 -0.7967
 2672TIP3    H129507   0.581   0.554  15.689  0.2831  0.7303 -1.4682
 2672TIP3    H229508   0.673   0.671  15.661  1.0195  0.4951 -0.1430
 2673TIP3   OH229509   1.790   2.161   2.333 -0.3062 -0.1258  0.0762
 2673TIP3    H129510   1.872   2.133   2.293 -1.0572  0.7852 -2.2449
 2673TIP3    H229511   1.802   2.254   2.352 -1.1425  0.3110 -1.3651
 2674TIP3   OH229512   0.193   4.170   3.079 -0.3543 -0.0340  0.4699
 2674TIP3    H129513   0.258   4.103   3.099 -0.7193 -0.3243  0.6902
 2674TIP3    H229514   0.209   4.192   2.987  0.6851  0.5949  0.7791
 2675TIP3   OH229515   3.749   0.326   2.226  0.5475 -0.2736 -0.2559
 2675TIP3    H129516   3.767   0.262   2.157  2.0629 -0.6252  0.3966
 2675TIP3    H229517   3.833   0.370   2.239 -0.2673  1.2716 -0.0996
 2676TIP3   OH229518   0.442   0.255  12.300  0.2219 -0.1392  0.2755
 2676TIP3    H129519   0.430   0.346  12.273  1.4013 -0.2264 -0.6372
 2676TIP3    H229520   0.387   0.205  12.240  1.2534 -0.1791 -0.6514
 2677TIP3   OH229521   5.333   5.403  12.506 -0.3251 -0.0342  0.1271
 2677TIP3    H129522   5.316   5.320  12.551 -0.8486  0.8868  1.6828
 2677TIP3    H229523   5.424   5.423  12.528 -0.5839  0.4204  0.8372
 2678TIP3   OH229524   1.650   1.768  13.779  0.6925 -0.5902 -0.6859
 2678TIP3    H129525   1.568   1.815  13.762 -1.5088 -3.2252  1.5602
 2678TIP3    H229526   1.717   1.836  13.782 -1.9019  2.1381  0.3379
 2679TIP3   OH229527   6.399   3.110   1.594  0.2954 -0.5158  0.0304
 2679TIP3    H129528   6.426   3.057   1.669 -0.1801 -0.2107  0.4305
 2679TIP3    H229529   6.313   3.144   1.619 -0.4016 -1.3514 -1.1334
 2680TIP3   OH229530   5.178   0.932   4.255  0.1564 -0.5211  0.1119
 2680TIP3    H129531   5.119   0.890   4.317  0.2458  1.2528  1.4886
 2680TIP3    H229532   5.126   1.002   4.216  0.1615 -1.4762 -1.7343
 2681TIP3   OH229533   3.371   3.263  16.144 -1.1529  0.7550 -0.6660
 2681TIP3    H129534   3.278   3.263  16.121 -1.2898  1.9656 -0.1908
 2681TIP3    H229535   3.382   3.339  16.201  0.0041  0.2438 -0.1690
 2682TIP3   OH229536   4.322   6.089   1.119 -0.3374 -0.2636 -0.4818
 2682TIP3    H129537   4.380   6.127   1.184 -1.4086  0.3354  0.1531
 2682TIP3    H229538   4.284   6.012   1.162 -0.2970 -0.4297 -0.7446
 2683TIP3   OH229539   6.506   3.273  12.379 -0.3775 -0.2574  0.2619
 2683TIP3    H129540   6.536   3.341  12.319 -1.2897  0.5000  0.6410
 2683TIP3    H229541   6.585   3.224  12.401  0.0226 -0.3370 -1.2823
 2684TIP3   OH229542   4.177   3.456   2.953  0.1184 -0.2301 -0.2758
 2684TIP3    H129543   4.207   3.442   2.863  0.5817 -0.4658 -0.0923
 2684TIP3    H229544   4.082   3.454   2.947  0.1183 -2.5820 -0.4352
 2685TIP3   OH229545   6.565   1.408   4.424  0.0693  0.0481  0.1580
 2685TIP3    H129546   6.573   1.377   4.514 -0.0412 -1.5989 -0.3630
 2685TIP3    H229547   6.471   1.416   4.410 -0.0545 -1.8875 -0.4597
 2686TIP3   OH229548   4.421   6.381  14.818  0.3068  0.3358  0.8600
 2686TIP3    H129549   4.501   6.377  14.766  0.2439  0.1718  0.7729
 2686TIP3    H229550   4.437   6.321  14.891  1.0906  1.8943  2.0307
 2687TIP3   OH229551   1.077   5.658  16.126 -0.0967 -0.1628 -0.4061
 2687TIP3    H129552   1.088   5.714  16.203 -1.5460 -1.4928  0.8143
 2687TIP3    H229553   1.003   5.695  16.079  0.4422  0.3252 -0.8818
 2688TIP3   OH229554   6.669   1.637   0.386 -0.0289 -0.3770 -0.0021
 2688TIP3    H129555   6.595   1.606   0.438 -0.0904 -2.1918 -1.0989
 2688TIP3    H229556   6.711   1.558   0.354  1.9675  0.6253 -0.0411
 2689TIP3   OH229557   5.223   5.735   5.192  0.2168 -0.1117 -0.6531
 2689TIP3    H129558   5.152   5.784   5.233  1.0056  0.8940 -0.4550
 2689TIP3    H229559   5.202   5.735   5.098 -0.9930 -1.4388 -0.4314
 2690TIP3   OH229560   5.501   1.073   4.106 -0.2373  0.1842  0.2204
 2690TIP3    H129561   5.550   1.154   4.090  1.9116 -1.1577 -0.3555
 2690TIP3    H229562   5.549   1.030   4.176 -2.1131 -0.0626  1.4398
 2691TIP3   OH229563   2.399   3.271   1.917 -0.5492 -0.2935 -0.9535
 2691TIP3    H129564   2.471   3.332   1.901  0.0356 -0.6612  0.1807
 2691TIP3    H229565   2.424   3.224   1.996 -1.2492 -1.6402 -1.4996
 2692TIP3   OH229566   5.718   5.077  14.094 -0.0259  0.3818 -0.4426
 2692TIP3    H129567   5.720   4.986  14.066 -2.6081 -0.2723  1.1360
 2692TIP3    H229568   5.722   5.128  14.013  1.1730 -1.1069 -1.3674
 2693TIP3   OH229569   5.225   6.399   5.765  0.1918 -0.0492 -0.3539
 2693TIP3    H129570   5.316   6.426   5.765 -0.0610  0.9050  0.8418
 2693TIP3    H229571   5.206   6.379   5.857 -0.4247 -1.6336 -0.7844
 2694TIP3   OH229572   4.470   1.889   2.796  0.0128  0.7972  0.0878
 2694TIP3    H129573   4.423   1.810   2.821  0.5041  1.0731  2.0934
 2694TIP3    H229574   4.533   1.860   2.730 -2.4365  0.3224 -2.1991
 2695TIP3   OH229575   5.515   4.724  16.379 -0.1245 -0.1768 -0.0159
 2695TIP3    H129576   5.454   4.651  16.369 -1.3005  0.9789 -1.5601
 2695TIP3    H229577   5.503   4.752  16.470 -0.3743 -1.2534  0.3034
 2696TIP3   OH229578   4.714   4.332  11.249 -0.1612 -0.0275 -0.1949
 2696TIP3    H129579   4.789   4.391  11.240 -0.8557  0.7080 -1.3541
 2696TIP3    H229580   4.640   4.382  11.215 -0.6439 -1.8130 -1.9275
 2697TIP3   OH229581   2.056   4.514   3.249  0.0073 -0.3390 -0.1380
 2697TIP3    H129582   2.066   4.508   3.154 -0.8153  2.5055 -0.4934
 2697TIP3    H229583   2.091   4.600   3.272 -1.6984 -0.0870  1.8173
 2698TIP3   OH229584   4.332   3.963  11.567  0.0055 -1.0373 -0.4652
 2698TIP3    H129585   4.407   3.906  11.552 -0.4105 -1.7532  0.0835
 2698TIP3    H229586   4.263   3.926  11.512 -0.0317 -0.5639 -0.7389
 2699TIP3   OH229587   0.782   3.028   0.871  0.2388  0.0347  0.6022
 2699TIP3    H129588   0.766   3.122   0.885 -0.1441 -0.0254  0.6034
 2699TIP3    H229589   0.697   2.987   0.889  0.6261 -0.4092  1.4928
 2700TIP3   OH229590   4.664   6.658  11.638 -0.1073 -0.0188  0.4854
 2700TIP3    H129591   4.636   6.576  11.596  0.9410 -0.1968  0.1057
 2700TIP3    H229592   4.759   6.651  11.643  0.3070  2.1940 -1.7949
 2701TIP3   OH229593   0.848   0.337  16.690 -0.1492 -0.3278  0.1086
 2701TIP3    H129594   0.789   0.405  16.656 -0.1315 -0.2770  0.1795
 2701TIP3    H229595   0.889   0.300  16.611  0.9768  0.7756  0.1478
 2702TIP3   OH229596   5.711   5.713   1.552  0.0240  0.4431  0.5488
 2702TIP3    H129597   5.782   5.652   1.574  0.4113  0.5115 -0.4621
 2702TIP3    H229598   5.740   5.797   1.588  0.2211  0.3593  0.5877
 2703TIP3   OH229599   2.998   2.722  16.210 -0.2038 -0.2177 -0.3363
 2703TIP3    H129600   3.041   2.639  16.232  1.8834  1.0897  0.8956
 2703TIP3    H229601   3.065   2.769  16.159 -0.6680  1.3869  0.4975
 2704TIP3   OH229602   2.844   5.053   3.836  0.0366  0.9803 -0.0089
 2704TIP3    H129603   2.934   5.085   3.823  0.5108  0.4691  1.7056
 2704TIP3    H229604   2.791   5.104   3.774  1.4766  1.4048 -0.9431
 2705TIP3   OH229605   5.889   4.118  13.663  0.5468  0.0611 -0.5978
 2705TIP3    H129606   5.946   4.042  13.666  0.9771  0.3312 -1.4803
 2705TIP3    H229607   5.910   4.161  13.580 -0.3205  0.6513 -0.5329
 2706TIP3   OH229608   5.025   1.801  16.676 -0.7220 -0.7270  0.0121
 2706TIP3    H129609   5.100   1.776  16.731  1.9324  2.8295 -1.5879
 2706TIP3    H229610   4.966   1.847  16.736 -0.7201 -1.8432  0.9130
 2707TIP3   OH229611   6.518   4.582   3.452 -0.7835  0.1979  0.1475
 2707TIP3    H129612   6.590   4.521   3.466 -1.5972 -0.7894  0.1747
 2707TIP3    H229613   6.552   4.667   3.480  0.2040 -0.3302  0.5900
 2708TIP3   OH229614   2.562   2.244   1.304  0.1495 -0.9378 -0.5582
 2708TIP3    H129615   2.476   2.281   1.324  0.4266 -1.0356  0.9712
 2708TIP3    H229616   2.545   2.150   1.294  0.2577 -1.1739  1.1842
 2709TIP3   OH229617   1.361   2.554  15.418  0.0390 -0.3310 -0.5089
 2709TIP3    H129618   1.292   2.531  15.356 -0.8329 -0.7294  0.5805
 2709TIP3    H229619   1.358   2.486  15.485 -0.0588  0.8841  0.7780
 2710TIP3   OH229620   4.475   0.276   1.956 -0.5093  0.7205 -0.2739
 2710TIP3    H129621   4.524   0.358   1.963  2.0692 -0.7910  0.9931
 2710TIP3    H229622   4.499   0.227   2.035 -3.3595 -0.6043 -0.0735
 2711TIP3   OH229623   3.732   3.671   1.077 -0.0598 -0.3682  0.0670
 2711TIP3    H129624   3.675   3.605   1.037 -0.9964  0.2765  0.2840
 2711TIP3    H229625   3.734   3.647   1.170  0.1588 -0.4887  0.0305
 2712TIP3   OH229626   3.788   5.325  13.815  0.4012  0.0530 -0.6429
 2712TIP3    H129627   3.792   5.404  13.868 -1.4298  0.6612 -1.3195
 2712TIP3    H229628   3.879   5.303  13.797  0.9575  1.6547  0.0578
 2713TIP3   OH229629   2.408   1.868  11.449  0.4548  0.1128 -0.0030
 2713TIP3    H129630   2.457   1.805  11.503  0.3475 -0.2204 -0.2949
 2713TIP3    H229631   2.323   1.827  11.435  0.5862  0.0615 -0.6796
 2714TIP3   OH229632   5.550   3.664   1.500 -0.3279 -0.3712  0.2895
 2714TIP3    H129633   5.523   3.624   1.417 -1.7713 -0.3192  0.7070
 2714TIP3    H229634   5.589   3.593   1.550 -1.1988 -0.8580  0.2996
 2715TIP3   OH229635   0.641   0.088  11.633 -0.4526 -0.2563  0.4816
 2715TIP3    H129636   0.706   0.157  11.629  0.2074 -0.8859  0.2267
 2715TIP3    H229637   0.610   0.089  11.724  0.2208 -0.2423  0.7108
 2716TIP3   OH229638   1.084   5.623  12.613  0.2004 -0.0604  0.0020
 2716TIP3    H129639   0.994   5.654  12.622 -0.0285 -0.5061 -0.6921
 2716TIP3    H229640   1.137   5.685  12.663 -0.2788  1.2632 -1.1043
 2717TIP3   OH229641   5.838   1.265  11.806 -0.0275 -0.1584  0.4591
 2717TIP3    H129642   5.918   1.218  11.783 -0.5768 -0.3351 -1.1719
 2717TIP3    H229643   5.790   1.275  11.724 -1.5100  0.3009  1.3255
 2718TIP3   OH229644   4.397   6.101  15.162 -0.2018  0.1935 -0.0751
 2718TIP3    H129645   4.489   6.081  15.143  0.4114  1.7066  1.1002
 2718TIP3    H229646   4.351   6.083  15.079  0.8401 -2.0992 -0.2434
 2719TIP3   OH229647   2.854   0.697  11.340  0.0426 -0.1226 -0.0043
 2719TIP3    H129648   2.789   0.761  11.368  0.0950  0.4607 -1.1402
 2719TIP3    H229649   2.932   0.719  11.391  0.0354  0.6955 -0.3171
 2720TIP3   OH229650   3.152   5.129   0.960  0.3996  0.5156 -0.3802
 2720TIP3    H129651   3.212   5.147   0.888 -0.7211 -0.8111 -1.6821
 2720TIP3    H229652   3.190   5.178   1.034  3.2101 -0.4641 -1.0407
 2721TIP3   OH229653   2.236   4.879  16.180  0.0947  0.3360  0.1587
 2721TIP3    H129654   2.331   4.880  16.195  0.3485  0.5378 -1.2621
 2721TIP3    H229655   2.224   4.814  16.111 -0.9736 -0.6449  1.2539
 2722TIP3   OH229656   1.303   5.713  15.480 -0.1742  0.6040  0.0453
 2722TIP3    H129657   1.310   5.620  15.460 -3.2855  0.4755 -0.8828
 2722TIP3    H229658   1.394   5.743  15.484  0.9109 -1.9494 -2.1692
 2723TIP3   OH229659   2.350   5.782  11.255  0.0432 -0.1005  0.1485
 2723TIP3    H129660   2.432   5.796  11.302  0.3834 -0.4485 -0.3254
 2723TIP3    H229661   2.329   5.690  11.269  0.1309 -0.2009 -0.3439
 2724TIP3   OH229662   1.963   2.046   6.052  0.2178  0.6938 -0.1902
 2724TIP3    H129663   1.983   1.953   6.059 -3.7607 -0.3760 -0.8654
 2724TIP3    H229664   2.049   2.089   6.053  2.1510 -2.7970  1.6330
 2725TIP3   OH229665   2.619   0.819   0.040  0.2485 -0.6923  0.9450
 2725TIP3    H129666   2.612   0.900  -0.010  0.9259 -1.3800 -0.3246
 2725TIP3    H229667   2.613   0.846   0.131 -0.8550  0.6284  0.5108
 2726TIP3   OH229668   0.701   0.280   2.440 -0.5167  0.1905 -0.1273
 2726TIP3    H129669   0.771   0.241   2.493 -1.0583 -0.0782  0.4038
 2726TIP3    H229670   0.622   0.266   2.492 -1.2291 -1.0187 -1.4611
 2727TIP3   OH229671   6.117   6.084   1.082  0.5278 -0.1023 -1.0879
 2727TIP3    H129672   6.197   6.090   1.135 -0.7547  1.9500  0.7927
 2727TIP3    H229673   6.059   6.026   1.132  0.6141 -1.1565 -2.1740
 2728TIP3   OH229674   4.384   5.170  14.528  0.1896 -0.0632  0.3495
 2728TIP3    H129675   4.471   5.183  14.565 -0.1255  1.9218  0.4923
 2728TIP3    H229676   4.335   5.249  14.552 -0.9724 -0.1046 -1.6245
 2729TIP3   OH229677   6.333   4.414  16.916  0.4807  0.3733  0.0484
 2729TIP3    H129678   6.306   4.502  16.941  0.6511  0.2323  0.7839
 2729TIP3    H229679   6.402   4.392  16.978  1.5672  0.3329 -1.1439
 2730TIP3   OH229680   6.593   2.423   0.786 -0.3888 -0.3954 -0.4268
 2730TIP3    H129681   6.558   2.471   0.862 -2.8078 -2.4713 -0.1160
 2730TIP3    H229682   6.682   2.399   0.812  0.0094  1.6910  0.3794
 2731TIP3   OH229683   0.476   4.957   2.669  0.3032 -0.3302  0.3509
 2731TIP3    H129684   0.554   4.915   2.633  0.2813 -0.2986  0.2670
 2731TIP3    H229685   0.451   5.022   2.604  1.4697  1.1678  1.3351
 2732TIP3   OH229686   5.318   5.575   6.194  0.1349 -0.2926  0.6603
 2732TIP3    H129687   5.319   5.489   6.237  0.2973 -1.6739 -1.9096
 2732TIP3    H229688   5.231   5.609   6.212 -0.8289 -2.1236 -0.2405
 2733TIP3   OH229689   0.633   5.637   1.088  0.3238  0.0510 -0.1688
 2733TIP3    H129690   0.577   5.617   1.163 -1.1003 -1.4503 -1.5724
 2733TIP3    H229691   0.579   5.692   1.032  1.9290  2.5255  0.5546
 2734TIP3   OH229692   0.366   2.832   1.113  0.3963 -0.4769  0.5003
 2734TIP3    H129693   0.381   2.865   1.024  0.1464  1.6176  1.1873
 2734TIP3    H229694   0.451   2.843   1.157  0.5761 -1.6986  0.5019
 2735TIP3   OH229695   0.857   2.627  11.020 -0.1696 -0.1002 -0.4179
 2735TIP3    H129696   0.944   2.668  11.017 -1.1253  2.0155 -2.4043
 2735TIP3    H229697   0.860   2.560  10.952  0.1328 -0.6107  0.0856
 2736TIP3   OH229698   5.714   5.815   4.003  0.0583  0.3223  0.1866
 2736TIP3    H129699   5.698   5.730   3.961  0.8162 -0.2600  1.0437
 2736TIP3    H229700   5.666   5.811   4.085 -0.7844  1.1583 -0.2504
 2737TIP3   OH229701   1.189   2.652   4.255 -0.3398 -0.1169  0.2529
 2737TIP3    H129702   1.271   2.604   4.242 -0.6834 -0.5800 -0.2315
 2737TIP3    H229703   1.121   2.596   4.217 -0.9496  0.0394  1.0828
 2738TIP3   OH229704   0.858   0.283  16.994 -0.2591  0.0153  0.0918
 2738TIP3    H129705   0.886   0.279  16.902  2.9508  0.5017  0.9171
 2738TIP3    H229706   0.840   0.192  17.017 -0.7719 -0.1535 -0.9032
 2739TIP3   OH229707   6.527   4.226  10.564  0.1449 -0.3967 -0.0384
 2739TIP3    H129708   6.516   4.288  10.492  0.7651 -0.2257  0.0126
 2739TIP3    H229709   6.505   4.141  10.525 -1.2957 -0.0943  0.0459
 2740TIP3   OH229710   2.880   2.602  13.982  0.1234 -0.8720 -0.4286
 2740TIP3    H129711   2.880   2.694  14.009 -0.8677 -0.6261 -1.2099
 2740TIP3    H229712   2.959   2.593  13.928  0.8603 -0.7921  0.6099
 2741TIP3   OH229713   0.068   1.434   4.462  0.1997  0.1734  0.1578
 2741TIP3    H129714   0.075   1.379   4.540 -1.8948 -0.2879  0.0649
 2741TIP3    H229715   0.017   1.510   4.491 -1.4342 -0.4567 -0.9481
 2742TIP3   OH229716   0.335   0.370   1.038  0.0923  0.1661 -0.0764
 2742TIP3    H129717   0.243   0.378   1.065  0.6812 -0.7526  2.4754
 2742TIP3    H229718   0.379   0.441   1.085  0.6403  1.0552 -1.8400
 2743TIP3   OH229719   3.950   2.658   5.214 -0.0899  0.3391 -0.3347
 2743TIP3    H129720   3.868   2.642   5.168 -0.2226  0.3559 -0.1014
 2743TIP3    H229721   3.936   2.623   5.302  0.4708 -0.5304 -0.5724
 2744TIP3   OH229722   1.565   1.655   5.958  0.5849  0.2304  0.3864
 2744TIP3    H129723   1.524   1.574   5.987 -0.9462  1.1491  0.9289
 2744TIP3    H229724   1.617   1.630   5.882 -0.3972 -1.1476  0.1329
 2745TIP3   OH229725   2.351   2.321  12.099  0.2013 -0.3364 -0.0588
 2745TIP3    H129726   2.446   2.324  12.084  0.5742 -1.9481  1.5464
 2745TIP3    H229727   2.313   2.364  12.023  2.2135  0.0896 -0.8880
 2746TIP3   OH229728   2.352   4.237  15.905 -0.3451  0.3008  0.1529
 2746TIP3    H129729   2.396   4.154  15.923 -2.4084 -0.8128  0.3979
 2746TIP3    H229730   2.368   4.253  15.812  2.7204  1.3583  0.7325
 2747TIP3   OH229731   5.925   4.358   5.002 -0.1255  0.3898  0.2371
 2747TIP3    H129732   5.994   4.299   4.972 -0.5583  0.0955 -0.2039
 2747TIP3    H229733   5.872   4.304   5.062  0.3609  0.7855  1.0375
 2748TIP3   OH229734   1.013   3.511   2.953 -0.0337 -0.2481  0.1500
 2748TIP3    H129735   0.923   3.536   2.933  0.0850 -1.0376 -1.5645
 2748TIP3    H229736   1.018   3.512   3.049 -1.6570  0.4468  0.2588
 2749TIP3   OH229737   4.373   6.355   4.612 -0.1405  0.1146 -0.4465
 2749TIP3    H129738   4.321   6.283   4.574 -1.7613  0.5705  0.7906
 2749TIP3    H229739   4.338   6.434   4.571  0.3511  0.3624 -0.3988
 2750TIP3   OH229740   0.762   3.107  16.269  0.4550 -0.4644  0.2641
 2750TIP3    H129741   0.779   3.082  16.178  1.1872 -1.3015  0.6178
 2750TIP3    H229742   0.667   3.094  16.280 -0.1577  2.1268 -1.0879
 2751TIP3   OH229743   2.286   0.774   0.122  0.0124 -0.1619  0.5718
 2751TIP3    H129744   2.219   0.775   0.190  0.7528 -1.3878  1.3738
 2751TIP3    H229745   2.357   0.828   0.156  1.2355 -2.3783  1.7709
 2752TIP3   OH229746   4.773   4.085   0.784  0.1175 -0.5183 -0.0211
 2752TIP3    H129747   4.696   4.033   0.763  0.4464 -0.9646 -0.1288
 2752TIP3    H229748   4.834   4.023   0.824 -0.0733  0.0907  1.2517
 2753TIP3   OH229749   5.411   1.447  12.116 -0.0597 -0.0920 -0.4917
 2753TIP3    H129750   5.483   1.501  12.084 -1.8002  2.7613  0.0281
 2753TIP3    H229751   5.408   1.466  12.210 -0.3820 -1.5929 -0.1803
 2754TIP3   OH229752   5.499   3.611  16.661  0.3189 -0.4770  0.2185
 2754TIP3    H129753   5.410   3.618  16.697 -0.5794 -0.4298 -1.8558
 2754TIP3    H229754   5.524   3.702  16.644  1.4434 -0.3581  2.1956
 2755TIP3   OH229755   3.694   3.854  12.089 -0.1724  0.0848  0.0612
 2755TIP3    H129756   3.708   3.948  12.101 -0.1941  0.2030 -0.7523
 2755TIP3    H229757   3.782   3.817  12.081 -0.1664  0.0469  0.2992
 2756TIP3   OH229758   1.155   2.531   3.396  0.1648 -0.5027 -0.0944
 2756TIP3    H129759   1.149   2.568   3.484  2.5026  0.0190 -0.0913
 2756TIP3    H229760   1.158   2.608   3.338 -0.4793 -0.8303 -0.5789
 2757TIP3   OH229761   5.883   0.280   5.576  0.3107  0.4738  0.5528
 2757TIP3    H129762   5.943   0.341   5.533 -1.4456  0.6629 -1.8753
 2757TIP3    H229763   5.808   0.334   5.601 -0.6582 -0.3849 -0.3519
 2758TIP3   OH229764   6.129   5.224   3.306 -0.7050 -0.5528  0.3876
 2758TIP3    H129765   6.082   5.297   3.265  0.6443  0.6265  0.8508
 2758TIP3    H229766   6.151   5.165   3.234  0.9122  1.0775 -0.5289
 2759TIP3   OH229767   2.200   3.572  12.022 -0.6771 -0.3393 -0.2527
 2759TIP3    H129768   2.214   3.615  11.938  0.6214  2.6603  1.3380
 2759TIP3    H229769   2.288   3.550  12.053 -1.0117 -0.0024  0.9891
 2760TIP3   OH229770   6.100   2.906   1.902  0.7009  0.5961 -0.4949
 2760TIP3    H129771   6.019   2.947   1.931  1.2176  2.4899 -1.5694
 2760TIP3    H229772   6.166   2.935   1.965  0.9211  0.7536 -0.7940
 2761TIP3   OH229773   2.799   0.728  10.620  0.1683 -0.4570 -0.2784
 2761TIP3    H129774   2.719   0.771  10.650  0.5994  0.2223 -0.0924
 2761TIP3    H229775   2.782   0.635  10.636 -0.4825 -0.3013 -0.0007
 2762TIP3   OH229776   5.614   0.179   2.543 -0.4582 -0.0132 -0.4578
 2762TIP3    H129777   5.660   0.101   2.573 -0.9493 -1.3028 -2.8479
 2762TIP3    H229778   5.636   0.186   2.450 -0.3457  2.7991 -0.3273
 2763TIP3   OH229779   4.144   5.350   1.705 -0.2800  0.3562 -1.1055
 2763TIP3    H129780   4.155   5.265   1.748 -0.7552  0.2154 -1.2527
 2763TIP3    H229781   4.063   5.341   1.655 -0.0230  0.7049 -1.5897
 2764TIP3   OH229782   2.022   3.904  15.291  0.4508 -0.5404  0.3030
 2764TIP3    H129783   2.102   3.940  15.253  0.4133 -0.3210  0.4339
 2764TIP3    H229784   1.990   3.842  15.224 -1.4123  2.2368 -1.5915
 2765TIP3   OH229785   4.927   6.084   3.201  0.2785  0.6859  0.1435
 2765TIP3    H129786   4.865   6.097   3.130  0.7962 -0.9507 -0.6738
 2765TIP3    H229787   4.978   6.165   3.204  0.6239  0.5761 -1.7590
 2766TIP3   OH229788   1.028   1.435   5.076 -0.0133  0.3429  0.0109
 2766TIP3    H129789   1.070   1.500   5.020  1.5094 -1.4079 -0.9843
 2766TIP3    H229790   0.987   1.487   5.146  1.7568  2.3270 -0.3160
 2767TIP3   OH229791   6.081   1.677  12.631  0.2933  0.2444 -0.5219
 2767TIP3    H129792   6.072   1.595  12.678 -1.4437  0.3914 -0.5284
 2767TIP3    H229793   6.042   1.743  12.689  0.0139  0.7563 -1.2674
 2768TIP3   OH229794   0.984   6.763  15.165  0.1536 -0.1520 -0.5280
 2768TIP3    H129795   0.954   6.682  15.124  2.1144 -0.7790 -0.8138
 2768TIP3    H229796   1.029   6.811  15.095 -1.7569  1.6688 -0.6075
 2769TIP3   OH229797   4.052   5.026  12.987 -0.2494  0.5215  0.1568
 2769TIP3    H129798   3.970   5.074  12.977  0.5480  1.8220 -0.5590
 2769TIP3    H229799   4.027   4.942  13.026 -1.8326  1.1036  0.4700
 2770TIP3   OH229800   2.968   5.424  15.905  0.1598 -0.1624 -0.1258
 2770TIP3    H129801   2.930   5.440  15.991  0.6827  1.8886 -0.2212
 2770TIP3    H229802   3.060   5.446  15.915  0.5300 -1.3100 -0.8684
 2771TIP3   OH229803   5.483   0.826  12.768 -0.1273 -0.2244  0.0501
 2771TIP3    H129804   5.575   0.844  12.790 -0.2414 -1.0078  1.2439
 2771TIP3    H229805   5.446   0.787  12.847 -2.0785  2.0135  0.3564
 2772TIP3   OH229806   1.099   4.600  12.212  0.1244  0.2971  0.0584
 2772TIP3    H129807   1.047   4.534  12.165  0.0896 -0.4628  1.1319
 2772TIP3    H229808   1.036   4.669  12.232 -0.1677  0.0154  0.1347
 2773TIP3   OH229809   0.929   0.615   4.734 -0.0953  0.2482 -0.1955
 2773TIP3    H129810   0.979   0.567   4.668 -0.3172  0.8909 -0.8389
 2773TIP3    H229811   0.989   0.622   4.809  0.4002  0.1095 -0.5720
 2774TIP3   OH229812   1.268   2.996  14.222  0.3232  0.1151 -0.2782
 2774TIP3    H129813   1.188   2.989  14.274  0.4374 -1.6754 -0.2859
 2774TIP3    H229814   1.326   3.051  14.274 -0.9956  1.7388 -0.4352
 2775TIP3   OH229815   6.198   3.771   5.505  0.0698 -0.1359 -0.0478
 2775TIP3    H129816   6.270   3.830   5.525  0.4902 -0.3623 -0.8265
 2775TIP3    H229817   6.138   3.779   5.579  0.1438  1.2160 -0.1141
 2776TIP3   OH229818   1.483   4.544  13.194  0.0738  0.5918  0.4068
 2776TIP3    H129819   1.416   4.514  13.133  0.6770  1.2498 -0.6122
 2776TIP3    H229820   1.492   4.638  13.176  0.3204  0.7874  1.4656
 2777TIP3   OH229821   3.031   1.828  14.524 -0.1772  0.4678 -0.4016
 2777TIP3    H129822   2.941   1.799  14.538 -0.1424 -0.0661 -1.1946
 2777TIP3    H229823   3.076   1.807  14.606 -0.9262  1.3843  0.2616
 2778TIP3   OH229824   0.600   4.590   2.901 -0.4120  0.0254 -0.8300
 2778TIP3    H129825   0.640   4.673   2.873  0.7578 -0.7551 -1.5557
 2778TIP3    H229826   0.524   4.580   2.843 -0.0167  0.1439 -1.3833
 2779TIP3   OH229827   1.183   6.081  15.393  0.2104  0.0023  0.5409
 2779TIP3    H129828   1.176   6.065  15.298  0.4332 -0.1808  0.5559
 2779TIP3    H229829   1.276   6.096  15.408  0.2009 -0.1626  0.7619
 2780TIP3   OH229830   3.663   5.035  16.247  0.5257 -0.3117  0.2485
 2780TIP3    H129831   3.749   5.063  16.280 -0.3205  1.5865  0.9316
 2780TIP3    H229832   3.619   5.116  16.222 -0.7727 -1.3269 -0.9070
 2781TIP3   OH229833   2.990   3.018   5.907  0.2220 -0.5447  0.0943
 2781TIP3    H129834   2.960   3.044   5.994 -0.3142 -0.9948  0.0470
 2781TIP3    H229835   2.972   2.924   5.902  2.1133 -0.9487  0.2481
 2782TIP3   OH229836   1.262   2.984   2.136 -0.0155  0.9165  0.2812
 2782TIP3    H129837   1.307   2.983   2.051  1.1941  0.3617  0.9008
 2782TIP3    H229838   1.278   3.072   2.170  1.5004  0.4311  0.9260
 2783TIP3   OH229839   2.885   6.355  10.995 -0.9976 -0.5257  0.4507
 2783TIP3    H129840   2.821   6.387  10.931 -1.3823  0.4610  1.2933
 2783TIP3    H229841   2.964   6.407  10.977 -0.8390 -0.8365  0.2433
 2784TIP3   OH229842   5.696   0.487   4.218  0.2750  0.6031 -0.3875
 2784TIP3    H129843   5.765   0.550   4.199  2.3940 -1.8892 -1.7040
 2784TIP3    H229844   5.648   0.478   4.135 -0.1962  0.7110 -0.1284
 2785TIP3   OH229845   3.694   6.683  12.037  1.0663 -0.3257 -0.0965
 2785TIP3    H129846   3.715   6.721  11.952 -1.2413  0.4352 -0.4011
 2785TIP3    H229847   3.609   6.642  12.025  0.9488 -0.7090  1.7045
 2786TIP3   OH229848   0.194   5.857  17.032 -0.0752  0.1797  0.4443
 2786TIP3    H129849   0.270   5.862  16.974  0.8148  0.9503  1.6576
 2786TIP3    H229850   0.215   5.787  17.094  0.5559  1.7096  2.0222
 2787TIP3   OH229851   1.482   5.275   4.415 -0.5415  0.5328 -0.5689
 2787TIP3    H129852   1.440   5.198   4.378 -1.3357  0.2040  0.9570
 2787TIP3    H229853   1.414   5.316   4.469  0.0872  1.8984 -0.7742
 2788TIP3   OH229854   6.488   2.307  16.743 -0.0061  0.9439  0.5077
 2788TIP3    H129855   6.496   2.388  16.795 -0.5975  1.5365 -0.2877
 2788TIP3    H229856   6.431   2.332  16.670  1.0365  0.2128 -0.5830
 2789TIP3   OH229857   6.644   3.213  15.671 -0.6830  0.4109  0.0444
 2789TIP3    H129858   6.720   3.252  15.713 -0.8660  0.6737  0.1322
 2789TIP3    H229859   6.619   3.141  15.729  0.0312 -0.2463 -0.4370
 2790TIP3   OH229860   4.161   0.594   4.390  0.7975  0.4208  0.2723
 2790TIP3    H129861   4.238   0.612   4.337  0.1593 -0.2288 -0.9085
 2790TIP3    H229862   4.093   0.651   4.355  0.3395 -0.0861  0.3093
 2791TIP3   OH229863   0.223   6.492  17.120  0.1332 -0.1564  0.7125
 2791TIP3    H129864   0.302   6.539  17.091  1.8404 -1.8148  2.3860
 2791TIP3    H229865   0.161   6.561  17.143  0.7960  1.2040 -1.2955
 2792TIP3   OH229866   5.989   6.210  11.293 -0.3795 -0.1406  0.3191
 2792TIP3    H129867   5.991   6.115  11.295  0.1783 -0.1469 -0.4882
 2792TIP3    H229868   6.054   6.235  11.228  0.5083  0.8474  1.5363
 2793TIP3   OH229869   5.880   5.908  14.477  0.3005  0.2532 -0.2434
 2793TIP3    H129870   5.925   5.933  14.558 -1.8050 -1.0964  1.4659
 2793TIP3    H229871   5.811   5.973  14.466 -0.3499 -0.4043 -0.1116
 2794TIP3   OH229872   0.315   0.341  11.682  0.3814 -0.2386 -0.2955
 2794TIP3    H129873   0.392   0.397  11.695  0.3085 -0.5794  2.0330
 2794TIP3    H229874   0.257   0.363  11.755 -0.7192 -1.6104 -0.7160
 2795TIP3   OH229875   5.894   2.935  16.262  0.5364  0.1195  0.2591
 2795TIP3    H129876   5.890   2.856  16.209 -0.4591  0.3264 -0.0104
 2795TIP3    H229877   5.845   3.000  16.211  1.6373  1.0133  0.3096
 2796TIP3   OH229878   3.636   3.258   0.636  0.0264 -0.8659 -0.1732
 2796TIP3    H129879   3.724   3.286   0.609 -0.8053  2.3187 -0.0069
 2796TIP3    H229880   3.640   3.163   0.635  3.4048 -0.8465 -0.3899
 2797TIP3   OH229881   3.515   1.980   4.893  1.0048 -1.0147  1.2632
 2797TIP3    H129882   3.425   2.001   4.918  0.0930 -1.8467 -1.0070
 2797TIP3    H229883   3.544   2.055   4.841  0.1868 -2.2495 -1.1502
 2798TIP3   OH229884   5.429   1.149   4.946 -0.5138 -0.7876  0.1911
 2798TIP3    H129885   5.350   1.106   4.912  1.0180 -1.7723 -2.3647
 2798TIP3    H229886   5.489   1.077   4.966  0.3743  0.0010  0.4444
 2799TIP3   OH229887   6.634   5.013   2.984  0.3179 -0.2018 -0.1771
 2799TIP3    H129888   6.597   5.088   3.030  1.3846  0.5279 -0.4720
 2799TIP3    H229889   6.725   5.010   3.013 -0.3318 -3.0960  2.0102
 2800TIP3   OH229890   2.669   3.383  13.574  0.4663  0.0180 -0.0061
 2800TIP3    H129891   2.712   3.469  13.579  0.8830 -0.2378  1.1040
 2800TIP3    H229892   2.687   3.342  13.659 -0.9064 -0.6182  0.0058
 2801TIP3   OH229893   0.716   3.542   1.266 -0.3970 -0.1919  0.3982
 2801TIP3    H129894   0.803   3.541   1.307 -0.1461 -2.3478 -0.0762
 2801TIP3    H229895   0.734   3.540   1.172 -0.9891  1.4313  0.2179
 2802TIP3   OH229896   2.844   6.132   4.828  0.2579 -0.1796  0.2959
 2802TIP3    H129897   2.793   6.203   4.866 -0.2288 -0.2823 -0.1585
 2802TIP3    H229898   2.875   6.082   4.903 -0.8565 -0.4983  0.5629
 2803TIP3   OH229899   1.960   0.340   2.487 -0.6983  0.3297  0.4969
 2803TIP3    H129900   1.923   0.267   2.437 -0.0203  0.2068  0.1525
 2803TIP3    H229901   2.055   0.325   2.484 -0.5383  1.2963  0.3112
 2804TIP3   OH229902   2.014   0.777  15.577  0.1047 -0.7200 -0.2152
 2804TIP3    H129903   2.025   0.717  15.651 -1.6429  0.3978  1.0311
 2804TIP3    H229904   1.963   0.728  15.513  2.4668 -2.0416 -1.1867
 2805TIP3   OH229905   4.317   4.461   2.865 -0.5238 -0.7638 -0.4609
 2805TIP3    H129906   4.385   4.413   2.912 -1.2735 -2.1251 -0.7121
 2805TIP3    H229907   4.261   4.497   2.935 -0.0874 -0.4231 -0.2789
 2806TIP3   OH229908   5.041   4.377   4.790 -0.4139  0.0248  0.2559
 2806TIP3    H129909   4.999   4.462   4.794  0.4027  0.5206 -1.1968
 2806TIP3    H229910   5.092   4.378   4.709  1.2201 -1.0849  1.2044
 2807TIP3   OH229911   3.670   1.849  16.776 -0.0332  0.0339  0.3130
 2807TIP3    H129912   3.607   1.840  16.705  2.1451 -1.3934 -1.5835
 2807TIP3    H229913   3.730   1.918  16.746  0.7388 -0.3549  0.9254
 2808TIP3   OH229914   2.174   3.597  12.432 -0.2642 -0.1030  0.3167
 2808TIP3    H129915   2.224   3.541  12.492  1.3295  1.4618  0.5360
 2808TIP3    H229916   2.127   3.658  12.489  1.7970  1.8450  0.1047
 2809TIP3   OH229917   1.314   1.963  14.692 -0.3848  0.4871 -0.5787
 2809TIP3    H129918   1.247   2.025  14.662  1.4523  2.1864 -1.3493
 2809TIP3    H229919   1.353   1.929  14.611  0.9069  0.9173 -0.1491
 2810TIP3   OH229920   4.338   0.171   5.488 -0.0807 -0.1687  0.2949
 2810TIP3    H129921   4.403   0.223   5.440 -0.7125 -0.2100 -0.6278
 2810TIP3    H229922   4.335   0.210   5.575  0.2553  0.6350 -0.0459
 2811TIP3   OH229923   2.265   0.959  15.590  0.2392 -0.0091 -0.2388
 2811TIP3    H129924   2.222   0.874  15.581  0.2648  0.0368 -0.8695
 2811TIP3    H229925   2.221   1.000  15.664 -0.7441 -0.0095 -0.7948
 2812TIP3   OH229926   0.431   4.185   4.116  0.2005 -0.6763 -0.2722
 2812TIP3    H129927   0.395   4.116   4.060 -0.1209 -0.2627 -0.5767
 2812TIP3    H229928   0.421   4.151   4.205 -0.7676 -0.6496 -0.3620
 2813TIP3   OH229929   4.018   4.011   2.359 -0.2273  0.1641  0.2306
 2813TIP3    H129930   4.087   3.950   2.386 -0.6709 -0.0344  0.9371
 2813TIP3    H229931   4.008   4.070   2.433 -0.7631  0.2396  0.1039
 2814TIP3   OH229932   0.438   3.651  16.915  0.0250 -0.1868 -0.5707
 2814TIP3    H129933   0.501   3.722  16.902 -0.1689 -0.3909 -3.0604
 2814TIP3    H229934   0.364   3.674  16.859 -1.5405 -0.6850  1.1896
 2815TIP3   OH229935   4.921   5.490  10.955 -0.0804 -0.3519  0.1050
 2815TIP3    H129936   4.909   5.558  11.022 -0.2693 -0.7354  0.4634
 2815TIP3    H229937   4.834   5.478  10.917  0.2318  0.6439 -0.9863
 2816TIP3   OH229938   5.356   2.739  14.675 -0.5057 -0.2028 -0.6334
 2816TIP3    H129939   5.405   2.793  14.737 -0.2278 -0.3018 -0.7638
 2816TIP3    H229940   5.399   2.755  14.591 -2.7209  2.2986 -1.4260
 2817TIP3   OH229941   2.494   5.733  15.038  0.0950  0.2375  0.1051
 2817TIP3    H129942   2.456   5.717  14.951 -1.5337 -0.7150  0.9335
 2817TIP3    H229943   2.465   5.822  15.060 -0.1565  0.1863 -0.0110
 2818TIP3   OH229944   5.073   0.169   6.056  0.2420  0.5706 -0.1219
 2818TIP3    H129945   5.022   0.093   6.028  1.4875  0.2071 -1.5826
 2818TIP3    H229946   5.010   0.241   6.062 -0.4825  0.0832 -1.5852
 2819TIP3   OH229947   3.733   4.331  15.598 -0.8380 -0.5827 -0.0921
 2819TIP3    H129948   3.790   4.363  15.667  0.9802 -0.1091 -1.7276
 2819TIP3    H229949   3.770   4.367  15.517 -3.4719 -0.2331 -1.2661
 2820TIP3   OH229950   2.216   1.652  12.611  0.2101 -0.7001 -0.2278
 2820TIP3    H129951   2.287   1.697  12.657 -0.4100 -0.7634  0.8403
 2820TIP3    H229952   2.136   1.687  12.650 -0.3465 -0.7792 -1.2678
 2821TIP3   OH229953   6.747   1.170  12.872 -0.2577  0.0947 -0.7444
 2821TIP3    H129954   6.830   1.210  12.847 -0.4631  1.7483  0.9726
 2821TIP3    H229955   6.693   1.243  12.903 -1.9876 -1.0681 -0.8315
 2822TIP3   OH229956   5.111   5.575   5.385  0.4312  0.0491  0.0420
 2822TIP3    H129957   5.020   5.591   5.362 -0.1787 -0.8515  1.6547
 2822TIP3    H229958   5.161   5.604   5.309 -1.2093  0.3569 -0.9576
 2823TIP3   OH229959   2.355   2.682   6.310  0.1021 -0.0055 -0.5505
 2823TIP3    H129960   2.430   2.624   6.300  1.1042  1.1554  0.0207
 2823TIP3    H229961   2.388   2.768   6.285 -0.9905  0.5623 -0.0982
 2824TIP3   OH229962   5.802   1.831   1.633 -0.0679 -0.0183 -0.4134
 2824TIP3    H129963   5.770   1.803   1.547 -1.7668  1.3566 -0.2818
 2824TIP3    H229964   5.819   1.749   1.679 -1.0433 -0.7987 -1.3769
 2825TIP3   OH229965   1.990   2.585   1.411 -0.0707  0.1926  0.0801
 2825TIP3    H129966   2.065   2.602   1.353 -1.0034  0.5737 -1.0659
 2825TIP3    H229967   1.938   2.520   1.363 -1.1565  0.9462  0.2122
 2826TIP3   OH229968   0.104   6.327  15.670 -0.4060 -0.0487  0.3448
 2826TIP3    H129969   0.136   6.412  15.642  0.1245 -1.1248 -2.7343
 2826TIP3    H229970   0.023   6.314  15.620 -2.2968 -0.0821  3.2016
 2827TIP3   OH229971   3.096   1.402   3.963  0.3691  0.4343  0.7412
 2827TIP3    H129972   3.165   1.380   3.901 -0.4847 -0.0058 -0.0968
 2827TIP3    H229973   3.074   1.494   3.943 -1.0398 -0.1803 -0.8168
 2828TIP3   OH229974   2.724   1.761  12.240 -0.0807  0.0145  0.3316
 2828TIP3    H129975   2.660   1.833  12.237 -0.7086 -0.4126  2.2659
 2828TIP3    H229976   2.808   1.804  12.225 -0.7071  0.6492 -1.8766
 2829TIP3   OH229977   1.684   0.670   5.916  0.0340 -0.1672 -0.0793
 2829TIP3    H129978   1.598   0.703   5.942 -0.1158 -0.1668 -0.5779
 2829TIP3    H229979   1.666   0.605   5.848  0.4946  0.9127 -1.2807
 2830TIP3   OH229980   3.387   1.027  11.563  0.3840  0.3006  0.3656
 2830TIP3    H129981   3.419   0.972  11.492  1.0289 -1.1389  1.7141
 2830TIP3    H229982   3.296   1.045  11.540  1.0519  1.3998 -1.6930
 2831TIP3   OH229983   5.734   1.777   0.886 -0.3371  0.6253 -0.3066
 2831TIP3    H129984   5.723   1.768   0.791  1.4878  2.8544 -0.8083
 2831TIP3    H229985   5.824   1.807   0.897  0.0071 -1.0373  2.2958
 2832TIP3   OH229986   3.568   5.082   1.264  0.3153  0.0452 -0.1633
 2832TIP3    H129987   3.484   5.100   1.222  0.3569  0.5716 -0.0280
 2832TIP3    H229988   3.633   5.110   1.200  0.3787  1.2520  0.4074
 2833TIP3   OH229989   3.368   5.097  12.743 -0.2335 -0.3825  0.2604
 2833TIP3    H129990   3.295   5.154  12.766 -0.0561 -1.5096  4.4163
 2833TIP3    H229991   3.446   5.143  12.773  0.5146 -0.5245 -1.3375
 2834TIP3   OH229992   2.498   3.378  16.672  0.1473 -0.1849 -0.4552
 2834TIP3    H129993   2.512   3.293  16.630  0.9196 -0.3714  0.1505
 2834TIP3    H229994   2.587   3.413  16.684 -0.1744  1.0199 -1.3085
 2835TIP3   OH229995   1.218   1.894  14.182 -0.1722  0.1607 -0.6797
 2835TIP3    H129996   1.193   1.804  14.165 -0.4273 -0.2954  1.6947
 2835TIP3    H229997   1.183   1.944  14.108  1.8698 -1.8637 -3.2143
 2836TIP3   OH229998   4.285   1.182  16.086  0.3362  0.1353  0.0330
 2836TIP3    H129999   4.257   1.272  16.105  0.9765  0.3721 -0.0959
 2836TIP3    H230000   4.245   1.161  16.002  2.9092  1.5998 -1.7217
 2837TIP3   OH230001   2.015   6.336   5.403  0.0012  0.2360 -0.0682
 2837TIP3    H130002   2.061   6.313   5.484  0.3741 -0.5845 -0.5095
 2837TIP3    H230003   2.051   6.422   5.379  1.3746 -0.4209 -0.4424
 2838TIP3   OH230004   4.788   2.906   4.842 -0.4503  0.3310 -0.3699
 2838TIP3    H130005   4.792   2.939   4.932  0.0306  0.1915 -0.3400
 2838TIP3    H230006   4.751   2.978   4.792 -2.7074 -0.2879  0.2851
 2839TIP3   OH230007   5.435   6.663   4.040 -0.0036 -0.0863  0.1594
 2839TIP3    H130008   5.469   6.627   3.958 -1.1811 -0.5890 -0.1293
 2839TIP3    H230009   5.340   6.661   4.030 -0.1964 -0.5856  1.7123
 2840TIP3   OH230010   6.348   3.174  15.137  0.0830 -0.0146 -0.0885
 2840TIP3    H130011   6.336   3.086  15.100 -0.6605  0.5122 -1.1601
 2840TIP3    H230012   6.260   3.202  15.160  0.2523  0.6512 -0.2398
 2841TIP3   OH230013   2.537   4.674  11.798  0.0818 -0.3201  0.3406
 2841TIP3    H130014   2.605   4.681  11.731 -0.6940 -0.9503 -0.5347
 2841TIP3    H230015   2.471   4.616  11.760 -0.3924 -0.6793  1.6423
 2842TIP3   OH230016   2.318   2.354   5.615 -0.5624  0.1363 -0.5996
 2842TIP3    H130017   2.327   2.259   5.613 -0.8134  0.1137 -0.6635
 2842TIP3    H230018   2.405   2.387   5.591  0.2699 -0.0529  1.8302
 2843TIP3   OH230019   6.248   5.648  15.655  0.6253  0.1245  0.6965
 2843TIP3    H130020   6.274   5.579  15.716 -1.6274 -0.5889  0.9223
 2843TIP3    H230021   6.171   5.613  15.610 -1.6736  3.0406  2.0229
 2844TIP3   OH230022   4.155   1.870   1.375 -0.1127 -0.4179 -0.3180
 2844TIP3    H130023   4.154   1.775   1.387  1.8404 -0.5241 -0.6360
 2844TIP3    H230024   4.094   1.904   1.442  2.2998 -1.6473  2.7564
 2845TIP3   OH230025   3.093   6.551   2.454 -0.4201  0.1593 -0.3228
 2845TIP3    H130026   3.109   6.622   2.516 -0.9096  0.4659 -0.5385
 2845TIP3    H230027   2.998   6.548   2.444 -0.6015 -1.9705  1.3248
 2846TIP3   OH230028   0.260   0.696  15.979 -0.1014  0.0858 -0.3309
 2846TIP3    H130029   0.208   0.646  15.916 -0.2217 -1.0085  0.6155
 2846TIP3    H230030   0.302   0.630  16.034  1.9268  0.9465 -0.7515
 2847TIP3   OH230031   4.865   5.016   2.539 -0.3210 -0.3136 -0.0993
 2847TIP3    H130032   4.911   4.990   2.619 -0.2958  0.1959  0.0573
 2847TIP3    H230033   4.811   4.940   2.517 -0.9671 -0.1514  0.8782
 2848TIP3   OH230034   5.914   4.903   4.564  0.1748  0.1911  0.1815
 2848TIP3    H130035   6.010   4.902   4.573  0.2902 -0.0479 -0.9211
 2848TIP3    H230036   5.887   4.988   4.598  0.6918 -0.0353  1.2175
 2849TIP3   OH230037   0.707   0.419   2.997  0.4245  0.2314  0.3156
 2849TIP3    H130038   0.676   0.419   3.088 -0.5681 -0.5286 -0.0045
 2849TIP3    H230039   0.791   0.372   3.001  2.7016  3.9590  1.5005
 2850TIP3   OH230040   0.467   3.467  12.033  0.4317 -0.0739 -0.1538
 2850TIP3    H130041   0.397   3.510  11.983 -0.1393  0.1529  0.7946
 2850TIP3    H230042   0.501   3.399  11.975 -0.6032 -0.2082 -0.6234
 2851TIP3   OH230043   3.053   5.867   4.469  0.2061  0.6489 -0.0684
 2851TIP3    H130044   2.961   5.874   4.445  0.8768  3.0949 -2.3068
 2851TIP3    H230045   3.092   5.816   4.398  1.0200  2.0336 -0.6489
 2852TIP3   OH230046   2.561   4.835   2.128  0.5747 -0.4074 -0.2251
 2852TIP3    H130047   2.537   4.893   2.200  1.0871 -0.7939  0.2620
 2852TIP3    H230048   2.634   4.880   2.084 -0.4012  0.3279 -1.1509
 2853TIP3   OH230049   3.567   3.287   2.965  0.1004  0.3450 -0.0935
 2853TIP3    H130050   3.607   3.358   2.915 -0.1042  0.5008 -0.0397
 2853TIP3    H230051   3.478   3.281   2.930 -0.6109  1.5771  1.3503
 2854TIP3   OH230052   2.039   5.914  15.602 -0.0168  0.0231 -0.0523
 2854TIP3    H130053   2.047   5.961  15.519 -1.0838  1.9684  0.8770
 2854TIP3    H230054   2.087   5.968  15.665 -0.2275 -0.7802  0.8193
 2855TIP3   OH230055   1.435   3.354   3.845  0.1644  0.5016 -0.4803
 2855TIP3    H130056   1.451   3.390   3.932 -1.2427  0.6685 -0.2767
 2855TIP3    H230057   1.407   3.264   3.861  0.6542  0.2783 -0.8232
 2856TIP3   OH230058   2.741   4.927   1.457  0.6870 -0.3970  0.1441
 2856TIP3    H130059   2.750   4.964   1.369  1.4323  1.4526  0.9401
 2856TIP3    H230060   2.812   4.862   1.462  0.6920 -0.4617 -0.5683
 2857TIP3   OH230061   5.080   6.619   4.224 -0.3082 -0.7297  0.0379
 2857TIP3    H130062   5.048   6.551   4.284 -0.3272 -0.4165  0.3835
 2857TIP3    H230063   5.016   6.690   4.233 -0.0567 -0.4999 -0.0098
 2858TIP3   OH230064   4.557   4.131   6.098  0.1572  0.1663  0.4208
 2858TIP3    H130065   4.646   4.122   6.132  0.0465  2.0383  1.3467
 2858TIP3    H230066   4.551   4.066   6.028  3.2443  1.9252 -1.7047
 2859TIP3   OH230067   2.659   0.184   1.152 -0.2740  0.1527  0.2681
 2859TIP3    H130068   2.675   0.253   1.216 -1.5510  0.6056  0.1431
 2859TIP3    H230069   2.600   0.123   1.196 -0.7831  0.2245 -0.2838
 2860TIP3   OH230070   5.760   6.810   1.117  0.3470  0.0964  0.0527
 2860TIP3    H130071   5.768   6.892   1.165  0.6816  0.1266 -0.0561
 2860TIP3    H230072   5.757   6.836   1.025  0.6287 -0.0248  0.0089
 2861TIP3   OH230073   1.510   1.942   0.125 -0.0491 -0.1766 -0.7759
 2861TIP3    H130074   1.433   1.994   0.103  0.2585  0.9725  0.7017
 2861TIP3    H230075   1.521   1.882   0.051 -1.8346  0.2234 -1.4062
 2862TIP3   OH230076   6.491   0.526  14.590 -0.4034 -0.0767 -0.6176
 2862TIP3    H130077   6.414   0.560  14.635  0.3344 -0.3751  0.9385
 2862TIP3    H230078   6.497   0.578  14.510 -1.0543  1.3349  0.2130
 2863TIP3   OH230079   0.669   0.407   4.409 -0.4705 -0.2391  0.2268
 2863TIP3    H130080   0.690   0.313   4.407 -0.1077 -0.1553  0.0055
 2863TIP3    H230081   0.637   0.426   4.321  0.6522  0.1087 -0.1291
 2864TIP3   OH230082   2.769   6.203  10.718 -0.3778  0.2397 -0.4616
 2864TIP3    H130083   2.755   6.291  10.752  1.1771  0.3875 -0.1109
 2864TIP3    H230084   2.745   6.209  10.625 -1.2629  0.7528 -0.2097
 2865TIP3   OH230085   2.671   5.328   3.227 -0.7823 -0.0101  0.7404
 2865TIP3    H130086   2.625   5.412   3.225  0.4155  0.6584  0.3095
 2865TIP3    H230087   2.615   5.270   3.175 -0.3777  1.2087 -1.1704
 2866TIP3   OH230088   1.902   0.985  17.097  0.3652  0.4000 -0.5784
 2866TIP3    H130089   1.839   0.914  17.097 -0.7625  1.3554  0.2677
 2866TIP3    H230090   1.937   0.986  17.187 -1.5761  2.4955  0.2635
 2867TIP3   OH230091   3.897   6.580   3.498  0.5345 -0.0937  0.5631
 2867TIP3    H130092   3.958   6.650   3.522  0.1381 -0.0420  1.4741
 2867TIP3    H230093   3.830   6.582   3.567  0.4894 -1.3312  0.5844
 2868TIP3   OH230094   1.239   6.088  13.982 -0.4432  0.2455  0.2505
 2868TIP3    H130095   1.253   6.119  13.893 -1.8502 -0.5659 -0.2751
 2868TIP3    H230096   1.261   5.995  13.979 -1.3180  0.0245  0.5432
 2869TIP3   OH230097   4.692   5.657   4.779  0.2118  0.7169 -0.6842
 2869TIP3    H130098   4.602   5.688   4.764  0.2928  1.7945  0.8086
 2869TIP3    H230099   4.684   5.562   4.785 -0.9427  0.8475  0.1029
 2870TIP3   OH230100   6.058   3.874  12.842  0.0911  0.1200  0.6005
 2870TIP3    H130101   6.080   3.937  12.773  0.6468 -0.2921  0.3961
 2870TIP3    H230102   6.091   3.915  12.922  4.0053 -1.5116  0.0550
 2871TIP3   OH230103   2.292   6.287   4.601  0.3085  0.1549 -0.2849
 2871TIP3    H130104   2.372   6.242   4.574  0.5675  0.7662 -0.5380
 2871TIP3    H230105   2.225   6.217   4.601  0.4739 -0.0464 -1.7208
 2872TIP3   OH230106   2.413   2.109  10.867 -0.1053  0.1193  0.0682
 2872TIP3    H130107   2.341   2.163  10.834  1.0244  1.6590  0.0039
 2872TIP3    H230108   2.370   2.038  10.915 -1.6534  0.9223 -0.0715
 2873TIP3   OH230109   0.260   6.137  16.635 -0.0083 -0.5744  0.1242
 2873TIP3    H130110   0.179   6.187  16.621  0.0867 -0.7166 -1.0873
 2873TIP3    H230111   0.252   6.063  16.574  0.4297 -1.3407  0.9777
 2874TIP3   OH230112   3.957   6.504   5.426  0.2762  0.0665  0.2415
 2874TIP3    H130113   3.983   6.526   5.515  0.5957  2.0529 -0.2925
 2874TIP3    H230114   3.861   6.507   5.428  0.2699 -0.2354  0.5759
 2875TIP3   OH230115   0.488   2.034   6.290 -0.7213 -0.3390  0.3723
 2875TIP3    H130116   0.438   2.071   6.218  0.3870  0.0313 -0.2278
 2875TIP3    H230117   0.506   1.944   6.263 -0.5038 -0.2705  0.2850
 2876TIP3   OH230118   1.233   1.625  12.264  0.2086  0.2412  0.2699
 2876TIP3    H130119   1.299   1.686  12.295 -0.4403  0.4555  1.2759
 2876TIP3    H230120   1.153   1.678  12.257  0.1423  0.0030 -0.9820
 2877TIP3   OH230121   3.125   4.095   6.557  0.2326  0.1979 -0.0819
 2877TIP3    H130122   3.127   4.174   6.610 -0.3839 -0.4313  0.9107
 2877TIP3    H230123   3.046   4.049   6.585 -0.3644  0.0382 -1.8645
 2878TIP3   OH230124   1.865   1.389  10.912 -0.1001  0.2334  0.3334
 2878TIP3    H130125   1.801   1.327  10.879  1.9357 -1.8565  0.0541
 2878TIP3    H230126   1.833   1.412  11.000 -1.8774  0.3346 -0.2974
 2879TIP3   OH230127   2.983   1.346  13.725  0.0922 -0.3298 -0.5718
 2879TIP3    H130128   3.074   1.339  13.753 -1.1557 -1.1573  4.0132
 2879TIP3    H230129   2.974   1.279  13.657  2.6002 -1.0832 -0.2636
 2880TIP3   OH230130   3.547   0.531   2.241  0.0564 -0.4964 -0.1666
 2880TIP3    H130131   3.584   0.558   2.325  3.0209  0.4981 -1.6501
 2880TIP3    H230132   3.577   0.441   2.229  0.9781 -0.1168 -0.8107
 2881TIP3   OH230133   0.381   5.238  13.924 -0.5404 -0.2176  0.2314
 2881TIP3    H130134   0.417   5.223  14.012 -0.7647  0.9356  0.5400
 2881TIP3    H230135   0.445   5.199  13.865 -0.4911 -1.2045  0.9112
 2882TIP3   OH230136   4.704   0.600  16.752 -0.1015  0.3456 -0.4882
 2882TIP3    H130137   4.680   0.631  16.839 -2.5728 -0.1562 -0.9189
 2882TIP3    H230138   4.655   0.656  16.692  0.8672  0.1081 -1.5281
 2883TIP3   OH230139   5.548   4.233   5.125 -0.4100  0.2642  0.6312
 2883TIP3    H130140   5.462   4.238   5.168 -0.9394  0.8539 -0.4580
 2883TIP3    H230141   5.610   4.261   5.193 -0.7555 -2.5338  2.2227
 2884TIP3   OH230142   6.419   1.199   3.296 -0.2263  0.7268 -0.2519
 2884TIP3    H130143   6.428   1.258   3.221 -2.4627  1.5282  0.0448
 2884TIP3    H230144   6.343   1.231   3.344  0.1305 -0.7768  1.4651
 2885TIP3   OH230145   5.375   3.398  14.461  0.2720  0.2451 -0.3219
 2885TIP3    H130146   5.453   3.443  14.494  0.8196 -0.0673 -1.1582
 2885TIP3    H230147   5.355   3.332  14.528  1.9185 -1.0185 -1.0030
 2886TIP3   OH230148   3.405   4.968  15.086 -0.1420 -0.1789 -0.1291
 2886TIP3    H130149   3.385   5.049  15.133 -0.2331 -0.9143  1.1464
 2886TIP3    H230150   3.490   4.940  15.122  0.3724 -0.1508 -1.2680
 2887TIP3   OH230151   2.125   4.628   2.786 -0.9912 -0.2280  0.3679
 2887TIP3    H130152   2.070   4.562   2.743  0.0206 -0.2375 -0.9745
 2887TIP3    H230153   2.213   4.590   2.787 -0.4535  0.9319 -0.1289
 2888TIP3   OH230154   2.833   2.009  16.371 -0.1159 -0.4939 -0.2608
 2888TIP3    H130155   2.817   2.092  16.325 -0.7152 -0.7043 -0.4462
 2888TIP3    H230156   2.856   2.035  16.460 -1.3322 -0.1506 -0.0307
 2889TIP3   OH230157   0.622   5.662  17.107 -0.3297 -0.5596  0.4446
 2889TIP3    H130158   0.587   5.733  17.161 -0.5682  1.9458 -2.7559
 2889TIP3    H230159   0.717   5.671  17.114 -0.2868 -1.6747  2.0374
 2890TIP3   OH230160   5.110   4.370  16.590  0.6142 -0.0304  0.2008
 2890TIP3    H130161   5.024   4.351  16.554 -0.0801  0.7842  1.3722
 2890TIP3    H230162   5.160   4.403  16.515 -0.2500 -0.0155 -0.3816
 2891TIP3   OH230163   2.578   0.171  11.075  0.3368 -0.3785  0.1255
 2891TIP3    H130164   2.533   0.214  11.148 -1.1035 -1.0899 -0.3109
 2891TIP3    H230165   2.554   0.223  10.998 -0.4211 -1.2208 -0.2252
 2892TIP3   OH230166   5.546   0.554  12.132  0.4773  0.0943 -0.1229
 2892TIP3    H130167   5.638   0.544  12.108 -0.1394 -1.4884 -2.1292
 2892TIP3    H230168   5.543   0.635  12.183  2.6055  1.4961 -2.0337
 2893TIP3   OH230169   3.510   4.091  14.015 -0.6861  0.3052  0.4872
 2893TIP3    H130170   3.457   4.023  13.975 -1.3432  0.8876  0.3467
 2893TIP3    H230171   3.600   4.068  13.992 -0.7665 -1.2699  1.6170
 2894TIP3   OH230172   6.562   4.357  14.473  0.3496 -0.0193 -0.4025
 2894TIP3    H130173   6.498   4.361  14.544 -0.2697  0.4086 -0.9764
 2894TIP3    H230174   6.550   4.439  14.425  0.2752 -0.5986 -1.4126
 2895TIP3   OH230175   3.283   4.298   2.100 -0.0877  0.1988 -0.2664
 2895TIP3    H130176   3.377   4.305   2.085  0.0773 -1.7913 -0.4307
 2895TIP3    H230177   3.265   4.360   2.171  1.5354 -0.2041  0.5375
 2896TIP3   OH230178   5.197   6.505  11.271 -0.3568 -0.2044  0.1517
 2896TIP3    H130179   5.122   6.478  11.219 -0.4872  0.5575 -0.0595
 2896TIP3    H230180   5.271   6.458  11.232 -0.9683 -2.6524  1.6588
 2897TIP3   OH230181   6.113   2.325  15.196 -0.1719 -0.7677  0.1305
 2897TIP3    H130182   6.191   2.355  15.149  0.3467 -1.3902  0.5766
 2897TIP3    H230183   6.046   2.317  15.128  0.2670 -0.6261 -0.3269
 2898TIP3   OH230184   4.569   2.337  16.814  0.4760  0.3191  0.2454
 2898TIP3    H130185   4.659   2.342  16.780  1.0979 -0.0011  1.7633
 2898TIP3    H230186   4.560   2.246  16.843 -0.7870  0.0066 -0.9808
 2899TIP3   OH230187   3.749   4.203   1.766 -0.0691  0.1543 -0.5591
 2899TIP3    H130188   3.824   4.161   1.808 -0.7662  0.2884  0.9007
 2899TIP3    H230189   3.787   4.264   1.703  1.1116  1.1144  1.0083
 2900TIP3   OH230190   5.873   6.375  11.755  0.3569  0.1065 -0.5591
 2900TIP3    H130191   5.885   6.466  11.728  2.1180 -0.8134 -3.2487
 2900TIP3    H230192   5.782   6.355  11.731 -0.4334  1.4003  1.1190
 2901TIP3   OH230193   2.707   0.074   4.831 -0.6466 -0.0588 -0.2781
 2901TIP3    H130194   2.615   0.053   4.847 -0.1241 -0.8469  2.1384
 2901TIP3    H230195   2.749   0.061   4.916  1.9747 -1.2270 -1.6465
 2902TIP3   OH230196   0.745   4.593  13.957 -0.1156 -0.0146 -0.8926
 2902TIP3    H130197   0.734   4.659  14.026  2.0111  0.8518 -1.3002
 2902TIP3    H230198   0.704   4.515  13.993  0.2202  0.6301  1.0517
 2903TIP3   OH230199   6.243   1.094   1.906 -0.0909 -0.1929 -0.2634
 2903TIP3    H130200   6.326   1.093   1.858  0.0100 -0.7864 -0.0826
 2903TIP3    H230201   6.267   1.123   1.994 -0.1693  0.2148 -0.3744
 2904TIP3   OH230202   0.949   4.695  12.618  0.2006 -0.2222  0.7092
 2904TIP3    H130203   0.863   4.656  12.604  0.8231 -1.1613 -0.8570
 2904TIP3    H230204   0.951   4.771  12.559  0.5342 -0.3645  0.5327
 2905TIP3   OH230205   4.061   4.149   3.289 -0.0310  0.4790 -0.0186
 2905TIP3    H130206   3.967   4.139   3.309  0.5401 -0.2892  2.7829
 2905TIP3    H230207   4.085   4.233   3.328  0.6127  0.2504  0.0896
 2906TIP3   OH230208   0.102   1.718  12.055 -0.5483  0.0381  0.0914
 2906TIP3    H130209   0.035   1.664  12.097  1.0628 -3.6158 -1.5640
 2906TIP3    H230210   0.185   1.682  12.086  0.6765  2.0228 -0.6680
 2907TIP3   OH230211   1.068   0.368  14.837 -0.4333  0.1883 -0.3897
 2907TIP3    H130212   1.161   0.353  14.822 -0.4815  0.6894 -1.2933
 2907TIP3    H230213   1.032   0.384  14.750 -1.3369  0.1826 -0.0335
 2908TIP3   OH230214   0.967   0.188  14.138  0.5433 -0.1008 -0.0032
 2908TIP3    H130215   0.903   0.258  14.147  0.7958 -0.0612  1.7832
 2908TIP3    H230216   1.034   0.207  14.204  1.7091 -0.8830 -0.9108
 2909TIP3   OH230217   0.311   6.587  11.182 -0.3900  0.2528 -0.2283
 2909TIP3    H130218   0.253   6.612  11.111 -0.6142  2.2496  0.5806
 2909TIP3    H230219   0.394   6.566  11.139 -0.5848  1.2029 -1.0943
 2910TIP3   OH230220   3.662   3.499  10.861 -0.9378 -0.6050 -0.2117
 2910TIP3    H130221   3.619   3.483  10.946 -1.1198 -0.5413 -0.2906
 2910TIP3    H230222   3.655   3.415  10.815 -0.8998 -0.6198 -0.1903
 2911TIP3   OH230223   5.960   1.872  12.258  0.0431  0.0088 -0.3555
 2911TIP3    H130224   5.906   1.799  12.287  0.1701  0.2071  0.4117
 2911TIP3    H230225   5.929   1.946  12.310 -0.4959  0.6513 -1.5463
 2912TIP3   OH230226   4.415   1.562   5.021 -0.3122 -0.1532  0.4333
 2912TIP3    H130227   4.324   1.566   4.989 -0.7331  0.2911  1.6452
 2912TIP3    H230228   4.446   1.477   4.991 -1.3964 -0.6539  0.6480
 2913TIP3   OH230229   1.531   4.729  12.499  0.0290  0.3315  0.4235
 2913TIP3    H130230   1.503   4.787  12.429 -0.3880 -1.7130 -1.1878
 2913TIP3    H230231   1.474   4.750  12.573  0.6953  2.7459  0.3197
 2914TIP3   OH230232   1.549   6.435  16.517  0.0188 -0.3208 -0.5524
 2914TIP3    H130233   1.552   6.422  16.612  0.1169 -0.1565 -0.5321
 2914TIP3    H230234   1.481   6.375  16.487 -0.6981  0.3276 -0.2575
 2915TIP3   OH230235   6.519   0.197  16.767  0.1859  0.5911 -0.1784
 2915TIP3    H130236   6.440   0.195  16.822  0.3597 -0.9926  0.0531
 2915TIP3    H230237   6.556   0.284  16.782 -1.4136  1.3060 -0.1587
 2916TIP3   OH230238   2.180   5.618   1.545  0.0962 -0.1455 -0.0682
 2916TIP3    H130239   2.194   5.710   1.565  1.7775 -0.8829  2.6494
 2916TIP3    H230240   2.147   5.580   1.627 -1.9579 -1.7508 -1.5148
 2917TIP3   OH230241   6.179   5.505   2.483 -0.0854  0.0326  0.6214
 2917TIP3    H130242   6.084   5.512   2.488 -0.1003  0.3927 -0.1290
 2917TIP3    H230243   6.197   5.413   2.505 -0.7623 -0.5679 -1.1591
 2918TIP3   OH230244   2.230   2.006   4.727 -0.1925  0.0937 -0.0391
 2918TIP3    H130245   2.236   1.977   4.818 -0.2802 -0.8848 -0.3298
 2918TIP3    H230246   2.197   1.929   4.680  0.8690  0.2416 -1.0686
 2919TIP3   OH230247   0.999   6.512   5.272  0.1034 -0.0286  0.2124
 2919TIP3    H130248   1.019   6.519   5.365 -1.2853  1.8523  0.4321
 2919TIP3    H230249   1.040   6.589   5.232 -0.3348 -0.1676 -0.5227
 2920TIP3   OH230250   3.554   2.630   1.301 -0.2102  0.0467  0.0848
 2920TIP3    H130251   3.565   2.706   1.245 -0.2621  1.2257  1.5944
 2920TIP3    H230252   3.618   2.642   1.371 -0.9189 -0.7524  0.9073
 2921TIP3   OH230253   5.132   3.451   3.095  0.1051 -0.7497  1.6352
 2921TIP3    H130254   5.096   3.538   3.079  0.4168 -0.6745  1.3244
 2921TIP3    H230255   5.218   3.452   3.051  0.5214 -0.8906  2.4303
 2922TIP3   OH230256   1.580   0.320   3.949 -0.2609 -0.1965 -0.1945
 2922TIP3    H130257   1.578   0.270   3.867  0.7039 -0.4108 -0.0978
 2922TIP3    H230258   1.645   0.274   4.003 -0.7054  0.0921  0.5977
 2923TIP3   OH230259   6.402   1.693  11.661 -0.0449  0.0824 -0.1415
 2923TIP3    H130260   6.456   1.682  11.739  1.1739 -0.4217 -1.0194
 2923TIP3    H230261   6.371   1.784  11.666  1.3661  0.5779  0.1194
 2924TIP3   OH230262   4.517   2.150   0.739  0.0208  0.0252 -0.3204
 2924TIP3    H130263   4.424   2.127   0.748 -0.4805  1.6865 -1.0277
 2924TIP3    H230264   4.539   2.192   0.822 -0.2733  0.9337 -0.6887
 2925TIP3   OH230265   4.629   3.034   2.975 -0.4640 -0.1157 -0.0056
 2925TIP3    H130266   4.694   3.028   3.045 -0.6082 -0.3513  0.1092
 2925TIP3    H230267   4.660   2.971   2.909 -2.2947 -2.7224  1.4558
 2926TIP3   OH230268   2.788   1.128  14.549 -0.0177 -0.1941  0.7136
 2926TIP3    H130269   2.730   1.105  14.621 -0.8783  2.3037  0.9139
 2926TIP3    H230270   2.868   1.160  14.592  0.6494 -1.4697  0.4702
 2927TIP3   OH230271   3.349   2.005  17.070 -0.0350  0.4419 -0.8587
 2927TIP3    H130272   3.370   1.999  16.977  0.4997 -4.4111 -0.6694
 2927TIP3    H230273   3.406   2.074  17.103 -0.6021  2.7129 -4.0735
 2928TIP3   OH230274   2.439   5.825  14.353 -0.5063  0.4231  0.8933
 2928TIP3    H130275   2.445   5.897  14.291  0.5763  0.1074  0.6104
 2928TIP3    H230276   2.423   5.748  14.299  0.1063  0.1959  1.0263
 2929TIP3   OH230277   5.441   0.635  12.574  0.1426 -0.1123 -0.6048
 2929TIP3    H130278   5.436   0.578  12.651 -1.3442 -0.2125 -0.7487
 2929TIP3    H230279   5.461   0.722  12.609  1.6800 -0.5510 -0.3224
 2930TIP3   OH230280   6.106   3.425  16.954 -0.1061  0.9233 -0.0750
 2930TIP3    H130281   6.108   3.336  16.990 -1.4490  0.3446 -1.3001
 2930TIP3    H230282   6.198   3.447  16.939  0.1843 -1.2500 -1.9870
 2931TIP3   OH230283   4.201   2.201  14.303 -0.0063  0.0692 -0.8534
 2931TIP3    H130284   4.219   2.120  14.350 -1.9030 -0.3490 -0.7586
 2931TIP3    H230285   4.259   2.198  14.227  0.3832 -1.0848 -0.5365
 2932TIP3   OH230286   1.199   3.325  15.806  0.4105 -0.2144 -0.3723
 2932TIP3    H130287   1.281   3.325  15.856  0.3369 -2.8844 -0.0982
 2932TIP3    H230288   1.131   3.325  15.873  0.2094  0.0287 -0.5729
 2933TIP3   OH230289   3.946   3.421   3.796  0.2642 -0.5190 -0.0126
 2933TIP3    H130290   3.870   3.408   3.853  1.5946 -0.7393  1.7962
 2933TIP3    H230291   3.917   3.392   3.709 -2.3752  1.3710  0.1148
 2934TIP3   OH230292   5.543   4.873   2.964  0.4805  0.1174 -0.0744
 2934TIP3    H130293   5.618   4.883   3.022 -1.0536 -1.1577  2.2965
 2934TIP3    H230294   5.519   4.962   2.938  2.0327  0.6073  0.1146
 2935TIP3   OH230295   6.788   3.997  12.548 -0.5679 -0.1118  0.1835
 2935TIP3    H130296   6.693   3.983  12.549 -0.4089 -1.2665  1.3687
 2935TIP3    H230297   6.811   4.011  12.639  0.3483  0.6987 -0.1544
 2936TIP3   OH230298   5.725   3.610   5.773 -0.2642 -0.1917 -0.5179
 2936TIP3    H130299   5.800   3.667   5.759  0.7075 -1.6300 -1.4803
 2936TIP3    H230300   5.716   3.606   5.868  0.8446  0.0730 -0.3833
 2937TIP3   OH230301   6.309   0.641  10.815  0.6767  0.2010 -0.4051
 2937TIP3    H130302   6.319   0.732  10.786  0.1321 -0.2066 -1.9569
 2937TIP3    H230303   6.215   0.630  10.827  0.7233 -0.1966 -0.3917
 2938TIP3   OH230304   1.878   6.528  13.194 -0.1302  0.2048 -0.4920
 2938TIP3    H130305   1.899   6.621  13.181  0.1269  0.1993 -0.1016
 2938TIP3    H230306   1.908   6.508  13.282  0.8457 -0.5438 -0.9770
 2939TIP3   OH230307   2.249   5.156  16.802 -0.2598  0.3145  0.3197
 2939TIP3    H130308   2.217   5.120  16.885 -0.3813  0.6626  0.4262
 2939TIP3    H230309   2.308   5.227  16.828  1.9622 -1.3645  0.1791
 2940TIP3   OH230310   2.591   1.124   1.243  0.6246  0.1902  0.0428
 2940TIP3    H130311   2.623   1.035   1.254  2.1912  0.6006 -0.9003
 2940TIP3    H230312   2.537   1.122   1.164 -1.7997 -0.4941  1.6130
 2941TIP3   OH230313   1.297   4.017  13.711  0.0756  0.0158 -0.2390
 2941TIP3    H130314   1.368   4.044  13.653 -0.6234  2.0521 -0.2001
 2941TIP3    H230315   1.286   3.923  13.693  1.6315  0.0297 -1.4485
 2942TIP3   OH230316   2.865   5.802   3.987  0.1445 -0.5808 -0.4734
 2942TIP3    H130317   2.806   5.875   3.967  1.5072  0.7324  0.1573
 2942TIP3    H230318   2.893   5.770   3.901 -0.9020 -0.7497 -0.7618
 2943TIP3   OH230319   6.217   1.342  10.940  0.1539  0.0746  0.1331
 2943TIP3    H130320   6.302   1.359  10.980  0.4378  0.0633 -0.4481
 2943TIP3    H230321   6.163   1.310  11.011  0.7274 -0.2077  0.4510
 2944TIP3   OH230322   6.195   3.801   0.671  0.2769  0.0196 -0.3123
 2944TIP3    H130323   6.113   3.821   0.717  0.8712 -1.0558  1.3148
 2944TIP3    H230324   6.257   3.781   0.741  1.8988  0.6063 -1.5202
 2945TIP3   OH230325   1.370   6.435   2.979 -0.1541  0.0883  0.0324
 2945TIP3    H130326   1.428   6.511   2.983 -0.4416  0.2973  0.2931
 2945TIP3    H230327   1.284   6.469   3.005 -0.6289  0.0092 -1.3493
 2946TIP3   OH230328   2.485   5.304  10.780  0.5790 -0.1371 -0.0958
 2946TIP3    H130329   2.571   5.334  10.808 -0.4928  1.3207  1.9925
 2946TIP3    H230330   2.451   5.375  10.725  0.1001  0.0904  0.4723
 2947TIP3   OH230331   3.714   1.633   0.353  0.2761 -0.5554  0.0478
 2947TIP3    H130332   3.765   1.613   0.431 -0.1971 -1.6704  0.0903
 2947TIP3    H230333   3.769   1.604   0.280 -0.0540 -1.2344  0.0653
 2948TIP3   OH230334   5.349   3.397   2.081  0.1524 -0.6120  0.7427
 2948TIP3    H130335   5.409   3.465   2.050  0.5971 -0.6856  1.4199
 2948TIP3    H230336   5.348   3.408   2.176  0.4068 -1.6951  0.8860
 2949TIP3   OH230337   6.227   2.300   5.204 -0.1427 -0.0351 -0.4960
 2949TIP3    H130338   6.283   2.275   5.277  1.5744  1.1233 -1.3625
 2949TIP3    H230339   6.141   2.314   5.244 -0.0582 -2.5085  0.7684
 2950TIP3   OH230340   0.186   2.575  16.652  0.2508  0.1939  0.2614
 2950TIP3    H130341   0.258   2.520  16.682  1.5876  1.6117 -0.2141
 2950TIP3    H230342   0.112   2.551  16.708  0.9525 -1.6115  0.4744
 2951TIP3   OH230343   6.659   5.181   1.476 -0.2791  0.8147 -0.2842
 2951TIP3    H130344   6.685   5.247   1.540 -0.0441  0.8283 -0.3918
 2951TIP3    H230345   6.620   5.231   1.404  0.0704  0.8530 -0.4496
 2952TIP3   OH230346   0.302   3.564  14.468  0.0239  0.0131 -0.0744
 2952TIP3    H130347   0.238   3.602  14.529  0.5068 -0.6146  0.8446
 2952TIP3    H230348   0.249   3.538  14.392 -1.1551 -2.0089  1.3242
 2953TIP3   OH230349   2.512   4.938   0.974 -0.6470 -0.3043  0.6875
 2953TIP3    H130350   2.604   4.929   0.948 -0.1220  2.5518  1.2806
 2953TIP3    H230351   2.468   4.973   0.897 -0.3568  2.1307  1.5430
 2954TIP3   OH230352   5.482   4.230  12.234  0.0935  0.2620  0.0542
 2954TIP3    H130353   5.444   4.151  12.272  1.6977  0.0483  1.3484
 2954TIP3    H230354   5.536   4.266  12.304  3.0421  0.0091 -1.9463
 2955TIP3   OH230355   4.211   0.875  14.889 -0.0794 -0.2896  0.3868
 2955TIP3    H130356   4.138   0.898  14.946  0.2874  3.5303 -0.4024
 2955TIP3    H230357   4.273   0.947  14.899  2.2391 -1.8957 -1.2453
 2956TIP3   OH230358   3.866   3.397   2.937 -0.3204 -0.3343  0.3302
 2956TIP3    H130359   3.855   3.420   2.845 -1.8620 -0.5825  0.4259
 2956TIP3    H230360   3.912   3.313   2.937 -1.0904 -0.7626 -0.2458
 2957TIP3   OH230361   4.094   6.226   1.032 -0.0305  0.8351 -0.0509
 2957TIP3    H130362   4.119   6.298   0.974  0.5955 -0.3208 -1.2380
 2957TIP3    H230363   4.176   6.199   1.073 -0.3270  1.0204  0.6850
 2958TIP3   OH230364   3.438   4.948  11.177 -0.6959  0.3816 -0.1626
 2958TIP3    H130365   3.470   4.867  11.136  0.8700  1.9168 -2.1740
 2958TIP3    H230366   3.346   4.953  11.150 -0.5963 -0.3573 -0.6804
 2959TIP3   OH230367   1.062   1.800  13.265  0.0652 -0.0960  0.1961
 2959TIP3    H130368   0.998   1.730  13.264 -1.6154  1.3695  0.3966
 2959TIP3    H230369   1.092   1.806  13.174 -0.9293 -0.0830 -0.1475
 2960TIP3   OH230370   0.132   1.670   1.504 -0.0035 -0.1190  0.0982
 2960TIP3    H130371   0.184   1.604   1.551  1.4751 -0.0538 -1.3676
 2960TIP3    H230372   0.060   1.620   1.466  0.7045 -0.7860 -0.4023
 2961TIP3   OH230373   3.929   0.335  16.387  0.0357 -0.0982  0.5155
 2961TIP3    H130374   3.848   0.370  16.349 -1.0583 -1.9740  0.9924
 2961TIP3    H230375   3.999   0.381  16.340 -1.2461 -1.0792 -2.6647
 2962TIP3   OH230376   5.524   1.352  16.677 -0.0626 -0.2918  0.4345
 2962TIP3    H130377   5.581   1.428  16.679  0.6868 -0.8480  0.5882
 2962TIP3    H230378   5.566   1.289  16.735 -1.1626 -0.4829  1.0523
 2963TIP3   OH230379   0.474   6.534   4.014  0.0510  0.2044  0.0126
 2963TIP3    H130380   0.558   6.543   4.058  0.7957 -3.0026 -0.5081
 2963TIP3    H230381   0.494   6.548   3.921  0.3368 -1.8787 -0.2699
 2964TIP3   OH230382   4.299   3.772  10.686  0.4085 -0.0034 -0.2554
 2964TIP3    H130383   4.316   3.679  10.698  2.0165  0.3867  0.8043
 2964TIP3    H230384   4.300   3.785  10.591 -1.3184 -1.2789 -0.4957
 2965TIP3   OH230385   2.557   4.721   1.840 -0.2276  0.0441  0.8358
 2965TIP3    H130386   2.534   4.641   1.886 -1.4659 -0.2578 -0.2666
 2965TIP3    H230387   2.479   4.776   1.845 -0.2921  0.1320 -0.5858
 2966TIP3   OH230388   3.064   2.809   4.696  0.4132  0.4829 -0.3795
 2966TIP3    H130389   3.009   2.758   4.755  0.9602  1.2292  0.8073
 2966TIP3    H230390   3.152   2.773   4.708  0.9996  2.2546  1.2167
 2967TIP3   OH230391   4.466   5.255   5.597 -0.2435 -0.2403  0.8967
 2967TIP3    H130392   4.494   5.346   5.599 -0.3713 -0.2003  3.1547
 2967TIP3    H230393   4.443   5.239   5.506  0.9060  1.6229  0.2268
 2968TIP3   OH230394   5.636   4.471   4.300  0.1547  0.3220  0.0873
 2968TIP3    H130395   5.657   4.498   4.211  1.6809  0.6630  0.5173
 2968TIP3    H230396   5.659   4.547   4.354 -2.7975  0.9403  0.6134
 2969TIP3   OH230397   3.576   0.261  16.485 -0.2890 -0.2345 -0.0452
 2969TIP3    H130398   3.530   0.327  16.537  1.1324 -0.1686  1.1906
 2969TIP3    H230399   3.556   0.178  16.529  0.2148 -0.2790  0.1077
 2970TIP3   OH230400   2.874   2.259   2.904  0.3784 -0.4819 -0.5781
 2970TIP3    H130401   2.905   2.349   2.912 -0.2380 -0.3086 -0.0657
 2970TIP3    H230402   2.875   2.241   2.810 -1.3173  0.7159 -0.8645
 2971TIP3   OH230403   0.359   0.586  14.422 -0.1150  0.3205  0.2066
 2971TIP3    H130404   0.399   0.576  14.336 -0.4221  0.2748  0.0692
 2971TIP3    H230405   0.354   0.497  14.457  1.6311  0.4921  1.0160
 2972TIP3   OH230406   2.800   2.666   1.155  0.2828  1.2380  0.2089
 2972TIP3    H130407   2.860   2.735   1.184 -0.2423  1.9569 -0.3740
 2972TIP3    H230408   2.753   2.639   1.234  0.5433  1.4969  0.4520
 2973TIP3   OH230409   1.888   6.575  15.787  0.2293  0.3450  0.4986
 2973TIP3    H130410   1.802   6.614  15.775  0.1319 -0.3385 -1.2640
 2973TIP3    H230411   1.941   6.645  15.825 -0.6644  1.2817  0.0773
 2974TIP3   OH230412   2.040   2.210  14.794  0.6332  0.3239  0.5165
 2974TIP3    H130413   1.982   2.200  14.718 -0.1365  1.5887  0.9158
 2974TIP3    H230414   1.982   2.204  14.870  1.1425  0.7473  0.9497
 2975TIP3   OH230415   2.182   5.928   2.642  0.4646  0.2110  0.5254
 2975TIP3    H130416   2.182   6.009   2.592  0.5226  1.4621  2.4445
 2975TIP3    H230417   2.256   5.937   2.702 -1.0456 -0.0738  2.5359
 2976TIP3   OH230418   2.999   3.042  14.110 -0.2534  0.4605  0.3609
 2976TIP3    H130419   2.989   2.950  14.085  1.0536  0.9161 -2.1853
 2976TIP3    H230420   3.051   3.039  14.191  0.5281 -1.0352 -0.1576
 2977TIP3   OH230421   1.162   0.736   0.646  0.2092 -0.9118 -0.2452
 2977TIP3    H130422   1.155   0.752   0.551 -2.1013 -2.1766 -0.3639
 2977TIP3    H230423   1.185   0.821   0.683 -0.1854 -0.0679 -1.8312
 2978TIP3   OH230424   5.693   3.740  12.128 -0.6566  0.2014  0.5736
 2978TIP3    H130425   5.726   3.662  12.173 -2.6310  0.6454  3.0596
 2978TIP3    H230426   5.765   3.803  12.135  1.4318 -1.5665 -2.4984
 2979TIP3   OH230427   3.142   3.058   1.450 -0.4719  0.0485  0.2194
 2979TIP3    H130428   3.183   3.141   1.427  1.2968 -0.5839  0.9378
 2979TIP3    H230429   3.193   2.992   1.404 -0.5427 -0.7781  1.2761
 2980TIP3   OH230430   5.880   6.534  13.022 -0.2372 -0.5415  0.1573
 2980TIP3    H130431   5.886   6.462  12.958  0.5415 -0.7329  0.4324
 2980TIP3    H230432   5.971   6.561  13.036 -0.4808  0.1090  0.4967
 2981TIP3   OH230433   5.803   6.227   0.278  0.6959 -0.1043  0.2332
 2981TIP3    H130434   5.794   6.150   0.222 -0.0649 -1.3319  1.9363
 2981TIP3    H230435   5.878   6.207   0.335  1.0152  0.8006  0.1558
 2982TIP3   OH230436   2.418   1.094  14.158  0.4126  0.2301  0.4377
 2982TIP3    H130437   2.481   1.093  14.230  0.7200  1.7087  0.2201
 2982TIP3    H230438   2.334   1.079  14.200  0.7877 -0.8584  0.8423
 2983TIP3   OH230439   4.233   0.025   1.711  0.0891 -0.4169  0.6508
 2983TIP3    H130440   4.145  -0.010   1.698 -0.6111  1.6520 -0.7501
 2983TIP3    H230441   4.292  -0.040   1.672 -1.0197 -0.7245 -0.5708
 2984TIP3   OH230442   6.436   1.502  13.090  0.1650  0.2460  0.4948
 2984TIP3    H130443   6.343   1.516  13.108 -0.6274 -2.4715 -0.8229
 2984TIP3    H230444   6.458   1.568  13.024 -0.2595  2.1521  2.1886
 2985TIP3   OH230445   4.017   4.292   1.044  0.2875  0.2541 -0.2089
 2985TIP3    H130446   4.048   4.322   0.959 -0.8133  3.0660  0.2838
 2985TIP3    H230447   3.992   4.372   1.090 -2.2369 -1.3986  1.5348
 2986TIP3   OH230448   2.447   4.212  13.734 -0.0750  0.5017  0.6274
 2986TIP3    H130449   2.458   4.268  13.657 -2.1634 -1.2494 -1.0933
 2986TIP3    H230450   2.374   4.251  13.782 -0.5969  0.0838  0.1901
 2987TIP3   OH230451   2.954   3.817  12.794 -0.2403 -0.4647 -0.4560
 2987TIP3    H130452   2.940   3.766  12.714  1.1666  1.1392 -1.8063
 2987TIP3    H230453   2.882   3.879  12.795  0.3441  0.2422 -1.1155
 2988TIP3   OH230454   2.727   6.777   3.539 -0.5302 -0.4014 -0.0718
 2988TIP3    H130455   2.661   6.846   3.540  0.8997  1.0128 -0.6398
 2988TIP3    H230456   2.678   6.699   3.511 -2.4530  0.0081  1.9100
 2989TIP3   OH230457   5.781   6.454  14.364  0.0035  0.1463  0.6753
 2989TIP3    H130458   5.766   6.497  14.448 -0.2623 -1.0912  1.2899
 2989TIP3    H230459   5.865   6.409  14.375  0.1612  0.2983  0.1327
 2990TIP3   OH230460   6.244   0.398   5.089 -0.1320 -0.4254  0.4195
 2990TIP3    H130461   6.225   0.377   4.997  0.7885  0.0131  0.1206
 2990TIP3    H230462   6.192   0.476   5.107 -1.7645 -1.5622  0.8454
 2991TIP3   OH230463   6.381   6.165  14.399  0.5359 -0.4745  0.3224
 2991TIP3    H130464   6.327   6.106  14.347  0.9741 -0.1988 -0.4676
 2991TIP3    H230465   6.391   6.121  14.484  1.1072 -1.6821 -0.3454
 2992TIP3   OH230466   5.075   2.817  12.087  0.0604 -0.1735  0.2041
 2992TIP3    H130467   5.125   2.892  12.121  2.1536 -0.4410 -2.0319
 2992TIP3    H230468   5.042   2.847  12.002 -1.9192 -0.7454  0.7073
 2993TIP3   OH230469   2.061   3.335  14.057  0.4776 -0.6221 -0.0852
 2993TIP3    H130470   2.131   3.400  14.048 -0.0272  0.1989  1.5068
 2993TIP3    H230471   2.105   3.256  14.089  0.9637 -0.8116 -1.1767
 2994TIP3   OH230472   5.252   5.406   2.657 -0.5678 -0.3085 -0.1536
 2994TIP3    H130473   5.200   5.450   2.590 -3.3518 -2.1399  0.6311
 2994TIP3    H230474   5.218   5.439   2.740  2.3614  1.4059  0.5013
 2995TIP3   OH230475   6.619   2.303  11.441 -0.4317 -0.6050  0.0689
 2995TIP3    H130476   6.650   2.288  11.352  0.4631 -1.4778  0.4982
 2995TIP3    H230477   6.689   2.355  11.482 -0.9640  0.0278  0.1813
 2996TIP3   OH230478   0.780   2.598  14.141  0.1950  0.0442  0.5921
 2996TIP3    H130479   0.875   2.606  14.151  0.3317  1.0099 -1.0387
 2996TIP3    H230480   0.747   2.687  14.149 -0.0559  0.3976 -2.8819
 2997TIP3   OH230481   0.431   1.769   5.077  0.1896  0.3044  0.2556
 2997TIP3    H130482   0.446   1.710   5.004 -1.3598 -0.4851  0.5305
 2997TIP3    H230483   0.479   1.730   5.150 -0.0535 -0.1140  0.1966
 2998TIP3   OH230484   1.239   0.809   4.547  0.0002 -0.4869 -0.4020
 2998TIP3    H130485   1.151   0.783   4.519 -0.2966  0.5685 -0.4572
 2998TIP3    H230486   1.281   0.841   4.467 -0.0395  0.3111 -0.1061
 2999TIP3   OH230487   6.398   3.198   5.927 -0.0042 -0.3763 -0.2063
 2999TIP3    H130488   6.466   3.219   5.864 -2.3176  0.8938 -2.4553
 2999TIP3    H230489   6.414   3.257   6.001  0.6862  0.6836 -1.1838
 3000TIP3   OH230490   3.153   6.600  12.933  0.0413 -0.0214 -0.0772
 3000TIP3    H130491   3.067   6.641  12.946  0.2278  0.5210 -0.5282
 3000TIP3    H230492   3.160   6.536  13.004  0.1055  1.2960  1.1435
 3001TIP3   OH230493   3.629   5.130  15.440 -0.4141 -0.1170 -0.1269
 3001TIP3    H130494   3.633   5.130  15.536 -2.2067 -2.2901  0.0114
 3001TIP3    H230495   3.538   5.151  15.419 -0.2605 -0.5671 -1.3266
 3002TIP3   OH230496   0.833   5.295   2.495  0.2125  0.4845 -0.1588
 3002TIP3    H130497   0.856   5.215   2.447 -2.1899 -0.6923  0.4872
 3002TIP3    H230498   0.902   5.304   2.561  1.0150 -0.5209 -0.8254
 3003TIP3   OH230499   1.943   4.718  11.276  0.7454  0.2541 -0.0308
 3003TIP3    H130500   1.885   4.772  11.221 -1.8505 -0.0763  2.2024
 3003TIP3    H230501   1.964   4.643  11.221 -0.4315  0.6983 -1.1440
 3004TIP3   OH230502   4.544   5.252  11.552  0.1569 -0.0533 -0.0986
 3004TIP3    H130503   4.611   5.200  11.596  0.5427  0.7657  0.2959
 3004TIP3    H230504   4.488   5.187  11.509 -0.0554 -0.8725  1.3455
 3005TIP3   OH230505   4.889   3.606   5.251 -0.3403  0.0076 -0.3904
 3005TIP3    H130506   4.849   3.526   5.283  0.2154 -0.0816  0.0855
 3005TIP3    H230507   4.982   3.597   5.271 -0.2386  0.6756 -0.5269
 3006TIP3   OH230508   4.237   0.800  16.884 -0.1227  0.8878  0.4159
 3006TIP3    H130509   4.288   0.723  16.859  0.0471  1.1435 -0.0384
 3006TIP3    H230510   4.156   0.794  16.833  0.0538  1.2002  0.0867
 3007TIP3   OH230511   4.182   0.585   6.125 -0.3791  0.2621  0.0919
 3007TIP3    H130512   4.155   0.516   6.186 -2.0502  0.8008  0.0147
 3007TIP3    H230513   4.103   0.637   6.112  0.7755  2.0323 -0.0915
 3008TIP3   OH230514   5.723   5.142  16.875  0.0454 -0.2332  0.0975
 3008TIP3    H130515   5.703   5.215  16.816 -0.4613 -0.1628  0.3542
 3008TIP3    H230516   5.722   5.065  16.818 -0.1854 -0.1345 -0.0335
 3009TIP3   OH230517   2.763   6.449  14.932 -0.3939  0.2696 -0.0217
 3009TIP3    H130518   2.811   6.460  14.850  0.5719  1.2118  0.6435
 3009TIP3    H230519   2.763   6.536  14.972 -1.0709 -0.1221  0.8736
 3010TIP3   OH230520   4.322   2.729  13.592 -0.2170 -0.3899 -0.0446
 3010TIP3    H130521   4.406   2.761  13.627  0.3582  0.3482 -1.9494
 3010TIP3    H230522   4.262   2.734  13.666  1.0320  0.6101  0.9585
 3011TIP3   OH230523   6.011   6.737  14.729  0.3395 -0.2705  0.0939
 3011TIP3    H130524   6.017   6.810  14.667  1.1429  0.2575  0.7708
 3011TIP3    H230525   5.994   6.660  14.675 -0.4338  0.4011 -0.6395
 3012TIP3   OH230526   1.380   0.335  11.106  0.3396 -0.2383  0.1632
 3012TIP3    H130527   1.391   0.331  11.011 -0.0660  0.2325  0.0931
 3012TIP3    H230528   1.430   0.261  11.139  0.8587 -0.1364 -0.3841
 3013TIP3   OH230529   2.411   0.495  16.560  0.0145  0.2976  0.3237
 3013TIP3    H130530   2.396   0.494  16.655  0.1436  0.3346  0.3442
 3013TIP3    H230531   2.324   0.509  16.523 -0.1379 -0.3445  0.4161
 3014TIP3   OH230532   4.705   1.787  17.011  0.3787 -0.5939  0.1819
 3014TIP3    H130533   4.757   1.832  16.944 -1.1454 -0.1245 -0.7379
 3014TIP3    H230534   4.768   1.761  17.078  1.6493  0.7565 -0.4559
 3015TIP3   OH230535   1.780   3.359   2.192 -0.1991  0.6699 -0.0122
 3015TIP3    H130536   1.698   3.409   2.188 -0.5575  0.6163  3.5403
 3015TIP3    H230537   1.751   3.269   2.205  0.2697  0.8821  3.2238
 3016TIP3   OH230538   4.911   5.255  15.007  0.9611 -0.0816 -0.3048
 3016TIP3    H130539   4.824   5.287  14.985  1.3469  0.2592 -1.3928
 3016TIP3    H230540   4.968   5.332  15.000  1.3839 -0.3247  0.2759
 3017TIP3   OH230541   5.372   6.749  12.834  0.2979  0.0015 -0.1054
 3017TIP3    H130542   5.389   6.786  12.920 -1.5958 -0.1140  0.3619
 3017TIP3    H230543   5.400   6.658  12.840  0.8325  0.1822  0.1488
 3018TIP3   OH230544   0.878   2.046  10.765 -0.2424 -0.4368  0.4698
 3018TIP3    H130545   0.792   2.027  10.802  0.5622 -1.7118  1.8163
 3018TIP3    H230546   0.920   1.961  10.756 -0.1739 -0.1614 -3.0509
 3019TIP3   OH230547   1.023   6.149  15.622 -0.4402  0.2928  0.2532
 3019TIP3    H130548   1.050   6.178  15.535 -1.9582  0.9708 -0.0113
 3019TIP3    H230549   1.030   6.227  15.677  2.5732 -0.5867  1.3134
 3020TIP3   OH230550   1.671   4.160   0.436  0.4608  0.0478 -0.5118
 3020TIP3    H130551   1.578   4.160   0.457  0.6338  0.2492  0.2721
 3020TIP3    H230552   1.679   4.100   0.361 -0.2357 -0.2783 -0.3267
 3021TIP3   OH230553   3.029   3.772  14.084  0.0661 -0.9643  0.0065
 3021TIP3    H130554   2.941   3.780  14.121  0.6630 -2.4157  1.8888
 3021TIP3    H230555   3.017   3.789  13.990 -1.9402  0.3607  0.4295
 3022TIP3   OH230556   4.928   5.678   3.251  0.2236  0.0211  0.4459
 3022TIP3    H130557   4.849   5.719   3.217  0.4860  0.6220  0.5421
 3022TIP3    H230558   4.918   5.682   3.346 -0.1057 -0.8537  0.4509
 3023TIP3   OH230559   6.761   1.750   3.124  0.2343 -0.3797  0.4082
 3023TIP3    H130560   6.782   1.658   3.140  0.5868  0.0129  2.4000
 3023TIP3    H230561   6.803   1.769   3.039 -1.1582 -2.4200 -0.8217
 3024TIP3   OH230562   4.704   5.663  15.263  0.1089  0.3488  0.2610
 3024TIP3    H130563   4.654   5.697  15.337  1.1709  0.6452  0.8520
 3024TIP3    H230564   4.743   5.582  15.295 -1.6895 -1.0312 -0.8681
 3025TIP3   OH230565   4.390   6.434   3.999 -0.2346 -0.3895 -1.0364
 3025TIP3    H130566   4.326   6.371   4.033  0.2422 -0.9365 -1.1428
 3025TIP3    H230567   4.367   6.516   4.042  0.5242 -1.1046  0.8566
 3026TIP3   OH230568   0.259   4.841  11.905  0.9854  0.5993 -0.8250
 3026TIP3    H130569   0.281   4.886  11.987  1.1707  2.3498 -1.7806
 3026TIP3    H230570   0.183   4.888  11.872  0.4615 -0.5635 -1.3134
 3027TIP3   OH230571   5.695   2.756  15.264  0.4393  0.3143 -0.2090
 3027TIP3    H130572   5.761   2.695  15.230 -0.8607 -1.5060  0.4073
 3027TIP3    H230573   5.627   2.700  15.301 -2.0528  2.0430 -1.8142
 3028TIP3   OH230574   1.035   3.637  17.040  0.0028  0.0379 -0.3605
 3028TIP3    H130575   1.073   3.723  17.059  1.2542 -0.3444 -1.0282
 3028TIP3    H230576   0.946   3.657  17.012 -0.3295  0.9663  1.2063
 3029TIP3   OH230577   0.046   1.825   5.192 -0.2742  0.0418 -0.1419
 3029TIP3    H130578   0.074   1.907   5.233 -2.7804  0.8345  0.1588
 3029TIP3    H230579   0.035   1.764   5.265  3.2201 -1.2371 -0.4898
 3030TIP3   OH230580   6.640   2.956   2.936 -0.3603  0.0757 -0.0283
 3030TIP3    H130581   6.557   2.936   2.980 -0.2074 -1.3313 -0.3512
 3030TIP3    H230582   6.707   2.935   3.001 -0.1984 -0.1566 -0.2713
 3031TIP3   OH230583   1.549   2.036   1.425 -0.2644 -0.2325  0.0226
 3031TIP3    H130584   1.627   2.018   1.478  0.0245 -0.9160 -0.6230
 3031TIP3    H230585   1.503   2.105   1.473  0.8868  0.3971  0.2515
 3032TIP3   OH230586   0.398   1.829   6.608  0.2865 -0.8483 -0.0839
 3032TIP3    H130587   0.480   1.869   6.579 -1.0501  1.9583 -0.3293
 3032TIP3    H230588   0.409   1.819   6.703  0.4961  0.6303  0.0644
 3033TIP3   OH230589   6.063   2.764  12.365  0.1803 -0.3469 -0.2273
 3033TIP3    H130590   6.158   2.778  12.373  0.3984 -2.0779  0.4804
 3033TIP3    H230591   6.025   2.831  12.422  0.9501  0.5877 -0.7816
 3034TIP3   OH230592   3.431   5.582   2.041  0.1106  0.5728  0.5882
 3034TIP3    H130593   3.442   5.588   1.946  1.2829 -0.2577  0.6488
 3034TIP3    H230594   3.344   5.542   2.052 -0.3370  1.3109 -0.0987
 3035TIP3   OH230595   5.113   3.915  11.149  0.5345 -0.0801  0.4048
 3035TIP3    H130596   5.190   3.953  11.106 -0.2124  0.8179 -0.1835
 3035TIP3    H230597   5.078   3.854  11.083  0.9471 -0.7711  0.8168
 3036TIP3   OH230598   4.374   4.763  11.933 -0.5467  0.0855 -0.0798
 3036TIP3    H130599   4.461   4.733  11.907 -1.1230 -0.3634 -1.6020
 3036TIP3    H230600   4.314   4.702  11.890 -1.6955  2.0871 -1.4900
 3037TIP3   OH230601   6.452   2.532  13.125 -0.1945 -0.1999  0.3391
 3037TIP3    H130602   6.533   2.555  13.171 -0.1552 -0.2593  0.3006
 3037TIP3    H230603   6.479   2.523  13.034  0.0677 -1.7232  0.5420
 3038TIP3   OH230604   3.823   1.197   3.421 -0.2569 -0.3371 -0.3361
 3038TIP3    H130605   3.760   1.251   3.374  0.9946  1.6853  0.2019
 3038TIP3    H230606   3.815   1.224   3.512  0.9743 -0.4527 -0.1706
 3039TIP3   OH230607   0.334   1.020  12.907  0.3470  0.0377  0.5211
 3039TIP3    H130608   0.389   0.953  12.866 -1.5252 -0.7227 -0.8864
 3039TIP3    H230609   0.268   0.971  12.956 -1.1228  0.7984 -0.6182
 3040TIP3   OH230610   6.626   2.985   1.491 -0.2524  0.4885 -0.2988
 3040TIP3    H130611   6.537   3.015   1.471 -0.5949  0.1023  0.5797
 3040TIP3    H230612   6.632   2.990   1.586  0.9197  1.1692 -0.3882
 3041TIP3   OH230613   5.065   1.978  12.850  0.1403 -0.2696  0.1127
 3041TIP3    H130614   4.976   2.005  12.872  0.6965  0.1246  2.0456
 3041TIP3    H230615   5.059   1.947  12.760 -1.7772  0.5266 -0.0812
 3042TIP3   OH230616   1.196   1.754  14.831 -0.7823 -1.0024  0.2660
 3042TIP3    H130617   1.237   1.826  14.784  1.0984 -1.7933  0.5911
 3042TIP3    H230618   1.108   1.748  14.795 -0.0153 -0.4211 -1.8467
 3043TIP3   OH230619   2.846   1.238  11.403  0.0131  0.1399  0.0911
 3043TIP3    H130620   2.801   1.192  11.332 -1.9232  2.0791 -0.0414
 3043TIP3    H230621   2.825   1.330  11.390  4.9552  1.4583 -0.5615
 3044TIP3   OH230622   3.383   5.481  14.415  0.2578  0.0156 -0.1253
 3044TIP3    H130623   3.293   5.480  14.447  0.8222 -3.6980  2.1001
 3044TIP3    H230624   3.376   5.484  14.320 -1.9551  3.1965  0.0128
 3045TIP3   OH230625   2.296   6.212   3.026  0.0951 -0.0932 -0.8019
 3045TIP3    H130626   2.370   6.188   3.082  0.5608  3.5928  0.4487
 3045TIP3    H230627   2.324   6.292   2.983 -2.3238  0.0959 -2.1943
 3046TIP3   OH230628   5.691   0.862  12.941 -0.2456  0.6977 -0.4038
 3046TIP3    H130629   5.665   0.853  13.033 -0.7878 -0.1492 -0.6269
 3046TIP3    H230630   5.708   0.955  12.930 -3.3997  1.4171 -0.2564
 3047TIP3   OH230631   5.863   1.825   0.157  0.2214  0.1055 -0.2741
 3047TIP3    H130632   5.817   1.746   0.131 -1.5930  0.9474  0.2405
 3047TIP3    H230633   5.911   1.800   0.237  1.9853 -1.1828 -1.6568
 3048TIP3   OH230634   5.242   0.560  13.435  0.3106  0.6228  0.0382
 3048TIP3    H130635   5.275   0.648  13.450  0.9787  0.3091  0.4455
 3048TIP3    H230636   5.307   0.502  13.475 -0.2585 -0.0454  0.0220
 3049TIP3   OH230637   1.999   5.912   5.261 -0.0027 -0.2651  0.6842
 3049TIP3    H130638   2.022   5.997   5.297  1.2702 -0.1864 -0.2526
 3049TIP3    H230639   2.012   5.921   5.166 -1.4700 -1.0185  0.3756
 3050TIP3   OH230640   2.712   3.595   4.353 -0.4387 -0.2377 -0.3862
 3050TIP3    H130641   2.635   3.595   4.296 -0.5316 -0.5232 -0.2625
 3050TIP3    H230642   2.682   3.554   4.434 -0.1124 -0.5072 -0.3995
 3051TIP3   OH230643   4.153   3.072   0.802  0.2176 -0.1599 -0.4860
 3051TIP3    H130644   4.245   3.099   0.791  0.3412 -0.5544 -0.4243
 3051TIP3    H230645   4.155   2.977   0.793  0.0534 -0.3256  1.0091
 3052TIP3   OH230646   3.097   4.011   1.763 -0.0104  0.2179  0.2915
 3052TIP3    H130647   3.069   4.042   1.677  0.4422  0.0497  0.0832
 3052TIP3    H230648   3.138   3.926   1.747 -0.2144  0.0324  0.7157
 3053TIP3   OH230649   3.015   4.558  12.619 -0.2865 -0.3409  0.0100
 3053TIP3    H130650   3.086   4.615  12.650 -0.4070 -0.1330 -0.0981
 3053TIP3    H230651   3.057   4.473  12.607  0.3807  0.1957 -1.8132
 3054TIP3   OH230652   6.170   5.359  16.724 -0.3881 -0.0116  0.4140
 3054TIP3    H130653   6.080   5.364  16.692  0.1306 -0.7663 -1.2781
 3054TIP3    H230654   6.162   5.355  16.819 -2.2486 -2.0489  0.2375
 3055TIP3   OH230655   2.192   0.184  17.103 -0.3261  0.3309 -0.8466
 3055TIP3    H130656   2.274   0.164  17.059  0.1400 -2.3024  0.9560
 3055TIP3    H230657   2.214   0.253  17.166 -0.2907  1.8697 -2.4721
 3056TIP3   OH230658   0.905   6.041  15.967  0.5664  0.4006  0.1016
 3056TIP3    H130659   0.858   6.055  15.885 -0.8685  0.0360  0.8253
 3056TIP3    H230660   0.987   6.088  15.955  1.1336 -1.0168 -2.1633
 3057TIP3   OH230661   5.721   5.839  11.841 -0.0986 -0.1807  0.2958
 3057TIP3    H130662   5.813   5.863  11.830 -0.5713  0.8137 -2.1808
 3057TIP3    H230663   5.684   5.913  11.890  0.0204  0.4932 -0.5956
 3058TIP3   OH230664   1.935   4.657   1.831 -0.5043  0.7685 -0.2386
 3058TIP3    H130665   1.891   4.717   1.891 -2.1493 -0.9150  0.3412
 3058TIP3    H230666   1.867   4.633   1.768  0.1336 -0.4409 -0.4819
 3059TIP3   OH230667   2.855   6.168   0.493 -0.3428 -0.6531  0.9319
 3059TIP3    H130668   2.946   6.177   0.521 -0.1709 -0.6730  0.3947
 3059TIP3    H230669   2.828   6.257   0.467 -0.4166 -0.6809  0.9107
 3060TIP3   OH230670   0.926   5.481  11.971  0.1807 -0.4936 -0.1916
 3060TIP3    H130671   0.958   5.571  11.981  0.0521 -0.3906 -0.6641
 3060TIP3    H230672   0.967   5.433  12.043  1.1333 -0.2934 -0.5831
 3061TIP3   OH230673   0.609   4.591   0.682 -0.6804 -0.6227  0.1307
 3061TIP3    H130674   0.654   4.547   0.609 -0.9224 -1.6281  0.5810
 3061TIP3    H230675   0.660   4.671   0.695 -0.7658 -0.3000 -1.2971
 3062TIP3   OH230676   6.721   3.336  10.908  0.1006 -0.1735  0.3967
 3062TIP3    H130677   6.804   3.299  10.878 -0.5770 -2.4237  1.1010
 3062TIP3    H230678   6.654   3.277  10.871 -1.0489  0.3446  1.5803
 3063TIP3   OH230679   3.817   4.377  16.364  0.8121 -0.2063 -0.7065
 3063TIP3    H130680   3.762   4.346  16.293 -0.4908  1.9452 -0.7352
 3063TIP3    H230681   3.853   4.460  16.332  1.2614  0.1409  0.6161
 3064TIP3   OH230682   4.694   1.718  16.469 -0.1256 -0.4544 -0.0525
 3064TIP3    H130683   4.629   1.649  16.481  1.2138 -1.7775 -0.1008
 3064TIP3    H230684   4.704   1.757  16.555  0.4359 -1.5859  0.4164
 3065TIP3   OH230685   5.591   3.055  14.462 -0.2932  0.1957  0.2279
 3065TIP3    H130686   5.612   3.148  14.470 -0.5578  0.5494 -2.3320
 3065TIP3    H230687   5.498   3.052  14.443 -0.2940 -0.5974  0.3100
 3066TIP3   OH230688   0.428   4.044   4.451  1.1655 -0.6899 -0.0066
 3066TIP3    H130689   0.415   4.138   4.459  2.2141 -0.3168 -2.1093
 3066TIP3    H230690   0.495   4.023   4.516 -0.4756 -0.4106  1.8901
 3067TIP3   OH230691   4.285   0.015  17.030  0.2704  0.5254 -0.0132
 3067TIP3    H130692   4.340   0.088  17.061  0.0299  1.6983 -2.1141
 3067TIP3    H230693   4.196   0.042  17.050  0.2923 -0.2658  1.2252
 3068TIP3   OH230694   2.436   0.825  16.048 -0.1108  0.3142 -0.0629
 3068TIP3    H130695   2.513   0.830  15.991  0.7002 -1.6221  0.7702
 3068TIP3    H230696   2.436   0.735  16.081 -3.2828 -0.0700 -0.7636
 3069TIP3   OH230697   4.261   6.700  10.867  0.5159 -0.0441 -0.0941
 3069TIP3    H130698   4.226   6.770  10.922 -1.3836  0.3570 -1.7049
 3069TIP3    H230699   4.187   6.640  10.853  1.4065 -1.0264 -0.8188
 3070TIP3   OH230700   1.111   2.422   2.781  0.2325  0.5400 -0.1957
 3070TIP3    H130701   1.036   2.476   2.755 -1.2638 -1.5009 -0.3522
 3070TIP3    H230702   1.133   2.372   2.702  1.2259  0.5102  0.0922
 3071TIP3   OH230703   2.675   1.795  13.056 -0.2419  0.4692  0.2262
 3071TIP3    H130704   2.729   1.846  12.997  1.0235 -0.0160  0.9128
 3071TIP3    H230705   2.668   1.709  13.014  0.2118  0.2854  0.5216
 3072TIP3   OH230706   5.563   1.961  13.675 -0.1365  0.4798  0.4576
 3072TIP3    H130707   5.552   2.008  13.758  0.0528  1.5277 -0.0858
 3072TIP3    H230708   5.564   2.030  13.609 -0.5816 -0.3628 -0.4517
 3073TIP3   OH230709   1.168   4.519  12.466  0.7388  0.0574 -0.3684
 3073TIP3    H130710   1.175   4.536  12.372  2.6002  0.8178 -0.1287
 3073TIP3    H230711   1.090   4.567  12.493 -0.8888 -1.6103 -1.7838
 3074TIP3   OH230712   4.378   6.683   2.371  0.1746  0.4490 -0.3645
 3074TIP3    H130713   4.392   6.592   2.396  1.1610  0.6505 -0.1350
 3074TIP3    H230714   4.388   6.732   2.453 -2.6997  0.5902  0.0008
 3075TIP3   OH230715   0.482   2.547   1.086  0.4829  0.1032 -0.8909
 3075TIP3    H130716   0.415   2.609   1.058  0.2403  0.0967 -0.3282
 3075TIP3    H230717   0.564   2.585   1.054  0.2853  0.4433 -1.0050
 3076TIP3   OH230718   3.927   5.275  12.284 -0.0303  0.2108  0.5871
 3076TIP3    H130719   3.943   5.256  12.191  1.3199  4.3359 -0.2165
 3076TIP3    H230720   4.001   5.234  12.329  0.1355 -0.5384 -0.3375
 3077TIP3   OH230721   6.762   5.655   0.780  0.6836  0.2581 -0.0112
 3077TIP3    H130722   6.707   5.730   0.756  0.4041  0.0382 -0.0594
 3077TIP3    H230723   6.790   5.618   0.696  0.1119 -0.2130  0.0044
 3078TIP3   OH230724   2.897   6.468  15.424  0.4826  0.7034  0.2613
 3078TIP3    H130725   2.926   6.402  15.361  0.4423  1.8414 -0.9764
 3078TIP3    H230726   2.920   6.552  15.385 -0.3825  1.4826  1.3375
 3079TIP3   OH230727   1.266   0.689   2.619  0.2134  0.4544  0.2876
 3079TIP3    H130728   1.216   0.624   2.568 -0.9711  1.0856  0.6268
 3079TIP3    H230729   1.296   0.640   2.695 -0.6243  0.2663  0.5130
 3080TIP3   OH230730   3.335   6.310   1.984  0.6904 -0.4670  0.0538
 3080TIP3    H130731   3.369   6.329   1.897 -0.0282  0.9289  0.0478
 3080TIP3    H230732   3.391   6.240   2.018  0.5263 -1.5776 -1.8083
 3081TIP3   OH230733   1.676   6.203  11.990  0.3403  0.3248 -0.3490
 3081TIP3    H130734   1.638   6.155  12.064 -1.9827  1.6481 -0.5723
 3081TIP3    H230735   1.699   6.289  12.027 -0.1020  0.7160 -0.9528
 3082TIP3   OH230736   0.357   0.547  10.270  0.7485 -0.5254  0.3264
 3082TIP3    H130737   0.304   0.612  10.317  1.4474  0.2303  0.0830
 3082TIP3    H230738   0.423   0.520  10.333  1.8635  0.7003 -0.2735
 3083TIP3   OH230739   5.989   5.977  10.499 -0.2763 -0.1297 -0.3304
 3083TIP3    H130740   6.019   6.066  10.513 -3.4708  0.6769  3.1046
 3083TIP3    H230741   6.069   5.924  10.500  1.6102  2.4935 -1.1863
 3084TIP3   OH230742   2.395   3.706   5.279  0.1966  0.2703 -1.0846
 3084TIP3    H130743   2.345   3.747   5.208 -0.8205  0.2901 -0.3741
 3084TIP3    H230744   2.485   3.734   5.263 -0.2185  1.3937 -1.5953
 3085TIP3   OH230745   3.549   4.261  12.666  0.2119  0.7015 -0.5056
 3085TIP3    H130746   3.469   4.308  12.693 -0.7463 -1.4579  0.5979
 3085TIP3    H230747   3.620   4.310  12.708 -0.6772  1.5212  0.1108
 3086TIP3   OH230748   1.830   0.436   5.233  0.0233 -0.0274 -0.3203
 3086TIP3    H130749   1.881   0.516   5.227  0.6016 -0.4889 -2.2318
 3086TIP3    H230750   1.739   0.465   5.240  0.3366  0.7834  0.5460
 3087TIP3   OH230751   0.591   6.580   0.894  0.1261  0.1742 -0.1192
 3087TIP3    H130752   0.586   6.626   0.810 -2.2040 -1.2210 -0.8211
 3087TIP3    H230753   0.584   6.649   0.959 -0.3778  1.0794 -1.0945
 3088TIP3   OH230754   3.474   3.912   2.421 -0.3142 -0.1688 -0.0365
 3088TIP3    H130755   3.545   3.976   2.416  0.4796 -1.0285  0.1132
 3088TIP3    H230756   3.395   3.966   2.434  0.3947  0.7502  0.6393
 3089TIP3   OH230757   6.468   3.667  15.630  0.0204 -0.4063  0.3434
 3089TIP3    H130758   6.556   3.686  15.663  0.1998  0.6663 -0.6697
 3089TIP3    H230759   6.473   3.579  15.595  1.2764  0.3201 -1.4741
 3090TIP3   OH230760   5.827   5.250  14.418  0.3983  0.2159 -0.1403
 3090TIP3    H130761   5.774   5.319  14.459  0.4253 -1.1573  2.4171
 3090TIP3    H230762   5.914   5.260  14.459  0.9678 -0.1032 -1.2382
 3091TIP3   OH230763   1.087   3.934  17.138  0.2060  0.3412  0.0404
 3091TIP3    H130764   1.180   3.955  17.127  0.4815 -0.8517 -0.0278
 3091TIP3    H230765   1.059   3.989  17.212  1.9190 -1.8417  2.5071
 3092TIP3   OH230766   5.993   4.757  14.692  0.1315 -0.0537  0.4291
 3092TIP3    H130767   5.897   4.754  14.689  0.1318  0.5846 -1.9418
 3092TIP3    H230768   6.020   4.665  14.686 -0.3822 -0.1088 -3.1762
 3093TIP3   OH230769   6.713   4.471  13.173 -0.1732 -0.3170 -0.3268
 3093TIP3    H130770   6.646   4.409  13.203 -0.6328 -0.0564 -0.8012
 3093TIP3    H230771   6.760   4.423  13.105 -1.1243  0.1602 -1.3480
 3094TIP3   OH230772   4.813   6.824   2.620  0.4389 -0.2357 -0.2579
 3094TIP3    H130773   4.880   6.815   2.689  0.3194 -0.8892 -0.2136
 3094TIP3    H230774   4.860   6.805   2.539  0.1454 -1.5439 -0.1477
 3095TIP3   OH230775   6.809   0.594  10.546  0.4420 -0.2751 -0.5517
 3095TIP3    H130776   6.894   0.619  10.511  0.1294  1.3499 -0.2394
 3095TIP3    H230777   6.746   0.637  10.490 -0.1080  0.3571  0.5089
 3096TIP3   OH230778   3.191   1.164   2.542  0.3976 -0.3113  0.5923
 3096TIP3    H130779   3.142   1.135   2.619 -0.4062  1.4968  0.8100
 3096TIP3    H230780   3.123   1.184   2.477  0.9959 -0.4656 -0.0910
 3097TIP3   OH230781   4.990   0.523   4.712 -0.1775 -0.4890  0.6479
 3097TIP3    H130782   4.911   0.545   4.762 -0.6549 -1.0384  0.1499
 3097TIP3    H230783   4.961   0.520   4.621  0.3481 -1.0212  0.4898
 3098TIP3   OH230784   0.624   1.477  14.773  0.1567 -0.2527  0.0954
 3098TIP3    H130785   0.632   1.488  14.868 -1.1447 -1.7982  0.4279
 3098TIP3    H230786   0.657   1.389  14.756 -0.7671 -0.4653 -0.6937
 3099TIP3   OH230787   2.895   3.047  15.078 -0.2399 -0.1990 -0.4405
 3099TIP3    H130788   2.837   3.025  15.151  0.1675  0.7797  0.1999
 3099TIP3    H230789   2.977   3.074  15.119 -0.2296  1.0562 -1.2115
 3100TIP3   OH230790   5.734   0.628  15.075  0.4846 -0.2003  0.4572
 3100TIP3    H130791   5.779   0.703  15.037 -1.0848  0.1839 -0.7182
 3100TIP3    H230792   5.805   0.573  15.110  1.6777  1.6221  1.0215
 3101TIP3   OH230793   1.734   4.335  11.682  0.2281  0.1230  0.3969
 3101TIP3    H130794   1.786   4.312  11.758  3.2559 -1.6295 -1.9918
 3101TIP3    H230795   1.773   4.416  11.649  0.0863 -0.0560 -0.2317
 3102TIP3   OH230796   5.257   3.460  15.461 -0.3205 -0.0120 -0.0466
 3102TIP3    H130797   5.226   3.372  15.481  0.4196 -0.2475  0.0706
 3102TIP3    H230798   5.178   3.508  15.434 -0.8554 -0.4924  0.6395
 3103TIP3   OH230799   6.025   1.435  14.622 -0.3922 -0.3517  0.3228
 3103TIP3    H130800   5.993   1.523  14.642 -0.6235 -0.2564 -0.4513
 3103TIP3    H230801   5.975   1.408  14.545  0.9247 -0.4571 -0.5296
 3104TIP3   OH230802   1.325   6.174   0.204  0.4826 -0.3413  0.2149
 3104TIP3    H130803   1.382   6.192   0.130  1.5327 -1.3128  0.7493
 3104TIP3    H230804   1.239   6.156   0.165  0.1749  2.3690 -0.5256
 3105TIP3   OH230805   6.764   1.129  15.441  0.2978 -0.3030 -0.0141
 3105TIP3    H130806   6.804   1.167  15.519 -0.8320 -0.2746  0.5625
 3105TIP3    H230807   6.829   1.143  15.372  1.8098 -1.3303  1.1353
 3106TIP3   OH230808   0.517   2.999  16.318  0.4213 -0.3460  0.1670
 3106TIP3    H130809   0.569   2.918  16.313 -1.8725 -1.8322 -2.0144
 3106TIP3    H230810   0.473   2.994  16.402  0.7723 -1.0466  0.3218
 3107TIP3   OH230811   2.303   5.365   3.219 -0.3498  0.4787  0.3466
 3107TIP3    H130812   2.349   5.413   3.150  0.4991 -1.3840 -0.4353
 3107TIP3    H230813   2.287   5.279   3.182 -0.6514 -0.2879  2.1764
 3108TIP3   OH230814   5.868   1.189  13.216 -0.7474 -0.1557 -0.3872
 3108TIP3    H130815   5.832   1.264  13.263 -0.7891 -0.2543 -0.2608
 3108TIP3    H230816   5.949   1.221  13.177 -0.2157 -0.3301  0.5434
 3109TIP3   OH230817   4.004   5.775   0.417  0.2531 -0.0373 -0.4513
 3109TIP3    H130818   4.031   5.831   0.489  0.7743 -0.7728 -0.0514
 3109TIP3    H230819   3.951   5.831   0.360  0.0504  0.6189  0.3681
 3110TIP3   OH230820   6.124   2.864  10.490  0.0210  0.3401  0.7010
 3110TIP3    H130821   6.158   2.784  10.450  2.9407  1.6923  0.1783
 3110TIP3    H230822   6.057   2.895  10.430  0.8270 -0.2934 -0.5762
 3111TIP3   OH230823   5.660   4.991   3.781 -0.2310  0.5383  0.6213
 3111TIP3    H130824   5.748   4.959   3.800 -0.5644  0.4685  2.1773
 3111TIP3    H230825   5.647   5.064   3.842 -2.0245 -0.8060  1.9586
 3112TIP3   OH230826   4.400   3.590   0.679  0.3965  0.4537 -0.0723
 3112TIP3    H130827   4.387   3.654   0.609 -0.3691  1.0561  0.5888
 3112TIP3    H230828   4.342   3.620   0.749 -0.4779 -1.3333  0.0170
 3113TIP3   OH230829   3.141   2.727   5.848  0.2609 -0.2222  0.3529
 3113TIP3    H130830   3.215   2.764   5.801 -0.1431 -0.0254 -0.1409
 3113TIP3    H230831   3.083   2.693   5.779 -1.6517  2.4913  0.4734
 3114TIP3   OH230832   1.074   4.133   3.506 -0.0165  0.5617 -0.1458
 3114TIP3    H130833   1.039   4.079   3.577  0.0073  1.5700  0.6671
 3114TIP3    H230834   1.165   4.104   3.497 -0.0820  0.2733  0.0934
 3115TIP3   OH230835   0.040   3.395   5.045 -0.2779 -0.2904 -0.0969
 3115TIP3    H130836  -0.044   3.368   5.009  0.1619 -0.5053 -0.9878
 3115TIP3    H230837   0.090   3.425   4.970  1.0944 -1.8399  0.1414
 3116TIP3   OH230838   4.277   5.163   2.504  0.3030 -0.0672 -0.4913
 3116TIP3    H130839   4.213   5.097   2.476  1.8063 -1.3626 -1.0695
 3116TIP3    H230840   4.283   5.224   2.430 -1.2869  0.9245  0.1485
 3117TIP3   OH230841   2.433   2.982   2.624 -0.9269 -0.0697  0.1261
 3117TIP3    H130842   2.379   2.904   2.611  0.5529 -0.6616 -3.7776
 3117TIP3    H230843   2.521   2.946   2.643 -0.2572  0.5484 -1.6080
 3118TIP3   OH230844   5.877   1.238  15.350  0.2483 -0.0426  0.3289
 3118TIP3    H130845   5.914   1.154  15.377 -0.9041 -1.1159 -1.2404
 3118TIP3    H230846   5.811   1.257  15.418  0.0567 -0.7528  0.3552
 3119TIP3   OH230847   0.941   1.927  12.537 -0.0651 -0.1420 -0.3897
 3119TIP3    H130848   0.932   2.017  12.569 -1.4349 -0.5158  0.3387
 3119TIP3    H230849   1.031   1.903  12.560 -0.2828  0.3984  1.1443
 3120TIP3   OH230850   6.442   6.675   2.717 -0.6155 -0.0270  0.1573
 3120TIP3    H130851   6.351   6.670   2.686 -0.6619  0.2661  0.2368
 3120TIP3    H230852   6.459   6.769   2.722  0.0972 -0.0659 -1.0425
 3121TIP3   OH230853   5.215   5.635  12.105 -0.0728  0.2519  0.3511
 3121TIP3    H130854   5.299   5.590  12.107 -0.2758 -0.1436  0.1453
 3121TIP3    H230855   5.161   5.582  12.046 -1.0728 -0.5658  1.9394
 3122TIP3   OH230856   1.714   5.108  11.400  0.0561 -0.7662 -0.0543
 3122TIP3    H130857   1.621   5.127  11.414  0.0994 -1.0734  0.7096
 3122TIP3    H230858   1.738   5.052  11.474  1.4852  1.3677  1.2240
 3123TIP3   OH230859   1.523   5.418   2.491  0.0790 -0.2147 -0.4671
 3123TIP3    H130860   1.538   5.508   2.520 -0.4895 -0.2679  0.0350
 3123TIP3    H230861   1.444   5.424   2.437  0.3183 -0.3380 -0.8275
 3124TIP3   OH230862   3.008   5.936   3.069 -0.0532 -0.3494  0.4418
 3124TIP3    H130863   2.916   5.932   3.045  0.2173 -0.4005 -0.6059
 3124TIP3    H230864   3.018   6.021   3.112 -0.6077 -0.4018  0.6817
 3125TIP3   OH230865   3.340   2.645   2.302  0.2899 -0.3883  0.2219
 3125TIP3    H130866   3.368   2.594   2.226  2.0586  0.6955  0.1055
 3125TIP3    H230867   3.410   2.635   2.366 -0.3607  0.1412  1.0493
 3126TIP3   OH230868   6.764   2.419   3.657 -0.2143 -0.0785 -0.2636
 3126TIP3    H130869   6.749   2.328   3.679  3.2486 -0.8802 -0.6103
 3126TIP3    H230870   6.743   2.426   3.563 -1.9511 -0.0652  0.0966
 3127TIP3   OH230871   3.598   1.530  14.680 -0.4501 -0.1048 -0.4259
 3127TIP3    H130872   3.516   1.577  14.671  0.1987  1.3646  0.8261
 3127TIP3    H230873   3.582   1.466  14.749 -0.7035 -0.2594 -0.6239
 3128TIP3   OH230874   4.984   2.046   4.520 -0.8228 -0.7689 -0.3660
 3128TIP3    H130875   4.955   2.025   4.431 -1.2186  0.8027 -0.6472
 3128TIP3    H230876   4.903   2.052   4.571 -0.6038 -1.5594  0.0868
 3129TIP3   OH230877   1.491   4.859   3.846  0.2720  0.2441 -1.2346
 3129TIP3    H130878   1.569   4.906   3.876 -0.3945  0.6611 -0.0768
 3129TIP3    H230879   1.525   4.776   3.813  1.2046  0.3668 -0.6317
 3130TIP3   OH230880   4.816   4.956   0.617  0.1561  0.0639  0.3318
 3130TIP3    H130881   4.816   5.051   0.627 -1.3511 -0.0851  2.6223
 3130TIP3    H230882   4.865   4.924   0.693 -0.0356 -1.0069  0.0184
 3131TIP3   OH230883   2.341   4.337  12.265 -0.7980 -0.4507  0.4474
 3131TIP3    H130884   2.367   4.395  12.337 -5.5667 -0.2673  2.3867
 3131TIP3    H230885   2.337   4.250  12.305  0.7106 -1.2166 -0.9275
 3132TIP3   OH230886   5.777   6.388  11.289  0.1394  0.4689  0.1563
 3132TIP3    H130887   5.767   6.404  11.195  1.2994  0.0459 -0.0540
 3132TIP3    H230888   5.834   6.311  11.294 -1.3743 -0.6224  1.1904
 3133TIP3   OH230889   0.071   1.472   3.278 -0.3877  0.0985 -0.3838
 3133TIP3    H130890   0.009   1.440   3.212  0.8235  1.4885 -2.3173
 3133TIP3    H230891   0.156   1.439   3.248  0.0263 -0.5468  1.4014
 3134TIP3   OH230892   5.995   3.407   4.867  0.3035 -0.0877  0.2795
 3134TIP3    H130893   5.982   3.479   4.805  0.2213  1.0071  1.5317
 3134TIP3    H230894   6.053   3.347   4.821 -1.4605 -0.4016 -1.7029
 3135TIP3   OH230895   4.912   1.735  11.316 -0.1033 -1.2168 -0.6181
 3135TIP3    H130896   4.876   1.674  11.252  0.8675 -2.2324 -0.2399
 3135TIP3    H230897   4.981   1.685  11.360 -0.8902 -0.6343  1.3949
 3136TIP3   OH230898   1.204   6.825   4.512  0.0652  0.4930  0.0972
 3136TIP3    H130899   1.213   6.884   4.437  2.6382  1.3273  0.9319
 3136TIP3    H230900   1.286   6.776   4.513 -0.5333 -0.5404  1.5342
 3137TIP3   OH230901   1.854   1.243   5.558 -0.4520  0.3363  0.0830
 3137TIP3    H130902   1.810   1.264   5.640  1.1538  2.4655  0.4969
 3137TIP3    H230903   1.789   1.195   5.507 -1.5854 -0.8065  2.4483
 3138TIP3   OH230904   3.898   2.944  16.654  0.3593 -0.2617 -0.0247
 3138TIP3    H130905   3.878   3.004  16.582  1.3288  0.7481  0.5259
 3138TIP3    H230906   3.934   2.999  16.722 -0.0487 -1.2877  1.0540
 3139TIP3   OH230907   1.789   1.508   5.325  0.0640 -0.1506  0.2274
 3139TIP3    H130908   1.703   1.502   5.365  0.5228 -1.8187  1.0150
 3139TIP3    H230909   1.813   1.601   5.333 -2.5225  0.8577 -1.9715
 3140TIP3   OH230910   0.193   0.799  14.435  0.2187  0.1716 -0.3696
 3140TIP3    H130911   0.252   0.726  14.418  0.3005  0.5316 -1.8255
 3140TIP3    H230912   0.119   0.785  14.376  0.1198  1.1199 -0.4920
 3141TIP3   OH230913   6.358   6.658  14.963  0.4395 -0.6424 -0.7217
 3141TIP3    H130914   6.349   6.632  15.055 -1.7406  0.7089 -0.4636
 3141TIP3    H230915   6.382   6.578  14.917  2.2416 -1.2221  1.0772
 3142TIP3   OH230916   5.996   3.114   5.241 -0.0317  0.3531 -0.7418
 3142TIP3    H130917   6.078   3.162   5.252  1.4536 -2.1444 -0.1700
 3142TIP3    H230918   5.970   3.092   5.330 -2.9057  3.3413 -0.6322
 3143TIP3   OH230919   5.259   1.421  16.652 -0.0915 -0.1473  0.1861
 3143TIP3    H130920   5.341   1.375  16.639 -0.9620 -1.7388 -0.0105
 3143TIP3    H230921   5.215   1.372  16.722 -0.8724  0.6704  0.2881
 3144TIP3   OH230922   2.819   5.675   0.071 -0.0333  0.4549  0.2431
 3144TIP3    H130923   2.798   5.722   0.152 -2.8499 -1.1924  0.5856
 3144TIP3    H230924   2.860   5.594   0.099 -0.5293  0.1179  0.0163
 3145TIP3   OH230925   5.219   2.270   1.684 -0.4930 -0.1541 -0.2233
 3145TIP3    H130926   5.282   2.215   1.636  0.5090  3.0022 -2.8674
 3145TIP3    H230927   5.133   2.237   1.656  0.0659 -0.4583 -1.6993
 3146TIP3   OH230928   4.950   2.991   0.534  0.1309 -0.0133  0.1816
 3146TIP3    H130929   4.863   2.951   0.537 -0.0509  0.3422 -0.2403
 3146TIP3    H230930   5.002   2.941   0.597 -1.2071  1.7402  2.8802
 3147TIP3   OH230931   3.939   2.164   5.604  0.0687 -0.3624 -0.2574
 3147TIP3    H130932   3.991   2.132   5.678 -0.5985  0.3531  0.5333
 3147TIP3    H230933   3.862   2.204   5.644 -0.0469  0.5061 -1.3139
 3148TIP3   OH230934   3.935   4.934   1.364 -0.0704  0.1605 -0.2853
 3148TIP3    H130935   3.973   4.852   1.333  1.1594 -0.0792  1.6624
 3148TIP3    H230936   4.009   4.983   1.398 -0.6264  2.5367 -2.1899
 3149TIP3   OH230937   3.017   1.060   1.021  0.6608  0.1433  0.0494
 3149TIP3    H130938   2.986   1.090   1.106 -1.9654  0.6844 -0.9835
 3149TIP3    H230939   2.991   1.129   0.960  1.7411 -0.5909 -1.3212
 3150TIP3   OH230940   4.377   5.336   6.274 -0.0013 -0.1793 -0.2417
 3150TIP3    H130941   4.312   5.280   6.315  2.7826 -2.4601  1.4915
 3150TIP3    H230942   4.398   5.402   6.339 -0.2469  0.2804 -0.6215
 3151TIP3   OH230943   0.568   6.407  15.839 -0.6295 -0.3082 -0.4621
 3151TIP3    H130944   0.603   6.388  15.752 -0.4440  1.2857 -0.7695
 3151TIP3    H230945   0.507   6.479  15.825 -1.6130 -0.9167  0.5517
 3152TIP3   OH230946   4.908   3.633   1.422  1.2418 -1.0270  0.0600
 3152TIP3    H130947   4.968   3.607   1.492  1.4614 -0.6004  0.0316
 3152TIP3    H230948   4.959   3.695   1.369  0.0661  1.0911  1.2856
 3153TIP3   OH230949   3.851   5.521  13.987  0.2508  0.1223  0.4381
 3153TIP3    H130950   3.835   5.490  14.076 -1.1060  0.3298  0.2833
 3153TIP3    H230951   3.859   5.616  13.996  1.6633  0.0141  0.5327
 3154TIP3   OH230952   4.855   6.202  11.291 -0.1958  0.0400  0.2063
 3154TIP3    H130953   4.839   6.176  11.381 -0.8959  2.2139  0.7632
 3154TIP3    H230954   4.950   6.199  11.281 -0.1893 -1.7244  0.4826
 3155TIP3   OH230955   0.838   6.060  11.112 -0.6753  0.0154  0.7725
 3155TIP3    H130956   0.841   6.146  11.069  0.5751 -0.7816 -0.8362
 3155TIP3    H230957   0.763   6.016  11.074  1.0387 -1.0948 -1.5704
 3156TIP3   OH230958   3.809   6.290   0.928 -0.1183  0.3278 -0.4134
 3156TIP3    H130959   3.870   6.221   0.952 -2.0399 -1.0170  0.8587
 3156TIP3    H230960   3.841   6.368   0.974  1.3019 -0.0300 -0.7607
 3157TIP3   OH230961   0.250   3.322  14.695 -0.0310  0.2620  0.2281
 3157TIP3    H130962   0.320   3.349  14.635 -0.7936  2.3912  0.2092
 3157TIP3    H230963   0.294   3.313  14.780  0.8070 -1.4878 -0.3465
 3158TIP3   OH230964   5.656   5.376   5.365  0.6647 -0.3851  0.4514
 3158TIP3    H130965   5.631   5.397   5.455  2.0960 -1.0268  1.0217
 3158TIP3    H230966   5.575   5.342   5.326  0.5517 -2.3914  2.2420
 3159TIP3   OH230967   0.399   4.999  12.108  0.0159  0.3054  0.1905
 3159TIP3    H130968   0.367   5.022  12.195  1.6722  0.7916  0.6979
 3159TIP3    H230969   0.455   5.072  12.082 -0.0148 -0.0873 -1.0544
 3160TIP3   OH230970   3.631   4.991  14.508 -0.3614 -0.0845 -0.4536
 3160TIP3    H130971   3.648   5.000  14.414  1.6834  3.3055  0.0797
 3160TIP3    H230972   3.558   5.051  14.525 -0.3481 -0.2528  0.2205
 3161TIP3   OH230973   2.104   5.265  11.812 -0.1267 -0.2594  0.3431
 3161TIP3    H130974   2.070   5.219  11.889  0.2139 -0.4032  0.4121
 3161TIP3    H230975   2.199   5.251  11.816  0.1305  1.4167  1.0238
 3162TIP3   OH230976   5.292   6.344   3.040  0.1796  0.4185  0.0136
 3162TIP3    H130977   5.360   6.292   2.998  1.6772  0.7467  1.9054
 3162TIP3    H230978   5.323   6.434   3.033  0.7327  0.4479  2.1350
 3163TIP3   OH230979   2.759   4.938   2.551  0.2920  0.1557  0.1872
 3163TIP3    H130980   2.852   4.958   2.566  0.4940 -0.2568 -0.4847
 3163TIP3    H230981   2.715   5.023   2.560  0.6837  0.3004  0.8407
 3164TIP3   OH230982   4.504   5.134  15.725 -0.2776 -0.5661  0.1348
 3164TIP3    H130983   4.547   5.055  15.693 -0.9762 -1.1044  0.4969
 3164TIP3    H230984   4.428   5.144  15.668  0.0174  0.0737 -0.1588
 3165TIP3   OH230985   4.491   3.641   0.159 -0.4788  0.3688  0.2096
 3165TIP3    H130986   4.531   3.665   0.075  1.0777 -1.3651  0.3745
 3165TIP3    H230987   4.561   3.652   0.223 -1.9485  2.7255  1.5522
 3166TIP3   OH230988   2.725   4.668  16.532  0.2544 -0.3774  0.0406
 3166TIP3    H130989   2.660   4.600  16.515  0.8042 -0.9267  0.0491
 3166TIP3    H230990   2.675   4.746  16.553 -0.3953 -0.7682 -0.0406
 3167TIP3   OH230991   0.077   4.020   6.249  0.7263  0.2889  0.6233
 3167TIP3    H130992   0.122   4.046   6.329 -0.2810  0.0888  1.2627
 3167TIP3    H230993   0.146   3.981   6.195  1.6809  1.5800  0.8431
 3168TIP3   OH230994   6.411   4.988  13.062 -0.8627 -0.0547  0.4842
 3168TIP3    H130995   6.406   5.079  13.033 -0.6053 -0.2752 -0.2645
 3168TIP3    H230996   6.391   4.936  12.984  0.3508 -0.6752  0.5663
 3169TIP3   OH230997   2.590   4.646  12.065 -0.4171 -0.1470  0.4393
 3169TIP3    H130998   2.562   4.654  11.974 -0.7741 -2.0731  0.3404
 3169TIP3    H230999   2.682   4.618  12.059 -1.1152 -2.7233  0.5551
 3170TIP3   OH231000   5.482   1.017  11.216 -0.4724 -0.3748  0.2461
 3170TIP3    H131001   5.453   1.036  11.127 -0.3684  0.8276  0.4488
 3170TIP3    H231002   5.413   1.052  11.272  0.3291  0.6105  0.6697
 3171TIP3   OH231003   4.162   6.339   5.647  0.2402 -0.1089  0.1104
 3171TIP3    H131004   4.216   6.270   5.607  0.7541 -0.2842  1.0884
 3171TIP3    H231005   4.105   6.292   5.708  0.8106  0.3567  1.0162
 3172TIP3   OH231006   5.983   3.420  11.396  0.1357  0.5745 -0.6381
 3172TIP3    H131007   6.070   3.431  11.357  0.4618 -2.8893 -1.1596
 3172TIP3    H231008   5.940   3.356  11.339 -1.4011 -0.5282  1.6511
 3173TIP3   OH231009   0.834   6.479   0.812 -0.0127  0.4781 -0.0485
 3173TIP3    H131010   0.756   6.499   0.864 -0.3053 -0.1964 -0.2173
 3173TIP3    H231011   0.907   6.492   0.873 -0.3193  0.2241  0.3774
 3174TIP3   OH231012   0.464   2.423  14.216  0.2744  0.3209  0.3166
 3174TIP3    H131013   0.425   2.352  14.164  3.1169 -2.3477  1.5502
 3174TIP3    H231014   0.491   2.488  14.150 -0.4324 -0.7471 -1.0889
 3175TIP3   OH231015   3.882   0.090  11.113  0.1599  0.0753  0.4995
 3175TIP3    H131016   3.871   0.119  11.203  1.3767 -0.0508  0.7027
 3175TIP3    H231017   3.829   0.011  11.107 -0.2043  0.2748  1.0007
 3176TIP3   OH231018   0.921   2.615   0.517 -0.2806  0.6898 -0.0362
 3176TIP3    H131019   0.938   2.668   0.440 -0.3765  0.8217  0.0328
 3176TIP3    H231020   0.976   2.654   0.586  0.7846 -0.2086 -0.3538
 3177TIP3   OH231021   3.109   0.074   1.731 -0.6582  0.0933 -0.4626
 3177TIP3    H131022   3.051   0.024   1.789  1.2585 -0.0315  1.4928
 3177TIP3    H231023   3.171   0.117   1.790 -0.1040  2.0217 -2.3134
 3178TIP3   OH231024   2.674   4.443  14.238 -0.4945 -0.1067 -0.1374
 3178TIP3    H131025   2.718   4.476  14.317 -0.3448 -0.4092 -0.0961
 3178TIP3    H231026   2.684   4.348  14.243 -1.4803 -0.2116  0.0654
 3179TIP3   OH231027   1.461   5.649  14.485  0.0107  0.2699 -0.0969
 3179TIP3    H131028   1.507   5.732  14.468  1.7462 -0.0713  2.3436
 3179TIP3    H231029   1.507   5.585  14.430 -0.8978  0.7688 -1.4805
 3180TIP3   OH231030   3.752   1.215  11.880  0.2677  0.1245  0.1501
 3180TIP3    H131031   3.845   1.195  11.866  0.4343  1.5987 -1.2090
 3180TIP3    H231032   3.743   1.228  11.974  1.0576 -1.6921  0.5123
 3181TIP3   OH231033   5.367   3.954  12.291  0.2944  0.3828 -0.6193
 3181TIP3    H131034   5.420   3.888  12.335  0.9937  0.9642 -0.5773
 3181TIP3    H231035   5.347   3.916  12.206  1.2225  0.3624 -0.8380
 3182TIP3   OH231036   1.072   5.869  10.165 -0.0613  0.3751  0.1963
 3182TIP3    H131037   1.126   5.792  10.144  0.0358  0.2797  0.7769
 3182TIP3    H231038   1.100   5.894  10.253  0.3557  1.4646 -0.2258
 3183TIP3   OH231039   6.599   0.683   2.492 -0.1763 -0.1719  0.2641
 3183TIP3    H131040   6.630   0.593   2.499 -0.5695 -0.2934  0.4597
 3183TIP3    H231041   6.508   0.679   2.521 -1.2086 -0.2868 -2.6561
 3184TIP3   OH231042   4.031   3.505   5.741 -0.4880 -0.3710 -0.3124
 3184TIP3    H131043   3.943   3.468   5.746 -0.9724  0.5861 -1.4606
 3184TIP3    H231044   4.018   3.599   5.752  0.4248 -0.2436 -0.2719
 3185TIP3   OH231045   4.379   1.543   2.547  0.1324  0.1559  0.0144
 3185TIP3    H131046   4.445   1.567   2.612  0.3915 -1.2245  0.2772
 3185TIP3    H231047   4.295   1.554   2.592  0.3110 -0.8055  0.6052
 3186TIP3   OH231048   0.687   0.863  11.640 -0.0796 -0.1501 -0.0338
 3186TIP3    H131049   0.636   0.844  11.562 -0.2617  1.4732 -0.3410
 3186TIP3    H231050   0.771   0.820  11.625 -1.4323 -3.4506  0.7690
 3187TIP3   OH231051   5.866   3.523  12.838  0.2074 -0.1323  0.3325
 3187TIP3    H131052   5.787   3.477  12.810  0.2203 -0.6104  1.0453
 3187TIP3    H231053   5.887   3.484  12.923  0.4342  0.9424  0.7758
 3188TIP3   OH231054   5.207   4.767  16.624 -0.0043  0.6126 -0.3565
 3188TIP3    H131055   5.243   4.746  16.710  1.6824  1.6561 -0.7513
 3188TIP3    H231056   5.134   4.826  16.643 -0.1938  0.1486  0.3948
 3189TIP3   OH231057   4.736   4.623   6.603 -0.6021  0.3566 -0.9224
 3189TIP3    H131058   4.652   4.642   6.562 -0.7619 -0.9872 -1.2923
 3189TIP3    H231059   4.786   4.704   6.595 -2.1851  1.5022  0.1641
 3190TIP3   OH231060   2.638   0.607   0.622 -0.3742 -0.3765 -0.1463
 3190TIP3    H131061   2.593   0.617   0.538 -0.5685  0.1324  0.0151
 3190TIP3    H231062   2.722   0.567   0.600  0.8142  2.3774 -0.9492
 3191TIP3   OH231063   5.998   3.000  13.096  1.0039  0.0466  1.1925
 3191TIP3    H131064   5.911   2.958  13.095  0.3847  1.2449 -0.9146
 3191TIP3    H231065   6.056   2.934  13.059  0.3202  0.3850 -0.6050
 3192TIP3   OH231066   5.658   0.825  16.336  0.2993  0.1831 -0.0310
 3192TIP3    H131067   5.705   0.788  16.261  0.4839 -2.4459  1.2695
 3192TIP3    H231068   5.724   0.836  16.403  0.1977  2.8389 -0.2596
 3193TIP3   OH231069   3.932   3.241  15.287  1.0678 -0.0586 -0.1635
 3193TIP3    H131070   3.963   3.302  15.219 -2.2886  0.8728 -1.0198
 3193TIP3    H231071   3.915   3.297  15.363  0.8092 -0.4363  0.0560
 3194TIP3   OH231072   6.124   5.027   1.796  0.0581  0.7296 -0.1289
 3194TIP3    H131073   6.180   5.084   1.744  1.8265 -1.6766 -1.0744
 3194TIP3    H231074   6.169   4.943   1.797 -2.4865 -0.7682  0.9889
 3195TIP3   OH231075   3.929   2.913   1.708 -0.2017 -0.1618  0.3602
 3195TIP3    H131076   3.948   3.005   1.688  4.1669 -0.9135  0.0336
 3195TIP3    H231077   3.852   2.916   1.764 -0.2959  3.6869  0.3002
 3196TIP3   OH231078   2.662   3.184   0.766  0.0358 -0.4418 -0.3315
 3196TIP3    H131079   2.656   3.271   0.805  0.5098 -0.2054 -0.7802
 3196TIP3    H231080   2.617   3.192   0.682  2.1527  0.0209 -1.4665
 3197TIP3   OH231081   5.394   5.619  13.660 -0.1108  0.3293  0.1001
 3197TIP3    H131082   5.468   5.654  13.610 -0.2142  0.9692  0.3847
 3197TIP3    H231083   5.433   5.593  13.744 -0.5664  2.8678  1.1892
 3198TIP3   OH231084   0.963   2.300   3.464  0.2065 -0.2587 -0.2117
 3198TIP3    H131085   1.041   2.355   3.473  0.5350 -0.5067 -1.3626
 3198TIP3    H231086   0.902   2.353   3.414 -0.7788  0.3143  1.5073
 3199TIP3   OH231087   0.195   2.404  12.065 -0.4321 -0.5285 -0.6942
 3199TIP3    H131088   0.244   2.467  12.013  0.3746 -0.1217  0.5346
 3199TIP3    H231089   0.222   2.420  12.155 -1.5726 -1.4251 -0.1645
 3200TIP3   OH231090   1.265   1.591  11.239 -0.0947  0.4244  0.1123
 3200TIP3    H131091   1.360   1.605  11.239  0.0205 -0.1682  1.6095
 3200TIP3    H231092   1.228   1.676  11.265  0.0720  0.4703  0.2030
 3201TIP3   OH231093   1.292   5.772   3.685 -0.4111  0.3400 -0.1460
 3201TIP3    H131094   1.277   5.720   3.765 -0.9345  1.0170  0.2069
 3201TIP3    H231095   1.334   5.711   3.625 -4.0067 -1.5592 -0.9811
 3202TIP3   OH231096   4.168   5.933  12.824  0.5777 -0.2632  0.2994
 3202TIP3    H131097   4.139   5.891  12.744 -0.1495 -0.0890  0.4661
 3202TIP3    H231098   4.263   5.943  12.813  0.4857 -0.2406 -0.5349
 3203TIP3   OH231099   3.670   6.769   2.864  0.4440 -1.0608 -0.0591
 3203TIP3    H131100   3.729   6.717   2.809 -0.2556  0.4002 -2.3342
 3203TIP3    H231101   3.689   6.860   2.841 -0.7691 -0.4360  1.2227
 3204TIP3   OH231102   6.401   5.203  13.532 -0.8141  0.2643  0.7663
 3204TIP3    H131103   6.391   5.154  13.451 -1.2705  2.1521 -0.3941
 3204TIP3    H231104   6.313   5.208  13.569 -0.7728  0.2235  0.8717
 3205TIP3   OH231105   4.181   6.219  12.917  0.0936  0.0628 -0.2668
 3205TIP3    H131106   4.211   6.277  12.987  0.1591 -0.0444 -0.2047
 3205TIP3    H231107   4.228   6.249  12.840 -1.4599  1.4463 -0.7080
 3206TIP3   OH231108   5.620   1.219  12.230  0.0820  0.1721  0.3223
 3206TIP3    H131109   5.646   1.295  12.179  0.2612 -0.3681 -0.4056
 3206TIP3    H231110   5.571   1.164  12.168  0.5211 -0.6121  0.6559
 3207TIP3   OH231111   4.115   2.258   3.495  0.2390  0.1632  0.9110
 3207TIP3    H131112   4.160   2.186   3.539  1.8725  0.6287  0.0637
 3207TIP3    H231113   4.037   2.274   3.550  0.1232 -1.8418  1.4198
 3208TIP3   OH231114   6.127   3.783  12.415  0.5140  0.2739  0.5727
 3208TIP3    H131115   6.202   3.724  12.409  0.7948  0.5165  1.5072
 3208TIP3    H231116   6.141   3.846  12.344 -1.3333 -2.4058 -2.4703
 3209TIP3   OH231117   3.279   0.883  16.884  0.4397 -0.4358 -0.1024
 3209TIP3    H131118   3.253   0.799  16.922  1.2019 -0.6887 -0.1303
 3209TIP3    H231119   3.362   0.904  16.926 -0.2145  0.7957  0.6342
 3210TIP3   OH231120   2.128   0.532  13.008  0.4832  0.0335  0.1340
 3210TIP3    H131121   2.120   0.470  13.081 -0.9145  0.1157  0.0840
 3210TIP3    H231122   2.114   0.478  12.930  2.0688 -0.0712 -0.1113
 3211TIP3   OH231123   2.839   3.138  13.044 -0.1360  0.0003 -0.1736
 3211TIP3    H131124   2.894   3.114  12.969 -0.9766  2.0088 -1.5028
 3211TIP3    H231125   2.825   3.232  13.035 -0.2941  0.3265  2.5291
 3212TIP3   OH231126   2.789   4.222  13.006  0.1202 -0.0850 -0.1486
 3212TIP3    H131127   2.767   4.313  13.024 -0.1784 -0.2897  0.5506
 3212TIP3    H231128   2.883   4.215  13.024  0.1363  0.0778 -0.1746
 3213TIP3   OH231129   0.452   6.062  12.490 -0.1222 -0.1774  0.4965
 3213TIP3    H131130   0.544   6.050  12.512 -0.0104 -1.2550 -0.4656
 3213TIP3    H231131   0.406   6.000  12.547 -0.2602  0.3489  0.9655
 3214TIP3   OH231132   6.234   1.163  15.497  0.2548 -0.4128 -0.1305
 3214TIP3    H131133   6.142   1.150  15.475  0.5481 -0.0222 -1.7221
 3214TIP3    H231134   6.263   1.080  15.534 -0.9649 -0.2320  1.2971
 3215TIP3   OH231135   4.674   6.570  13.041 -0.0662 -0.1990  0.5616
 3215TIP3    H131136   4.660   6.658  13.006  0.4454 -0.2459  0.2310
 3215TIP3    H231137   4.768   6.555  13.031  0.2036  0.0017  2.4650
 3216TIP3   OH231138   4.773   6.650  12.698  0.5403 -0.0435  0.0776
 3216TIP3    H131139   4.753   6.690  12.614 -0.5580 -0.2560  0.2302
 3216TIP3    H231140   4.727   6.704  12.762 -1.2349 -1.6956  0.2622
 3217TIP3   OH231141   3.004   5.370  11.379  0.0433 -0.2213 -0.2436
 3217TIP3    H131142   2.953   5.396  11.455 -0.3632  0.6537 -0.7949
 3217TIP3    H231143   3.067   5.306  11.412  1.0525  1.4375  1.1768
 3218TIP3   OH231144   6.446   2.405  12.173  0.1417  0.4667 -0.1256
 3218TIP3    H131145   6.534   2.369  12.157  0.4615  0.8657  0.6421
 3218TIP3    H231146   6.463   2.495  12.202 -0.3929  0.0249  1.7090
 3219TIP3   OH231147   3.780   5.792  13.258  0.0957 -0.1535  0.4960
 3219TIP3    H131148   3.866   5.761  13.230  0.0544 -1.0969  1.3594
 3219TIP3    H231149   3.778   5.776  13.352 -1.0641 -0.2374  0.4715
 3220TIP3   OH231150   2.248   5.378  15.224 -0.0558 -0.0025  0.0436
 3220TIP3    H131151   2.316   5.442  15.248  1.8418 -1.4527 -1.2185
 3220TIP3    H231152   2.222   5.403  15.136  0.1477 -0.5042 -0.1621
 3221TIP3   OH231153   0.484   6.647  11.845 -0.3183  0.1396 -0.4877
 3221TIP3    H131154   0.486   6.734  11.806 -1.3868 -0.0737 -1.0721
 3221TIP3    H231155   0.433   6.658  11.925 -0.0728  0.1304 -0.3283
 3222TIP3   OH231156   1.603   5.756   0.029  0.1062 -0.0335  0.3521
 3222TIP3    H131157   1.608   5.835   0.084 -1.8352  0.0253  0.5110
 3222TIP3    H231158   1.523   5.769  -0.023 -0.0702 -1.7506  0.1624
 3223TIP3   OH231159   5.440   2.917   5.872  0.3402  0.0226 -0.3330
 3223TIP3    H131160   5.404   2.887   5.788 -1.6208 -0.7763  0.7355
 3223TIP3    H231161   5.366   2.918   5.931  1.3947  2.0265  1.0574
 3224TIP3   OH231162   4.745   1.969   2.970  0.5071 -0.7818 -0.1609
 3224TIP3    H131163   4.659   2.010   2.984  0.2593 -0.5367 -2.1492
 3224TIP3    H231164   4.806   2.042   2.963  0.1611 -0.6732 -3.0839
 3225TIP3   OH231165   5.175   4.599   3.905 -0.1584  0.0632  0.7780
 3225TIP3    H131166   5.231   4.537   3.951  0.2509  0.3361  0.6482
 3225TIP3    H231167   5.228   4.631   3.832 -0.7513 -0.2549  0.2005
 3226TIP3   OH231168   5.880   3.685  16.403 -0.0620  0.0859  0.3094
 3226TIP3    H131169   5.888   3.714  16.494  0.4760  1.2508 -0.0809
 3226TIP3    H231170   5.915   3.758  16.352  1.3294 -1.2644 -0.7675
 3227TIP3   OH231171   6.065   3.939  14.125  0.3340 -0.2229  0.2441
 3227TIP3    H131172   5.975   3.960  14.152  0.6047 -0.9440  1.8520
 3227TIP3    H231173   6.078   3.850  14.157  0.8239 -1.0821 -2.1390
 3228TIP3   OH231174   2.537   1.290   3.010  0.3078  0.3943  0.1552
 3228TIP3    H131175   2.442   1.284   3.018  0.1805  1.2877 -0.6022
 3228TIP3    H231176   2.556   1.267   2.920  0.9301 -0.8523  0.5762
 3229TIP3   OH231177   0.871   4.897   3.481  0.0462  0.0292  0.9325
 3229TIP3    H131178   0.928   4.939   3.546  0.2694  1.5417 -0.1876
 3229TIP3    H231179   0.898   4.934   3.397  0.0114 -2.1504 -0.1195
 3230TIP3   OH231180   3.625   5.926  14.596 -0.3362 -0.2128 -0.8228
 3230TIP3    H131181   3.599   6.001  14.542  1.1073  0.7241 -0.2810
 3230TIP3    H231182   3.610   5.955  14.686  2.2659  0.3609 -0.4675
 3231TIP3   OH231183   0.333   2.440   6.039 -0.3723  0.6142  0.5833
 3231TIP3    H131184   0.424   2.468   6.029 -0.4619  1.0086  0.8556
 3231TIP3    H231185   0.307   2.409   5.952  0.5766 -1.1800  0.8781
 3232TIP3   OH231186   0.991   3.018  13.295 -0.2408 -0.2347  0.3885
 3232TIP3    H131187   1.053   3.058  13.356 -2.3485 -0.9013  3.1910
 3232TIP3    H231188   1.041   2.948  13.253  1.8892  1.6306 -0.3918
 3233TIP3   OH231189   0.678   1.560  12.874 -0.1452 -0.2373  0.0876
 3233TIP3    H131190   0.691   1.474  12.916 -0.4781  0.4740  1.7118
 3233TIP3    H231191   0.755   1.611  12.900 -0.9375  0.5934  0.8418
 3234TIP3   OH231192   1.035   5.424   4.881  0.1838 -0.4460  1.0113
 3234TIP3    H131193   1.126   5.433   4.907  0.3462  0.8467  0.0948
 3234TIP3    H231194   1.038   5.384   4.794 -0.1598 -0.9725  1.2366
 3235TIP3   OH231195   5.289   5.835   5.502 -0.0342 -0.5802 -0.3324
 3235TIP3    H131196   5.251   5.767   5.447  1.0555 -0.2779 -1.4908
 3235TIP3    H231197   5.213   5.883   5.536 -0.8774 -2.8229  1.1878
 3236TIP3   OH231198   0.220   5.513  13.709  0.2607 -0.1700  0.4296
 3236TIP3    H131199   0.224   5.608  13.703  0.2830 -0.1964  0.0210
 3236TIP3    H231200   0.309   5.484  13.687 -0.0303 -0.3402 -0.5934
 3237TIP3   OH231201   0.202   6.343   4.877 -0.0492 -0.4951  0.0723
 3237TIP3    H131202   0.271   6.373   4.818 -0.4456  1.1305  0.3966
 3237TIP3    H231203   0.156   6.275   4.827  0.8843 -0.5968 -0.6807
 3238TIP3   OH231204   1.866   4.440   2.986 -0.0119 -0.3271 -0.0200
 3238TIP3    H131205   1.896   4.526   3.014  0.4490 -0.6667  0.5662
 3238TIP3    H231206   1.846   4.450   2.893  1.1751  0.1270 -0.2489
 3239TIP3   OH231207   5.641   2.201   1.278 -0.4192 -0.0593 -0.0079
 3239TIP3    H131208   5.615   2.235   1.193  0.5183  0.5336 -0.0755
 3239TIP3    H231209   5.702   2.266   1.313 -0.1794 -0.6727  0.7687
 3240TIP3   OH231210   0.377   5.850   2.234 -0.0280 -0.9053  0.4649
 3240TIP3    H131211   0.354   5.843   2.327  2.1885  1.6551  1.3345
 3240TIP3    H231212   0.375   5.760   2.202 -0.8316 -1.8654  3.0059
 3241TIP3   OH231213   4.263   1.056  12.280  0.1774 -0.2400  0.0874
 3241TIP3    H131214   4.236   1.004  12.355 -0.1719 -0.7044 -0.3574
 3241TIP3    H231215   4.201   1.128  12.276  1.5034  1.0546  1.5666
 3242TIP3   OH231216   3.519   3.838  14.385  0.0976  0.2637 -0.2919
 3242TIP3    H131217   3.586   3.866  14.322 -0.8635  0.3356 -1.3250
 3242TIP3    H231218   3.447   3.901  14.372  0.1912  0.7832  1.4761
 3243TIP3   OH231219   3.720   5.321   0.926  0.0139  0.0740 -0.0148
 3243TIP3    H131220   3.761   5.296   1.009 -2.5842 -0.4260  1.2231
 3243TIP3    H231221   3.694   5.412   0.939  3.0900  1.3557 -1.8606
 3244TIP3   OH231222   4.795   0.826  14.756  0.1003  0.1626  0.5333
 3244TIP3    H131223   4.825   0.766  14.825 -0.5227  0.0867  0.7518
 3244TIP3    H231224   4.810   0.779  14.675 -1.9695 -1.0703  0.7741
 3245TIP3   OH231225   3.673   4.442   3.900 -0.3039  0.5074  0.1660
 3245TIP3    H131226   3.695   4.372   3.961  0.5099  0.7370  0.1432
 3245TIP3    H231227   3.739   4.436   3.831 -0.1499  1.3689  0.2274
 3246TIP3   OH231228   1.268   4.230  15.304  0.6221 -0.9228  0.3829
 3246TIP3    H131229   1.333   4.170  15.340  2.4134 -0.2388 -1.5363
 3246TIP3    H231230   1.261   4.206  15.212 -1.4448 -0.5801  0.3906
 3247TIP3   OH231231   1.626   3.874  15.337 -0.4710 -0.0658  0.3454
 3247TIP3    H131232   1.563   3.860  15.266 -1.8093  0.7854  1.3218
 3247TIP3    H231233   1.646   3.786  15.368 -0.6945 -0.3840 -0.3889
 3248TIP3   OH231234   5.252   6.230  11.518 -0.3952 -0.2785  0.6124
 3248TIP3    H131235   5.228   6.169  11.588  0.2729  0.5242  1.5717
 3248TIP3    H231236   5.341   6.258  11.541 -0.3536  0.3716 -0.3002
 3249TIP3   OH231237   0.517   0.039   0.933 -0.2332  0.1713  0.8687
 3249TIP3    H131238   0.485   0.064   1.020 -1.8473  1.4716 -0.0706
 3249TIP3    H231239   0.559   0.118   0.899  0.5247 -0.3764  0.5076
 3250TIP3   OH231240   6.669   2.698  12.455  0.0887 -0.0669  0.8252
 3250TIP3    H131241   6.738   2.754  12.492 -0.0023 -0.3152  1.3807
 3250TIP3    H231242   6.674   2.618  12.507  0.0441 -0.4765  0.2061
 3251TIP3   OH231243   0.602   6.742  10.781  0.3103 -0.8723 -0.3016
 3251TIP3    H131244   0.564   6.748  10.694 -0.0445 -0.5522 -0.1259
 3251TIP3    H231245   0.674   6.680  10.772 -0.3430 -1.5935 -0.6002
 3252TIP3   OH231246   2.103   0.261   5.849  0.3051 -0.0245  0.3043
 3252TIP3    H131247   2.013   0.229   5.858  0.2322 -0.0276 -0.3878
 3252TIP3    H231248   2.155   0.200   5.902 -0.4111  1.7087  3.2407
 3253TIP3   OH231249   6.491   3.879  11.732  0.0844 -0.2792  0.1197
 3253TIP3    H131250   6.434   3.947  11.696 -0.3396 -1.1287 -0.8388
 3253TIP3    H231251   6.444   3.847  11.809  0.2793  0.4793  0.5738
 3254TIP3   OH231252   2.488   5.574   3.703  0.2372  0.3602 -0.1669
 3254TIP3    H131253   2.523   5.659   3.731 -1.1446  0.9063 -0.0176
 3254TIP3    H231254   2.430   5.548   3.774  1.3587 -1.1862  0.2233
 3255TIP3   OH231255   1.198   1.414   1.287  0.3902 -0.0849 -0.3957
 3255TIP3    H131256   1.210   1.476   1.359  0.5604 -0.2330 -0.2944
 3255TIP3    H231257   1.112   1.434   1.252  0.5666  0.3979 -0.5483
 3256TIP3   OH231258   4.514   3.746   4.460 -0.0703  0.3757 -0.1884
 3256TIP3    H131259   4.475   3.697   4.532  0.7656 -0.5491 -0.3428
 3256TIP3    H231260   4.589   3.792   4.499  0.8316 -0.7146 -0.5925
 3257TIP3   OH231261   0.395   1.333   6.460  0.1761 -0.0627  0.5034
 3257TIP3    H131262   0.420   1.385   6.384 -3.1809  1.6700  0.4113
 3257TIP3    H231263   0.467   1.346   6.523  1.1287  1.7307 -0.8853
 3258TIP3   OH231264   6.095   1.648  11.742 -0.4755  0.2502 -0.5207
 3258TIP3    H131265   6.038   1.623  11.670  0.1598  3.2699 -2.2515
 3258TIP3    H231266   6.035   1.674  11.812 -1.1492 -0.4827 -0.8155
 3259TIP3   OH231267   6.539   5.200   1.854  0.3783  0.0970  0.4111
 3259TIP3    H131268   6.549   5.224   1.946 -1.0222  0.5145  0.4847
 3259TIP3    H231269   6.600   5.256   1.807  1.2260 -0.2321  1.0903
 3260TIP3   OH231270   2.104   2.793  14.326  0.2847 -0.0096  0.3039
 3260TIP3    H131271   2.139   2.848  14.396 -0.9794  1.0181  0.1740
 3260TIP3    H231272   2.142   2.707  14.341  1.6632  0.6953  1.0147
 3261TIP3   OH231273   5.323   1.088   2.832  0.0646  0.1906 -0.3064
 3261TIP3    H131274   5.368   1.171   2.849 -0.7058  0.5278  0.1612
 3261TIP3    H231275   5.368   1.025   2.889 -0.1588  0.5580  0.2869
 3262TIP3   OH231276   4.549   1.620   0.737 -0.0755  0.2324 -0.3949
 3262TIP3    H131277   4.609   1.677   0.690 -0.6859  0.9987 -0.2639
 3262TIP3    H231278   4.571   1.633   0.830 -0.8579  1.0162 -0.3042
 3263TIP3   OH231279   1.676   4.891   3.492 -0.7253  0.2072 -0.1815
 3263TIP3    H131280   1.609   4.913   3.427 -3.3609 -0.5444  2.0784
 3263TIP3    H231281   1.677   4.967   3.551 -1.5649 -0.8194  1.2386
 3264TIP3   OH231282   3.539   4.150   2.027  0.6466 -0.2675 -0.2005
 3264TIP3    H131283   3.561   4.213   2.096 -0.0761  0.0810 -0.2755
 3264TIP3    H231284   3.547   4.065   2.068  2.0497 -0.1648 -0.2078
 3265TIP3   OH231285   3.445   4.953   5.356  0.1706 -0.0225  0.1605
 3265TIP3    H131286   3.413   4.988   5.440  1.6487  2.7211 -0.2797
 3265TIP3    H231287   3.427   5.023   5.293  1.1783 -1.0754 -1.3575
 3266TIP3   OH231288   3.641   6.183   1.596  0.0249  0.7205  0.3006
 3266TIP3    H131289   3.680   6.116   1.651  0.7098  1.9289  1.3543
 3266TIP3    H231290   3.577   6.136   1.542 -0.5267 -0.5681  1.9732
 3267TIP3   OH231291   5.716   0.605   0.449  0.1832  0.0887 -0.1904
 3267TIP3    H131292   5.655   0.592   0.522  0.6500 -0.9428  0.0264
 3267TIP3    H231293   5.687   0.687   0.409 -2.0376 -0.9230 -0.7927
 3268TIP3   OH231294   6.827   4.756   3.456 -0.0927 -0.2936  0.4565
 3268TIP3    H131295   6.764   4.779   3.524  0.6504  3.6604  0.0756
 3268TIP3    H231296   6.913   4.763   3.499  0.3027  0.5499 -0.4313
 3269TIP3   OH231297   6.086   2.465  12.025  0.1435 -0.5622 -0.4489
 3269TIP3    H131298   6.065   2.492  12.114  0.5437 -2.6781  0.3652
 3269TIP3    H231299   6.120   2.376  12.035  2.1004 -0.1405 -2.5009
 3270TIP3   OH231300   4.500   5.744   5.439 -0.2779  0.2218  0.3541
 3270TIP3    H131301   4.467   5.717   5.353  0.0102  0.2779  0.2263
 3270TIP3    H231302   4.557   5.673   5.467 -0.0992  0.3595  0.3450
 3271TIP3   OH231303   5.309   4.368   1.065  0.0880  0.0544  0.7609
 3271TIP3    H131304   5.287   4.456   1.034  0.4500  1.3388  3.7569
 3271TIP3    H231305   5.224   4.328   1.084 -0.1329 -0.7308 -1.6183
 3272TIP3   OH231306   6.328   2.224  13.889  0.1920 -0.3771  0.2131
 3272TIP3    H131307   6.273   2.300  13.910 -0.1395 -1.4291  3.7485
 3272TIP3    H231308   6.271   2.167  13.837 -1.1466 -0.1961  1.4108
 3273TIP3   OH231309   4.883   3.931  13.182  0.6008 -0.1941 -0.2321
 3273TIP3    H131310   4.860   4.013  13.225  0.8586 -0.3989  0.2988
 3273TIP3    H231311   4.936   3.884  13.246  1.0274 -0.4824 -0.7897
 3274TIP3   OH231312   1.726   0.004   5.542 -0.2323  0.7951 -0.0212
 3274TIP3    H131313   1.775   0.074   5.498 -0.9725  2.3075  1.4393
 3274TIP3    H231314   1.793  -0.044   5.591  0.4261 -0.1940 -1.7880
 3275TIP3   OH231315   0.701   4.637  13.364 -0.6655 -0.0699  0.0727
 3275TIP3    H131316   0.779   4.641  13.419  0.0824  2.2575 -1.0309
 3275TIP3    H231317   0.657   4.556  13.391  1.6189 -0.9788  1.3776
 3276TIP3   OH231318   5.640   5.393   1.543 -0.5373 -0.0114 -0.4283
 3276TIP3    H131319   5.666   5.325   1.606 -0.3544  0.3012 -0.1641
 3276TIP3    H231320   5.675   5.362   1.459  0.8609  0.4915 -0.0476
 3277TIP3   OH231321   6.394   0.229  13.275  0.4825 -0.3759  0.0145
 3277TIP3    H131322   6.370   0.157  13.334  0.9024 -1.5881 -1.2277
 3277TIP3    H231323   6.427   0.185  13.197 -0.8521  1.1519 -1.4833
 3278TIP3   OH231324   4.506   4.518   5.013 -0.0926 -0.9194 -0.3219
 3278TIP3    H131325   4.479   4.469   5.090  1.1721 -1.0971  0.0280
 3278TIP3    H231326   4.487   4.460   4.939 -1.5543 -0.6394 -0.1835
 3279TIP3   OH231327   4.137   0.158   2.831  0.1544 -0.3385 -0.3983
 3279TIP3    H131328   4.179   0.244   2.840 -0.8741  0.2752 -1.1428
 3279TIP3    H231329   4.065   0.160   2.895 -0.1850 -0.4392 -0.7727
 3280TIP3   OH231330   5.570   4.972  14.533 -0.1813 -0.1152 -0.8207
 3280TIP3    H131331   5.622   5.022  14.470  0.2745  1.1054  0.4536
 3280TIP3    H231332   5.493   4.944  14.484 -0.2347  1.4757 -1.7307
 3281TIP3   OH231333   2.683   4.194  15.135  0.0652 -0.0859  0.1226
 3281TIP3    H131334   2.727   4.259  15.190  2.4289 -0.3422 -1.3076
 3281TIP3    H231335   2.701   4.110  15.178  1.0963 -0.1937 -0.4784
 3282TIP3   OH231336   6.596   5.427  16.171 -0.9902 -0.5141 -0.0727
 3282TIP3    H131337   6.679   5.467  16.145 -2.2732  1.2552 -1.6849
 3282TIP3    H231338   6.599   5.425  16.267  0.6619  0.0294 -0.0887
 3283TIP3   OH231339   0.004   4.630   2.447 -0.5041 -0.1259  0.0924
 3283TIP3    H131340  -0.033   4.619   2.359  0.7650  0.7144 -0.5919
 3283TIP3    H231341   0.098   4.619   2.434 -0.1658  1.2771  1.0995
 3284TIP3   OH231342   2.915   1.397  16.847  0.4446 -0.0522  0.2169
 3284TIP3    H131343   2.970   1.319  16.861 -0.9597 -1.1350 -0.1053
 3284TIP3    H231344   2.914   1.441  16.932 -0.2962 -1.4414  0.9625
 3285TIP3   OH231345   1.717   3.114  13.133  0.0714  0.2724  0.1426
 3285TIP3    H131346   1.763   3.196  13.147  0.9124 -0.0722 -0.5065
 3285TIP3    H231347   1.784   3.046  13.144 -0.5922 -0.3318  0.6136
 3286TIP3   OH231348   5.423   0.102   4.439  0.1567  0.0331 -0.6025
 3286TIP3    H131349   5.450   0.119   4.349  0.3888 -1.5893 -0.8660
 3286TIP3    H231350   5.422   0.189   4.480 -0.0936  0.8173 -2.1814
 3287TIP3   OH231351   3.546   3.885  12.599  0.2634 -0.0570  0.3644
 3287TIP3    H131352   3.624   3.938  12.582  0.1402  0.0584  0.1480
 3287TIP3    H231353   3.546   3.819  12.530 -0.3081  0.4930 -0.1719
 3288TIP3   OH231354   5.784   2.795   2.157  0.5317 -0.2224 -0.0225
 3288TIP3    H131355   5.819   2.825   2.240  2.1514  1.4728 -1.2511
 3288TIP3    H231356   5.848   2.731   2.126 -0.4675 -1.4505  0.3433
 3289TIP3   OH231357   2.033   0.294  16.307 -0.4299 -0.0947 -0.2858
 3289TIP3    H131358   2.045   0.366  16.244 -0.5615  0.1251 -0.0603
 3289TIP3    H231359   2.063   0.330  16.390 -0.1395 -0.4292 -0.2456
 3290TIP3   OH231360   1.270   1.668  16.157  0.2763  0.3326  0.4669
 3290TIP3    H131361   1.260   1.709  16.243 -1.5783 -0.6892  0.7842
 3290TIP3    H231362   1.193   1.696  16.108  0.0587 -1.0352 -0.0194
 3291TIP3   OH231363   4.997   3.160   6.558  0.7502  0.4640 -0.0539
 3291TIP3    H131364   5.071   3.134   6.613  0.6573 -0.5128 -0.3704
 3291TIP3    H231365   5.012   3.114   6.475 -0.4940 -0.2090  0.0708
 3292TIP3   OH231366   0.587   1.668   5.281 -0.3272  0.5251 -0.1177
 3292TIP3    H131367   0.659   1.713   5.326 -0.8076 -0.0593  1.2879
 3292TIP3    H231368   0.516   1.665   5.345 -0.0927 -2.8482  0.1951
 3293TIP3   OH231369   6.552   5.886  13.479 -0.5548  0.3802 -0.5433
 3293TIP3    H131370   6.585   5.812  13.428 -0.7514 -0.0913  0.0167
 3293TIP3    H231371   6.557   5.960  13.418  4.4091  1.0604  0.2756
 3294TIP3   OH231372   1.856   1.637  17.003  0.3287 -0.2621 -0.3395
 3294TIP3    H131373   1.895   1.724  16.994 -0.5754  0.3005  0.7976
 3294TIP3    H231374   1.930   1.578  17.016  0.8744  0.7858  1.9333
 3295TIP3   OH231375   3.468   2.668   3.313 -0.0554  0.4042  0.4278
 3295TIP3    H131376   3.423   2.679   3.229 -0.4314  0.2327  0.6032
 3295TIP3    H231377   3.456   2.751   3.358 -0.7023  0.1685  0.7093
 3296TIP3   OH231378   6.147   2.885   2.427 -0.1219 -0.3905  0.0855
 3296TIP3    H131379   6.143   2.980   2.436 -1.1391 -0.5012  1.0070
 3296TIP3    H231380   6.059   2.855   2.447 -0.3072 -1.4183 -2.0489
 3297TIP3   OH231381   1.078   4.839  12.846  0.1237 -0.2861 -0.2075
 3297TIP3    H131382   1.120   4.867  12.765  0.3387  0.6513  0.2160
 3297TIP3    H231383   1.041   4.753  12.825 -0.2703  0.1572 -1.4607
 3298TIP3   OH231384   3.575   5.346   3.877  0.0744 -0.4205  0.3637
 3298TIP3    H131385   3.630   5.405   3.826 -1.3085  0.0791 -0.6082
 3298TIP3    H231386   3.513   5.404   3.922 -0.1542 -1.0180  0.8280
 3299TIP3   OH231387   3.930   2.295   5.244  0.6177 -0.3593  0.3439
 3299TIP3    H131388   3.945   2.240   5.167  1.1986 -0.7092  0.7052
 3299TIP3    H231389   3.838   2.282   5.265  0.7528 -1.2255  0.4437
 3300TIP3   OH231390   5.833   1.310  13.544  0.1928 -0.0645 -0.5615
 3300TIP3    H131391   5.798   1.331  13.457  1.8937 -0.5199 -1.3923
 3300TIP3    H231392   5.924   1.284  13.528 -0.1428 -2.5253  1.0615
 3301TIP3   OH231393   1.730   2.652  14.679 -0.3559 -0.0433 -0.0681
 3301TIP3    H131394   1.805   2.608  14.639 -0.0529  0.7284 -0.3871
 3301TIP3    H231395   1.720   2.732  14.627 -0.8695  0.2741  0.5092
 3302TIP3   OH231396   5.964   5.147  15.428  0.0349 -0.0360  0.9341
 3302TIP3    H131397   5.962   5.124  15.336 -0.3090  2.6227  0.2045
 3302TIP3    H231398   5.909   5.081  15.471  3.0565 -3.5233 -0.0891
 3303TIP3   OH231399   1.828   1.454  15.523 -0.1763 -0.6490  0.1998
 3303TIP3    H131400   1.836   1.458  15.427 -0.3948 -2.1014  0.0928
 3303TIP3    H231401   1.734   1.445  15.538 -0.4665  2.3088  0.7340
 3304TIP3   OH231402   6.649   1.871   6.299 -0.2397 -0.4005  0.3170
 3304TIP3    H131403   6.695   1.906   6.375  1.8825  0.0197 -1.0590
 3304TIP3    H231404   6.560   1.905   6.307  0.1832  0.3945  2.1063
 3305TIP3   OH231405   0.086   1.912  15.312  0.0054  0.2328  1.0195
 3305TIP3    H131406   0.048   1.825  15.300 -0.3509  0.4336  0.6690
 3305TIP3    H231407   0.013   1.966  15.341  0.2698  0.3725  1.4227
 3306TIP3   OH231408   5.058   1.298  12.588  0.0797  0.4473  0.3907
 3306TIP3    H131409   5.014   1.381  12.611  1.0447  0.7067  1.3815
 3306TIP3    H231410   4.998   1.231  12.620 -0.0884  0.7885  0.8171
 3307TIP3   OH231411   2.553   0.004  13.547  0.2075  0.3427 -0.1402
 3307TIP3    H131412   2.499   0.083  13.540 -0.4459 -0.1706 -1.2550
 3307TIP3    H231413   2.506  -0.052  13.609  0.4301  0.6358  0.2974
 3308TIP3   OH231414   1.714   6.395  12.767 -0.1080 -0.1272 -0.4832
 3308TIP3    H131415   1.774   6.465  12.740 -1.2239  0.4685 -1.5595
 3308TIP3    H231416   1.687   6.354  12.685 -0.7913 -0.6985  0.0122
 3309TIP3   OH231417   4.136   3.492  13.287  0.1687  0.4095 -0.2940
 3309TIP3    H131418   4.125   3.511  13.380 -1.0539  1.6584 -0.6537
 3309TIP3    H231419   4.070   3.425  13.268 -0.0102  0.6056 -0.3754
 3310TIP3   OH231420   6.612   4.751  16.786 -0.5115  0.6578  0.3880
 3310TIP3    H131421   6.660   4.815  16.734 -0.5348  1.8780  1.8159
 3310TIP3    H231422   6.624   4.779  16.876  0.1784 -1.8321  1.1687
 3311TIP3   OH231423   1.330   3.635   5.003 -0.2745 -0.0609  0.0830
 3311TIP3    H131424   1.322   3.539   4.998 -0.6949 -0.0584  0.6547
 3311TIP3    H231425   1.379   3.650   5.083 -1.6984  0.2645  0.9289
 3312TIP3   OH231426   5.288   1.026  11.821  0.3181 -0.4177  0.0686
 3312TIP3    H131427   5.225   0.967  11.779  0.9922 -0.9884 -0.1629
 3312TIP3    H231428   5.372   1.004  11.781  0.2238  2.7579 -2.2768
 3313TIP3   OH231429   3.819   2.586  12.952 -0.3086 -0.1657  0.2848
 3313TIP3    H131430   3.856   2.656  12.898  1.3562 -0.4309  1.0245
 3313TIP3    H231431   3.777   2.526  12.890 -0.6120  0.8037 -0.4616
 3314TIP3   OH231432   1.360   4.968  14.824  0.3252 -0.3306 -0.1996
 3314TIP3    H131433   1.356   4.915  14.745 -0.2678  1.0156 -1.1151
 3314TIP3    H231434   1.318   4.915  14.892  1.8260 -1.9623 -0.4772
 3315TIP3   OH231435   6.126   3.357   6.101 -0.1071  0.3352 -0.0955
 3315TIP3    H131436   6.043   3.329   6.138  1.0780 -1.0243  1.6865
 3315TIP3    H231437   6.186   3.283   6.116  1.9807  2.0687  0.7089
 3316TIP3   OH231438   2.812   1.107  16.487 -0.1732  0.5179  0.2202
 3316TIP3    H131439   2.789   1.198  16.501  0.5412  0.5620  1.2390
 3316TIP3    H231440   2.751   1.058  16.542 -1.7462  0.2156 -1.6561
 3317TIP3   OH231441   6.550   3.129  11.959  0.3074  0.5660 -0.4419
 3317TIP3    H131442   6.503   3.177  12.028  0.8374  0.2943  0.1236
 3317TIP3    H231443   6.497   3.142  11.880 -0.6695  0.3463  0.1536
 3318TIP3   OH231444   3.159   0.623  13.707  0.9556  0.1738 -0.4954
 3318TIP3    H131445   3.068   0.627  13.678  1.0222 -1.2715 -0.9995
 3318TIP3    H231446   3.158   0.657  13.796 -0.2225 -0.5991 -0.1948
 3319TIP3   OH231447   4.238   4.753   2.959 -0.3822  0.1828 -0.1066
 3319TIP3    H131448   4.267   4.812   2.890 -0.7521 -0.1131 -0.5291
 3319TIP3    H231449   4.308   4.755   3.024  0.5474 -0.4291 -1.0382
 3320TIP3   OH231450   2.812   3.448  13.129  0.0313  0.1524 -0.1354
 3320TIP3    H131451   2.877   3.519  13.131 -0.0356  0.2616 -1.3241
 3320TIP3    H231452   2.737   3.486  13.085  0.9255 -1.3846 -3.2417
 3321TIP3   OH231453   1.627   6.218   2.041  0.2994 -0.3447 -0.4886
 3321TIP3    H131454   1.660   6.304   2.015 -0.2981  0.2907  0.7666
 3321TIP3    H231455   1.595   6.179   1.960  0.3468  0.7141 -1.0376
 3322TIP3   OH231456   5.747   4.470  15.834 -0.2717 -0.5413  0.3178
 3322TIP3    H131457   5.699   4.551  15.851  0.1593 -0.1264 -0.3938
 3322TIP3    H231458   5.813   4.467  15.904  0.1743  0.0999 -0.0619
 3323TIP3   OH231459   4.715   5.832  12.799 -0.1424 -0.4654  0.6724
 3323TIP3    H131460   4.718   5.913  12.748 -0.9744 -0.9985 -0.2523
 3323TIP3    H231461   4.765   5.852  12.879  0.0491  0.8029  0.2552
 3324TIP3   OH231462   4.579   6.306  13.543 -0.5059 -0.0212  0.3607
 3324TIP3    H131463   4.592   6.358  13.464  1.1494 -1.1262 -0.1507
 3324TIP3    H231464   4.663   6.310  13.588 -1.4185  0.5544  2.0693
 3325TIP3   OH231465   0.425   5.732   1.774  0.2850 -0.3262  0.1761
 3325TIP3    H131466   0.493   5.693   1.720 -1.3077 -2.4596 -0.3817
 3325TIP3    H231467   0.364   5.772   1.712 -0.1724 -0.4325  0.5540
 3326TIP3   OH231468   4.425   2.080   4.368  0.3032 -0.3914 -0.4702
 3326TIP3    H131469   4.427   1.990   4.336 -1.2781 -0.1704 -1.2888
 3326TIP3    H231470   4.466   2.131   4.298 -0.0292 -0.3113 -0.6055
 3327TIP3   OH231471   4.751   4.626  16.731  0.2754  0.0871  0.2630
 3327TIP3    H131472   4.687   4.660  16.669  0.3031 -0.3686 -0.0165
 3327TIP3    H231473   4.702   4.612  16.812  0.3818  1.3215  0.5525
 3328TIP3   OH231474   5.676   1.447   0.268 -0.4229  0.1329  0.6923
 3328TIP3    H131475   5.678   1.365   0.219 -1.6547  0.9076 -0.7674
 3328TIP3    H231476   5.602   1.437   0.328 -0.0826 -0.1186  1.0691
 3329TIP3   OH231477   1.081   1.042  16.829 -0.4111  0.9907 -0.2955
 3329TIP3    H131478   0.997   0.997  16.824  0.1751  0.0098 -3.1738
 3329TIP3    H231479   1.122   1.009  16.909 -2.2610  0.6463  0.5631
 3330TIP3   OH231480   4.601   4.859   3.295 -0.6017 -0.2173  0.2511
 3330TIP3    H131481   4.600   4.775   3.341 -0.6479 -0.7150 -0.6242
 3330TIP3    H231482   4.566   4.839   3.208  0.7854  0.3885 -0.4853
 3331TIP3   OH231483   5.970   2.517  11.450 -0.3798  0.6791 -0.2350
 3331TIP3    H131484   6.023   2.565  11.387  0.6079  0.5196  0.4480
 3331TIP3    H231485   6.009   2.430  11.452 -0.6125  0.5865  0.3440
 3332TIP3   OH231486   4.634   6.464  13.286  0.0020  0.3285 -0.5609
 3332TIP3    H131487   4.642   6.503  13.199 -0.9452  1.9662  0.0279
 3332TIP3    H231488   4.716   6.417  13.300  0.4134  0.5513 -2.0746
 3333TIP3   OH231489   1.709   6.291  11.582  0.2579  0.1288 -0.0157
 3333TIP3    H131490   1.639   6.226  11.587 -1.0474  1.4917  0.2400
 3333TIP3    H231491   1.789   6.240  11.582 -0.6519 -1.4388  1.8884
 3334TIP3   OH231492   5.635   1.136   0.636 -0.2086 -0.2627 -0.3301
 3334TIP3    H131493   5.726   1.159   0.614 -0.8484  1.9443 -0.9787
 3334TIP3    H231494   5.642   1.063   0.697  1.9542 -1.0017 -1.3653
 3335TIP3   OH231495   4.549   3.025   5.340  0.2661 -0.4907 -0.2216
 3335TIP3    H131496   4.571   2.946   5.390 -1.4268  0.1957  1.7459
 3335TIP3    H231497   4.527   2.992   5.253 -0.5004 -2.2396  0.5678
 3336TIP3   OH231498   5.630   6.220   6.200 -0.0687 -0.1630 -0.4010
 3336TIP3    H131499   5.725   6.224   6.185  0.0844 -0.4571  0.4851
 3336TIP3    H231500   5.593   6.255   6.119  0.7987  0.0973 -0.7055
 3337TIP3   OH231501   6.729   1.491  16.749  0.4233  0.1235  0.4886
 3337TIP3    H131502   6.654   1.476  16.691 -0.2377  0.0556  1.3563
 3337TIP3    H231503   6.740   1.409  16.797  2.2217 -0.5375 -0.9229
 3338TIP3   OH231504   4.841   2.975   3.502 -0.1656  0.1206  0.1590
 3338TIP3    H131505   4.819   3.020   3.421  1.3954  0.5861 -0.0511
 3338TIP3    H231506   4.854   3.045   3.566  1.2380 -0.0498  0.1027
 3339TIP3   OH231507   0.765   5.277  13.655 -0.0405  0.0684  0.0210
 3339TIP3    H131508   0.708   5.336  13.607  1.1272  0.7067 -0.6250
 3339TIP3    H231509   0.804   5.331  13.723 -0.1300 -0.3421  0.4058
 3340TIP3   OH231510   0.367   5.881   4.927 -0.0491  0.2127 -0.7985
 3340TIP3    H131511   0.398   5.793   4.905  0.7160  0.5695 -1.1528
 3340TIP3    H231512   0.356   5.925   4.843  1.9294  1.2575 -0.5547
 3341TIP3   OH231513   4.294   2.298  12.501 -0.5595  0.4288  0.6614
 3341TIP3    H131514   4.366   2.235  12.506  0.5089  1.5677  0.0061
 3341TIP3    H231515   4.286   2.332  12.590  0.6492  1.2927  0.4599
 3342TIP3   OH231516   0.388   1.580   4.533  0.0554 -0.2225  0.3148
 3342TIP3    H131517   0.441   1.506   4.563 -0.5556 -1.1008 -0.7145
 3342TIP3    H231518   0.342   1.610   4.612 -0.1022 -1.2857  0.6389
 3343TIP3   OH231519   1.101   6.337   1.716 -0.8330  0.1032  0.5442
 3343TIP3    H131520   1.163   6.314   1.785  0.8189  2.1518 -0.1520
 3343TIP3    H231521   1.085   6.431   1.728 -1.4049  0.2598 -1.1469
 3344TIP3   OH231522   3.635   4.332  13.328 -0.1554  0.5089 -0.3318
 3344TIP3    H131523   3.642   4.251  13.378  0.0463  0.8310  0.1669
 3344TIP3    H231524   3.723   4.368  13.327 -0.1792  0.5651 -0.8271
 3345TIP3   OH231525   6.427   2.592   2.980 -0.1786  0.3125 -0.6272
 3345TIP3    H131526   6.459   2.583   2.890  2.0453 -0.4411  0.1792
 3345TIP3    H231527   6.386   2.507   2.999  0.1205  0.1570 -0.6639
 3346TIP3   OH231528   2.647   5.070   4.061  0.3187  0.2454  0.1342
 3346TIP3    H131529   2.704   5.065   3.984 -0.1214  0.8503 -0.2410
 3346TIP3    H231530   2.613   5.159   4.060 -1.1320 -0.2705 -0.0238
 3347TIP3   OH231531   4.710   6.000   0.547  0.0601  0.0883 -0.2647
 3347TIP3    H131532   4.676   5.911   0.553  1.7625 -0.6586 -1.0381
 3347TIP3    H231533   4.656   6.043   0.480 -0.2273 -0.6220 -0.4902
 3348TIP3   OH231534   1.270   2.016  10.348 -0.4883 -0.2526  0.2493
 3348TIP3    H131535   1.332   2.033  10.419  0.9984 -1.0957 -0.8018
 3348TIP3    H231536   1.253   2.103  10.310 -1.1116  0.1701  1.4551
 3349TIP3   OH231537   5.431   0.827   0.604 -0.0631  0.4753 -0.1251
 3349TIP3    H131538   5.483   0.881   0.663  0.8103  0.4566 -0.8568
 3349TIP3    H231539   5.476   0.833   0.520 -0.9264 -0.0106 -0.6353
 3350TIP3   OH231540   2.345   0.237  10.840 -0.1936 -0.1790  0.4574
 3350TIP3    H131541   2.354   0.192  10.756  0.6346  0.4290  0.2137
 3350TIP3    H231542   2.428   0.283  10.853  0.1634 -1.2120  2.1812
 3351TIP3   OH231543   1.546   2.145   1.156  0.3574 -0.2436  0.7168
 3351TIP3    H131544   1.546   2.147   1.252 -0.2709 -1.0826  0.7467
 3351TIP3    H231545   1.638   2.145   1.132  0.5340  0.9814  1.2836
 3352TIP3   OH231546   2.077   1.091  15.398  0.4220  0.9990 -0.6153
 3352TIP3    H131547   2.150   1.050  15.446  0.0519 -1.8548 -2.2997
 3352TIP3    H231548   1.999   1.066  15.448  0.3247  1.3252 -0.6004
 3353TIP3   OH231549   0.964   0.018   1.809  0.0602  0.4494 -0.4937
 3353TIP3    H131550   1.025   0.014   1.882  0.2756 -0.4096 -0.7138
 3353TIP3    H231551   1.018   0.048   1.735  0.1367  0.0200 -0.6104
 3354TIP3   OH231552   1.463   5.366  13.680 -0.1516 -0.1739  0.3528
 3354TIP3    H131553   1.502   5.398  13.762 -0.6680 -0.3050  0.6541
 3354TIP3    H231554   1.444   5.445  13.630  0.2247 -0.0964  0.3347
 3355TIP3   OH231555   1.631   0.757   0.785  0.5727 -0.2902 -0.2854
 3355TIP3    H131556   1.579   0.678   0.770  0.9465 -0.6495  0.2998
 3355TIP3    H231557   1.674   0.773   0.701  0.4808 -0.6984 -0.4131
 3356TIP3   OH231558   0.845   1.710  16.817  0.0317  0.1638 -0.8288
 3356TIP3    H131559   0.855   1.680  16.726 -0.4980 -1.5124 -0.3551
 3356TIP3    H231560   0.752   1.728  16.825  0.1848  0.9855 -0.7953
 3357TIP3   OH231561   5.377   1.055   5.785 -0.1002 -0.1053 -0.0215
 3357TIP3    H131562   5.373   0.992   5.857  0.5590 -0.9226 -0.6825
 3357TIP3    H231563   5.332   1.132   5.819 -1.3513 -1.0836  0.6549
 3358TIP3   OH231564   2.500   5.107  14.566  0.2004 -0.3211  0.2331
 3358TIP3    H131565   2.434   5.175  14.551 -1.0713 -1.3767  0.9204
 3358TIP3    H231566   2.543   5.133  14.648 -1.1388 -0.9691  1.1740
 3359TIP3   OH231567   2.157   5.036  17.035 -0.0149  0.4392  0.2503
 3359TIP3    H131568   2.235   5.049  17.089 -0.2314 -1.0370  0.9541
 3359TIP3    H231569   2.126   4.948  17.057 -0.6419  0.1533 -1.6241
 3360TIP3   OH231570   2.893   5.516  13.425 -0.8472 -0.1029 -0.1861
 3360TIP3    H131571   2.965   5.548  13.478  0.6643 -0.4845 -1.9002
 3360TIP3    H231572   2.879   5.426  13.453  0.0914 -0.3715 -0.5589
 3361TIP3   OH231573   4.062   2.890  16.138  0.9243 -0.0875  0.0529
 3361TIP3    H131574   4.075   2.843  16.056  1.4020  1.9076 -1.0575
 3361TIP3    H231575   4.052   2.820  16.203  0.3071 -1.7198 -1.6997
 3362TIP3   OH231576   1.555   1.526  15.575 -0.2679 -0.1751  0.5679
 3362TIP3    H131577   1.527   1.614  15.600 -0.1034 -0.4850  1.9521
 3362TIP3    H231578   1.493   1.499  15.508 -0.0848  1.1360 -0.1597
 3363TIP3   OH231579   2.024   3.434   0.306 -0.1664  0.2433 -0.1855
 3363TIP3    H131580   2.118   3.426   0.323 -0.0975  0.7073 -0.3434
 3363TIP3    H231581   2.018   3.485   0.226 -0.5883  1.9771  0.8968
 3364TIP3   OH231582   2.548   1.259   1.813 -0.0868  0.3680  0.3044
 3364TIP3    H131583   2.498   1.239   1.892  2.4511 -0.6719  1.7662
 3364TIP3    H231584   2.571   1.174   1.776 -1.5977  0.8231 -1.9075
 3365TIP3   OH231585   2.445   1.862   4.532  0.3104  0.7578 -0.1374
 3365TIP3    H131586   2.424   1.869   4.439  0.0976 -2.0030 -0.3623
 3365TIP3    H231587   2.361   1.874   4.577 -0.1659 -0.9302 -0.5152
 3366TIP3   OH231588   1.471   5.595   5.198  0.0761 -0.3309  0.9860
 3366TIP3    H131589   1.410   5.649   5.248 -2.4058 -1.6161 -0.4577
 3366TIP3    H231590   1.482   5.516   5.250 -0.0947 -0.4108  0.9007
 3367TIP3   OH231591   2.681   1.586   6.003 -0.1044  0.4029 -0.3884
 3367TIP3    H131592   2.627   1.589   6.083  1.5208 -0.8598  0.8303
 3367TIP3    H231593   2.702   1.494   5.992  0.5955  0.6991 -1.6873
 3368TIP3   OH231594   2.844   0.120  13.946 -0.1209 -0.2109  0.3080
 3368TIP3    H131595   2.936   0.141  13.930 -0.0768  0.2310  1.0847
 3368TIP3    H231596   2.846   0.039  13.996 -0.2793 -1.9303 -2.2550
 3369TIP3   OH231597   0.378   5.565  11.550  0.1722  1.0090 -0.5214
 3369TIP3    H131598   0.425   5.488  11.582 -1.6644  0.2703  0.5649
 3369TIP3    H231599   0.316   5.530  11.486 -1.8793  1.2399  1.2227
 3370TIP3   OH231600   3.943   0.475  10.855  0.2142 -0.1733 -0.1704
 3370TIP3    H131601   3.956   0.409  10.787 -0.0454 -0.2853 -0.1124
 3370TIP3    H231602   3.849   0.474  10.872  0.2326  0.0883 -0.0442
 3371TIP3   OH231603   2.974   1.610   1.186 -0.3818  0.2469  0.5012
 3371TIP3    H131604   3.052   1.624   1.239 -0.8221  1.8806  0.7777
 3371TIP3    H231605   2.901   1.616   1.247 -0.8030  0.5203 -0.0107
 3372TIP3   OH231606   5.785   3.270  12.440  0.1301 -0.0767  0.5312
 3372TIP3    H131607   5.745   3.324  12.508  3.3078  1.0047  1.7431
 3372TIP3    H231608   5.816   3.192  12.487  0.2934 -0.4271 -0.1461
 3373TIP3   OH231609   6.660   4.178  16.110 -0.4101  0.4451  0.2503
 3373TIP3    H131610   6.709   4.103  16.142  0.4295  0.8496 -0.0767
 3373TIP3    H231611   6.568   4.149  16.113 -0.0637 -0.8114 -0.4551
 3374TIP3   OH231612   4.448   1.627  11.395 -0.4636 -0.5521  0.0457
 3374TIP3    H131613   4.422   1.541  11.363 -0.5647 -1.4049  2.2236
 3374TIP3    H231614   4.366   1.675  11.406 -0.6533 -1.1228  1.2643
 3375TIP3   OH231615   0.351   2.462   4.304  0.2603  0.0158 -0.2782
 3375TIP3    H131616   0.314   2.382   4.267  0.1869 -0.0242 -0.1165
 3375TIP3    H231617   0.280   2.526   4.302 -0.7314 -0.8590  2.6781
 3376TIP3   OH231618   2.434   6.527   5.250  0.3910 -0.3512 -0.6490
 3376TIP3    H131619   2.467   6.443   5.219  0.6379 -0.7237  0.5771
 3376TIP3    H231620   2.488   6.547   5.327 -0.2744  0.4770 -0.3813
 3377TIP3   OH231621   4.358   6.217  15.646  0.2933  0.3116 -0.3790
 3377TIP3    H131622   4.454   6.219  15.651  0.4652  2.4963 -2.5605
 3377TIP3    H231623   4.332   6.308  15.662 -1.4339 -0.2158 -0.0484
 3378TIP3   OH231624   5.499   5.517  14.872  0.4782  0.0946  0.4907
 3378TIP3    H131625   5.594   5.523  14.858  0.3948 -0.0912 -0.2127
 3378TIP3    H231626   5.488   5.438  14.925  0.5626 -1.1966 -1.3173
 3379TIP3   OH231627   2.753   4.041  15.989  0.3125 -0.1870 -0.0709
 3379TIP3    H131628   2.838   4.085  15.984  0.2541 -0.1841 -1.0731
 3379TIP3    H231629   2.773   3.955  16.025  0.5664  0.2479  0.8873
 3380TIP3   OH231630   2.701   0.868   1.266  0.1251  0.1220  0.4343
 3380TIP3    H131631   2.639   0.812   1.314 -2.2221  0.8384 -1.5653
 3380TIP3    H231632   2.757   0.806   1.219 -0.3339 -0.5403  0.7390
 3381TIP3   OH231633   1.062   3.795  13.296 -0.2143 -0.8938  1.1306
 3381TIP3    H131634   1.127   3.865  13.294 -1.3331  0.2211 -2.0371
 3381TIP3    H231635   1.078   3.749  13.379  1.6527  2.0377  2.5370
 3382TIP3   OH231636   1.602   1.112  12.805 -0.3768 -0.5616  0.4357
 3382TIP3    H131637   1.510   1.099  12.781  0.1184 -1.6009 -1.0552
 3382TIP3    H231638   1.605   1.201  12.839 -2.0748 -0.7889  1.3286
 3383TIP3   OH231639   0.922   1.407  11.719 -0.7612 -0.1025  0.3344
 3383TIP3    H131640   0.974   1.360  11.784 -0.3030 -0.6817 -0.4399
 3383TIP3    H231641   0.980   1.417  11.644 -0.1738  3.4205  1.0981
 3384TIP3   OH231642   4.321   5.932  12.482  0.4952  0.0182  0.2705
 3384TIP3    H131643   4.302   5.925  12.389  1.5235  1.8529 -0.1360
 3384TIP3    H231644   4.264   6.002  12.513  1.1981  0.4290  0.6755
 3385TIP3   OH231645   5.441   5.242   5.201  0.5437  0.2421 -0.4117
 3385TIP3    H131646   5.510   5.194   5.155 -0.8915 -2.0591 -0.3178
 3385TIP3    H231647   5.459   5.334   5.182  2.2258 -0.4162 -2.3778
 3386TIP3   OH231648   4.373   6.328  13.316 -0.4343  0.1888  0.5665
 3386TIP3    H131649   4.345   6.265  13.383  1.0993 -0.4768  0.6118
 3386TIP3    H231650   4.455   6.364  13.350 -0.7715  1.5003  0.0651
 3387TIP3   OH231651   2.912   2.223   0.350 -0.4605  0.4187  0.2416
 3387TIP3    H131652   2.998   2.188   0.328 -0.4537  1.8574 -2.5664
 3387TIP3    H231653   2.930   2.310   0.386 -0.6830  0.5071  0.1422
 3388TIP3   OH231654   1.073   1.969   1.230 -0.0690  0.2324  0.1555
 3388TIP3    H131655   1.134   1.922   1.286  1.3333  1.4270 -0.2921
 3388TIP3    H231656   1.104   1.953   1.141 -1.3075 -0.3310 -0.1996
 3389TIP3   OH231657   1.691   6.272   6.065 -0.5412  0.1150  0.2687
 3389TIP3    H131658   1.658   6.339   6.005 -1.1466  0.1237  0.5995
 3389TIP3    H231659   1.616   6.252   6.121 -0.1474 -0.3068  0.6485
 3390TIP3   OH231660   0.527   3.302   5.327 -0.5634 -0.3483 -0.2450
 3390TIP3    H131661   0.501   3.231   5.387 -0.2741  0.0929  0.4198
 3390TIP3    H231662   0.556   3.372   5.385  0.4026 -0.1692 -0.9326
 3391TIP3   OH231663   0.478   6.208  14.411 -0.0557 -0.1473 -0.2581
 3391TIP3    H131664   0.532   6.196  14.489  0.6081 -1.0107 -0.8265
 3391TIP3    H231665   0.533   6.261  14.352  0.5167 -1.6421 -1.1274
 3392TIP3   OH231666   3.241   5.231  11.084 -0.9561  0.3327  0.0040
 3392TIP3    H131667   3.273   5.322  11.082 -0.4328  0.1437 -1.3227
 3392TIP3    H231668   3.264   5.200  11.172 -0.6772  1.3223  0.3006
 3393TIP3   OH231669   4.695   0.869  12.169  0.9447  0.3976 -0.0857
 3393TIP3    H131670   4.730   0.872  12.258  2.0271 -0.0387 -0.4795
 3393TIP3    H231671   4.613   0.822  12.176  0.8527  0.6669  0.7310
 3394TIP3   OH231672   2.567   0.489  14.513 -0.2473  0.1105 -0.3385
 3394TIP3    H131673   2.497   0.460  14.454  1.8560 -0.8990 -2.5116
 3394TIP3    H231674   2.627   0.538  14.457  0.7162  1.1600  1.5011
 3395TIP3   OH231675   3.791   6.628   4.300  0.1442 -0.3773 -0.1235
 3395TIP3    H131676   3.724   6.620   4.369 -0.9301 -0.0532 -1.0929
 3395TIP3    H231677   3.759   6.699   4.244  0.7307 -0.9696 -1.2367
 3396TIP3   OH231678   3.886   1.328   0.804  0.8718  0.1723 -0.0695
 3396TIP3    H131679   3.837   1.342   0.886  1.1278  1.4804 -0.1149
 3396TIP3    H231680   3.973   1.301   0.833  0.8731  0.3404  0.0903
 3397TIP3   OH231681   4.907   6.745   5.668  0.3289  0.4855  0.2178
 3397TIP3    H131682   4.833   6.805   5.680  0.3022  0.6113 -0.5317
 3397TIP3    H231683   4.866   6.662   5.641  0.4984  0.8182 -1.1392
 3398TIP3   OH231684   4.858   3.073  12.555 -0.0539 -0.2339 -0.1996
 3398TIP3    H131685   4.786   3.063  12.616 -0.5749 -3.4390 -1.1867
 3398TIP3    H231686   4.839   3.156  12.509 -3.2557 -1.0518 -0.5755
 3399TIP3   OH231687   5.343   3.206   2.804  0.3030  0.0634 -0.3901
 3399TIP3    H131688   5.378   3.176   2.888 -2.5133 -0.6460  0.6461
 3399TIP3    H231689   5.248   3.203   2.816 -0.1790  0.3414 -3.4960
 3400TIP3   OH231690   5.142   2.145   3.527  0.4545  0.2948 -0.0470
 3400TIP3    H131691   5.064   2.095   3.549  0.1736  0.5628 -0.4271
 3400TIP3    H231692   5.143   2.218   3.589  2.6739 -1.9197  2.8253
 3401TIP3   OH231693   0.873   3.579  14.427 -0.6766 -0.2633  0.2908
 3401TIP3    H131694   0.789   3.620  14.450 -0.1640 -0.0663  1.8906
 3401TIP3    H231695   0.931   3.600  14.500  0.2245 -2.0352  0.1317
 3402TIP3   OH231696   1.452   1.215   4.371  0.6320 -0.8950 -0.4114
 3402TIP3    H131697   1.522   1.192   4.433  1.2981 -0.7385 -1.0825
 3402TIP3    H231698   1.474   1.165   4.292 -0.5308 -1.5422 -0.3388
 3403TIP3   OH231699   1.444   1.604   3.874 -0.4380  0.2117 -0.3125
 3403TIP3    H131700   1.392   1.618   3.796  0.3060  1.1179 -0.6600
 3403TIP3    H231701   1.488   1.688   3.890  1.2954 -0.6528 -0.3249
 3404TIP3   OH231702   2.730   0.703   1.976 -0.0717  0.0567 -0.1084
 3404TIP3    H131703   2.746   0.693   2.070 -1.3117  1.2920  0.2669
 3404TIP3    H231704   2.818   0.709   1.938  0.4415  0.4650  1.0843
 3405TIP3   OH231705   6.366   5.674   0.156  0.3613  0.1667  0.2367
 3405TIP3    H131706   6.293   5.733   0.136 -0.5523 -1.2920 -0.9543
 3405TIP3    H231707   6.442   5.714   0.113 -0.6836 -0.5619 -2.5126
 3406TIP3   OH231708   4.181   3.236   6.611 -0.4380  0.5664  0.3935
 3406TIP3    H131709   4.107   3.250   6.670 -0.4032  0.5623  0.4382
 3406TIP3    H231710   4.238   3.174   6.656 -0.1886  0.9071  0.5543
 3407TIP3   OH231711   6.136   6.269  10.515  0.3558  0.1489  0.2066
 3407TIP3    H131712   6.199   6.276  10.443  0.7037 -0.4845  0.4376
 3407TIP3    H231713   6.190   6.272  10.594  0.0859 -0.3016  0.4089
 3408TIP3   OH231714   0.731   6.775  14.376  0.8969 -0.3471  0.0338
 3408TIP3    H131715   0.740   6.772  14.280 -1.3930 -0.9533 -0.2169
 3408TIP3    H231716   0.759   6.688  14.405  0.8187 -0.4380 -0.1595
 3409TIP3   OH231717   5.829   6.711   5.782  0.3384 -0.0215 -0.0496
 3409TIP3    H131718   5.920   6.741   5.784  1.3156 -2.7115 -0.6937
 3409TIP3    H231719   5.819   6.660   5.862 -0.7685  0.5478  0.2021
 3410TIP3   OH231720   6.718   0.584  15.736  0.1040 -0.7834  0.3641
 3410TIP3    H131721   6.725   0.494  15.703  1.2473 -0.6406  0.1696
 3410TIP3    H231722   6.703   0.637  15.657  0.3037 -0.7110  0.3749
 3411TIP3   OH231723   0.790   6.612  15.698  0.3202  0.2631  0.8476
 3411TIP3    H131724   0.803   6.692  15.648 -0.8376  0.2955  0.5684
 3411TIP3    H231725   0.778   6.642  15.788  2.0978  0.2260  1.1279
 3412TIP3   OH231726   6.453   2.775   1.199 -0.3113 -0.0582 -0.1341
 3412TIP3    H131727   6.547   2.767   1.219 -0.4017  0.4817  0.5406
 3412TIP3    H231728   6.412   2.794   1.283 -0.9580  0.2773 -0.5183
 3413TIP3   OH231729   1.016   6.441   3.247  0.2474  0.0372  0.0174
 3413TIP3    H131730   0.973   6.369   3.293  0.1263  0.2916  0.3133
 3413TIP3    H231731   1.093   6.401   3.206 -0.8107 -0.6241 -1.3815
 3414TIP3   OH231732   1.469   0.607  13.073  0.9912 -0.0487  0.2301
 3414TIP3    H131733   1.528   0.633  13.003 -0.1545  0.9070 -0.4195
 3414TIP3    H231734   1.416   0.685  13.090 -0.5263 -1.0586  0.3178
 3415TIP3   OH231735   0.490   3.400  16.040  0.3673 -0.1245 -0.1086
 3415TIP3    H131736   0.511   3.462  16.110  0.7128 -1.1931  0.7524
 3415TIP3    H231737   0.570   3.397  15.987  0.2081  0.4554 -0.3985
 3416TIP3   OH231738   2.827   3.944   0.252  0.5446 -0.2830 -0.2100
 3416TIP3    H131739   2.778   3.937   0.170 -2.1155  1.5472  1.0662
 3416TIP3    H231740   2.884   4.019   0.240  1.4787 -1.0886 -0.9520
 3417TIP3   OH231741   5.504   3.842   1.062 -0.2635  1.0230 -0.3849
 3417TIP3    H131742   5.429   3.824   1.005 -0.9769 -0.1852  0.8616
 3417TIP3    H231743   5.520   3.759   1.107  1.9229  1.2189 -0.6948
 3418TIP3   OH231744   3.503   2.610   3.001  0.0004  0.5548  0.0212
 3418TIP3    H131745   3.500   2.514   2.999 -0.5363  0.5886 -1.0606
 3418TIP3    H231746   3.591   2.630   3.033  0.4561 -0.2975 -0.6702
 3419TIP3   OH231747   2.383   3.972   2.110  0.0558  0.0523 -0.9250
 3419TIP3    H131748   2.307   3.944   2.160  1.1145  0.9940  1.3675
 3419TIP3    H231749   2.349   4.035   2.046 -0.8598  2.5344  1.8007
 3420TIP3   OH231750   3.448   4.707   1.460  0.3436  0.5010 -0.0931
 3420TIP3    H131751   3.411   4.648   1.394  0.3548 -0.2626  0.5700
 3420TIP3    H231752   3.515   4.756   1.412  0.3562 -0.0428 -0.6599
 3421TIP3   OH231753   6.344   6.694  15.615 -0.9430  0.5877 -0.4169
 3421TIP3    H131754   6.334   6.757  15.687 -0.9256 -0.7055  0.7473
 3421TIP3    H231755   6.256   6.690  15.576 -1.5080 -0.2106  0.8544
 3422TIP3   OH231756   6.042   1.247  16.821  0.1310 -0.5564  0.0263
 3422TIP3    H131757   6.079   1.335  16.811 -2.2406  0.4731 -0.4369
 3422TIP3    H231758   6.076   1.198  16.747 -1.1058  1.0192 -1.6943
 3423TIP3   OH231759   5.520   5.992   6.271 -0.0141 -0.1720 -0.5547
 3423TIP3    H131760   5.552   6.078   6.243 -0.1153 -0.1226 -0.5182
 3423TIP3    H231761   5.595   5.954   6.317  0.0274 -0.0978 -0.5587
 3424TIP3   OH231762   4.495   3.742  12.874  0.3569  0.5601 -0.2192
 3424TIP3    H131763   4.527   3.652  12.877  2.0186  1.0621 -1.4128
 3424TIP3    H231764   4.481   3.764  12.966 -0.9648 -1.1761  0.0482
 3425TIP3   OH231765   6.766   5.604   1.309 -0.3990  0.0926  0.0285
 3425TIP3    H131766   6.815   5.685   1.322 -1.3487  0.7394 -0.3420
 3425TIP3    H231767   6.829   5.535   1.328  1.1271  0.8487 -1.9012
 3426TIP3   OH231768   2.029   5.987   0.759  0.2539 -0.4906  0.4019
 3426TIP3    H131769   2.041   6.059   0.698 -1.2304 -0.8986 -0.4021
 3426TIP3    H231770   2.077   6.014   0.838 -0.2267  1.3400  0.1072
 3427TIP3   OH231771   0.851   5.089  11.750 -0.3725 -0.5334  0.0381
 3427TIP3    H131772   0.816   5.088  11.661 -0.7277 -1.3451  0.1797
 3427TIP3    H231773   0.905   5.010  11.757 -0.1241 -0.3334  0.4564
 3428TIP3   OH231774   2.704   6.138  16.094 -0.2763  0.3144 -0.5006
 3428TIP3    H131775   2.775   6.076  16.076  0.0308  0.8928 -1.3884
 3428TIP3    H231776   2.649   6.094  16.158  1.3245  0.1709  0.8664
 3429TIP3   OH231777   3.088   4.975  17.132 -0.3846 -0.2219  0.1009
 3429TIP3    H131778   3.009   4.924  17.112  0.4064 -1.4326 -0.0860
 3429TIP3    H231779   3.065   5.065  17.110 -1.3651 -0.7084 -1.0073
 3430TIP3   OH231780   6.026   3.213   4.229 -0.1114  0.2638  0.1008
 3430TIP3    H131781   6.083   3.238   4.156  0.7695  1.8030  1.2442
 3430TIP3    H231782   6.014   3.294   4.279 -1.7243 -0.4633  0.9836
 3431TIP3   OH231783   3.208   2.128   5.535  0.1101 -0.0906 -0.3655
 3431TIP3    H131784   3.293   2.144   5.494 -0.8025 -1.2246 -2.8946
 3431TIP3    H231785   3.222   2.148   5.627  3.3387 -0.9526 -0.5362
 3432TIP3   OH231786   6.274   3.520  15.053  0.3062 -0.7795 -0.2230
 3432TIP3    H131787   6.187   3.494  15.021  0.9042  0.8625 -3.5286
 3432TIP3    H231788   6.335   3.475  14.995  1.5598  0.6653 -0.0727
 3433TIP3   OH231789   5.435   0.443  12.364 -0.1717  0.4763 -0.2932
 3433TIP3    H131790   5.439   0.519  12.421  0.7947  0.3451 -0.1664
 3433TIP3    H231791   5.458   0.476  12.277  0.0554  0.3639 -0.2763
 3434TIP3   OH231792   1.854   0.052  13.673 -0.2130  0.2561 -0.2484
 3434TIP3    H131793   1.943   0.023  13.688  0.0193 -0.9518 -3.1802
 3434TIP3    H231794   1.860   0.147  13.666  1.1066  0.1144 -1.5494
 3435TIP3   OH231795   0.405   1.038   3.581  0.1151  0.2184  0.0100
 3435TIP3    H131796   0.390   1.121   3.626  0.5809  0.6043 -0.5201
 3435TIP3    H231797   0.323   1.020   3.536  0.2935  0.8541 -0.5863
 3436TIP3   OH231798   1.707   5.842  10.351 -0.6613 -0.5170  0.3642
 3436TIP3    H131799   1.771   5.913  10.351  0.0894 -1.1847  0.6516
 3436TIP3    H231800   1.637   5.873  10.409 -0.2215 -0.1221  0.6947
 3437TIP3   OH231801   5.708   2.224   0.411  0.8093  0.1041  0.6078
 3437TIP3    H131802   5.691   2.131   0.395  0.1187  0.4423 -0.7315
 3437TIP3    H231803   5.718   2.262   0.324  1.5325  1.2208  1.1533
 3438TIP3   OH231804   3.163   2.233   2.539  0.1416 -0.2674  0.7317
 3438TIP3    H131805   3.103   2.289   2.587  0.5380  0.6765  0.1611
 3438TIP3    H231806   3.235   2.292   2.512  0.6135 -1.0616  0.2007
 3439TIP3   OH231807   5.975   3.768   5.298 -0.8941 -0.1907  0.0958
 3439TIP3    H131808   5.965   3.686   5.251  0.7129  0.0500 -0.7369
 3439TIP3    H231809   6.021   3.744   5.379  0.3127 -0.0422 -0.5189
 3440TIP3   OH231810   4.435   5.239   4.172 -0.3143  0.2929 -0.2397
 3440TIP3    H131811   4.497   5.168   4.188  1.0366  0.9565 -2.1594
 3440TIP3    H231812   4.388   5.212   4.093 -2.4181 -0.1179  1.0914
 3441TIP3   OH231813   4.140   3.354  15.653 -0.1571  0.0905 -0.4373
 3441TIP3    H131814   4.050   3.355  15.686  0.0381 -1.7279  0.2264
 3441TIP3    H231815   4.185   3.421  15.705 -0.9164  0.4376 -0.2069
 3442TIP3   OH231816   3.872   0.109   4.341 -0.1048  0.0532 -0.4128
 3442TIP3    H131817   3.831   0.032   4.380 -0.5554  0.4020 -0.1888
 3442TIP3    H231818   3.954   0.120   4.390 -0.0952 -0.2141 -0.3687
 3443TIP3   OH231819   2.535   6.077   0.579 -0.3236  0.5460  0.3673
 3443TIP3    H131820   2.611   6.019   0.589 -0.1552  0.6880 -0.0483
 3443TIP3    H231821   2.460   6.018   0.573 -0.3091  0.4203  1.2622
 3444TIP3   OH231822   2.178   3.872   5.169  0.4858  0.5738  0.0806
 3444TIP3    H131823   2.101   3.863   5.112  1.5354  1.7266 -1.6081
 3444TIP3    H231824   2.183   3.965   5.188  0.3684  0.2525  1.8261
 3445TIP3   OH231825   3.587   5.373  17.072 -0.0826  0.3251  0.0792
 3445TIP3    H131826   3.633   5.292  17.048 -1.3074 -0.6131  0.8145
 3445TIP3    H231827   3.581   5.370  17.167 -2.7447 -0.2463 -0.0321
 3446TIP3   OH231828   4.823   0.606   0.061  0.0004 -0.1717 -0.5982
 3446TIP3    H131829   4.862   0.628  -0.024  0.7638 -2.5397 -0.9276
 3446TIP3    H231830   4.861   0.669   0.122  2.1369 -0.5340 -1.4449
 3447TIP3   OH231831   0.346   4.297   1.564  0.4856 -0.1677  0.7828
 3447TIP3    H131832   0.316   4.372   1.512 -0.7215  0.1666  1.9251
 3447TIP3    H231833   0.278   4.284   1.630  0.6909 -2.2580  0.6526
 3448TIP3   OH231834   1.965   6.254   0.652  0.2583 -0.1843 -0.5103
 3448TIP3    H131835   1.884   6.206   0.637  1.3768 -1.6516 -2.2163
 3448TIP3    H231836   1.947   6.343   0.623 -1.0591 -0.1917  0.2287
 3449TIP3   OH231837   2.713   2.985  11.396 -0.0862  0.0161 -0.3530
 3449TIP3    H131838   2.649   2.941  11.452  1.1613 -0.7559  0.4820
 3449TIP3    H231839   2.682   3.076  11.392 -0.9896 -0.2484  0.3878
 3450TIP3   OH231840   5.560   2.610  16.027  0.4356  0.6823 -0.6465
 3450TIP3    H131841   5.631   2.553  15.997 -0.1384  0.8184 -2.3814
 3450TIP3    H231842   5.585   2.697  15.997  0.8479  1.2202  1.1629
 3451TIP3   OH231843   5.067   3.415  16.242  0.5262  0.0402  0.4250
 3451TIP3    H131844   4.996   3.438  16.303  1.2501 -0.7866  1.6310
 3451TIP3    H231845   5.143   3.464  16.275  0.8307 -0.1082 -0.0590
 3452TIP3   OH231846   4.227   3.398  16.510 -1.0080 -0.7140  0.2738
 3452TIP3    H131847   4.201   3.420  16.420 -2.0544  0.3925  0.8127
 3452TIP3    H231848   4.279   3.472  16.539 -2.6040  0.0604  1.3242
 3453TIP3   OH231849   1.129   5.262   3.477 -0.2333 -0.0136 -0.4724
 3453TIP3    H131850   1.213   5.233   3.442  0.0653  1.2435 -0.8521
 3453TIP3    H231851   1.084   5.300   3.401 -0.0810  1.6480  0.2403
 3454TIP3   OH231852   0.582   0.235   2.840 -0.0446  0.1369  0.9323
 3454TIP3    H131853   0.559   0.319   2.881 -0.3828  0.0692  0.8830
 3454TIP3    H231854   0.584   0.173   2.912 -1.1788 -0.0938  0.7867
 3455TIP3   OH231855   1.565   5.442   2.111 -0.1052  0.1922  0.4244
 3455TIP3    H131856   1.538   5.448   2.020  0.4828  0.1872  0.2441
 3455TIP3    H231857   1.534   5.523   2.151  0.8543  0.8338 -0.1152
 3456TIP3   OH231858   3.366   3.338  13.563 -0.1544 -0.5660  0.1751
 3456TIP3    H131859   3.279   3.353  13.526  0.0637 -0.4777 -0.3008
 3456TIP3    H231860   3.382   3.245  13.550 -0.2556 -0.6222  0.4387
 3457TIP3   OH231861   2.165   6.307   5.643  0.5808  0.1743 -0.1817
 3457TIP3    H131862   2.145   6.215   5.659  0.8619  0.1193 -0.1398
 3457TIP3    H231863   2.120   6.354   5.713  0.1154  0.1029 -0.4292
 3458TIP3   OH231864   4.912   1.352  16.111 -0.1145 -0.0731  0.4313
 3458TIP3    H131865   4.862   1.399  16.045 -1.6395  2.2587  3.0591
 3458TIP3    H231866   4.848   1.297  16.155  0.4524 -0.0520  1.2880
 3459TIP3   OH231867   3.709   2.751  14.338 -0.4552  0.8061  0.1935
 3459TIP3    H131868   3.742   2.812  14.405  0.6666  0.4418 -0.0041
 3459TIP3    H231869   3.676   2.677  14.388  0.9325  0.2622  0.3652
 3460TIP3   OH231870   6.571   4.583   3.744 -0.7401  0.5327 -0.0423
 3460TIP3    H131871   6.642   4.612   3.802  0.0767 -1.2777 -0.0682
 3460TIP3    H231872   6.556   4.657   3.686  0.2028  1.4477  0.8366
 3461TIP3   OH231873   1.055   2.370   3.769  0.2089  0.0063  0.4153
 3461TIP3    H131874   1.077   2.298   3.828  0.6484  0.3685  0.6931
 3461TIP3    H231875   1.134   2.384   3.717  0.7249  1.4008  1.5135
 3462TIP3   OH231876   0.591   2.589   4.276  0.1519  0.2863 -0.1327
 3462TIP3    H131877   0.500   2.578   4.303 -0.0297  1.8911 -0.0469
 3462TIP3    H231878   0.588   2.582   4.180 -0.1723  1.0307 -0.1823
 3463TIP3   OH231879   1.998   0.246  15.939 -0.8736  0.3187  0.2111
 3463TIP3    H131880   1.918   0.198  15.917 -0.7456 -1.1105  2.5481
 3463TIP3    H231881   2.064   0.179  15.951  0.0056  1.2781  0.9108
 3464TIP3   OH231882   1.257   4.080   4.376 -0.6103 -0.2813 -0.2237
 3464TIP3    H131883   1.220   3.996   4.403 -0.6673 -0.1282  0.1830
 3464TIP3    H231884   1.253   4.135   4.455  1.1525 -0.4798  0.0549
 3465TIP3   OH231885   2.335   3.981  11.175  0.1259 -0.2570 -0.5943
 3465TIP3    H131886   2.242   3.992  11.196  0.0250  0.3594 -1.3066
 3465TIP3    H231887   2.335   3.938  11.089  0.4881  0.1167 -0.7869
 3466TIP3   OH231888   1.326   6.432  10.826 -0.7547  0.5646 -0.1044
 3466TIP3    H131889   1.283   6.484  10.758 -0.9171  0.2070 -0.2773
 3466TIP3    H231890   1.345   6.348  10.784 -1.9735 -0.1183  0.6415
 3467TIP3   OH231891   6.180   5.829   2.360 -0.4102 -0.5173  0.1946
 3467TIP3    H131892   6.168   5.748   2.310 -0.1077 -0.3569 -0.1394
 3467TIP3    H231893   6.104   5.883   2.336  0.7465  0.3777 -1.6885
 3468TIP3   OH231894   1.542   6.759  13.969  0.7238 -0.0892  0.2764
 3468TIP3    H131895   1.487   6.684  13.948  0.4683 -0.4255  2.0613
 3468TIP3    H231896   1.631   6.724  13.970  0.6396 -0.2939  0.7485
 3469TIP3   OH231897   1.765   2.412   1.291 -0.3274  0.0810  0.2161
 3469TIP3    H131898   1.690   2.416   1.351 -0.7675 -1.2171 -0.2127
 3469TIP3    H231899   1.818   2.339   1.323  1.2923  1.5448  1.0674
 3470TIP3   OH231900   4.651   6.162  12.868  0.3357 -0.2641 -0.3060
 3470TIP3    H131901   4.727   6.219  12.875  0.2559 -0.3032  1.2757
 3470TIP3    H231902   4.600   6.198  12.795  0.6337  1.2822  0.2122
 3471TIP3   OH231903   2.256   3.569  15.106 -0.3008  0.4065 -0.0137
 3471TIP3    H131904   2.231   3.613  15.187 -0.2367 -0.6655  0.6148
 3471TIP3    H231905   2.352   3.575  15.104 -0.1578 -1.0430  0.9020
 3472TIP3   OH231906   3.055   1.787  11.584  0.7921 -0.0821  0.0122
 3472TIP3    H131907   3.104   1.854  11.535  1.6367  0.2032  1.1821
 3472TIP3    H231908   2.979   1.833  11.619  2.4016  0.8935  2.5139
 3473TIP3   OH231909   6.462   3.140   0.350 -0.2174 -0.6386 -0.1060
 3473TIP3    H131910   6.379   3.183   0.331 -0.3989 -0.6562  0.5951
 3473TIP3    H231911   6.458   3.057   0.302  0.3682  0.3386 -1.9169
 3474TIP3   OH231912   3.885   0.562  12.922 -0.0293  0.3395  0.4588
 3474TIP3    H131913   3.807   0.588  12.970 -1.7649  2.1692 -2.9537
 3474TIP3    H231914   3.938   0.642  12.917  0.8382 -0.2149  0.6023
 3475TIP3   OH231915   1.021   0.034   5.108  0.2864  0.4076 -0.0882
 3475TIP3    H131916   0.986   0.082   5.183  0.9973 -0.0206  0.5442
 3475TIP3    H231917   1.113   0.061   5.105 -0.1568  1.9035 -2.0142
 3476TIP3   OH231918   5.097   2.461   4.647  0.4284 -0.6236 -0.2447
 3476TIP3    H131919   5.189   2.438   4.662  0.4295 -1.0519 -0.8443
 3476TIP3    H231920   5.098   2.517   4.569  0.4770  1.9556  1.4783
 3477TIP3   OH231921   0.742   3.091   2.081 -0.0984 -0.3847  0.5779
 3477TIP3    H131922   0.758   3.184   2.063  0.9886 -0.2853  1.9417
 3477TIP3    H231923   0.827   3.057   2.109 -0.8223 -1.4317  1.5936
 3478TIP3   OH231924   5.647   2.359  16.599 -0.5796 -0.5102  0.2338
 3478TIP3    H131925   5.720   2.406  16.560 -2.0931  1.3126 -0.5811
 3478TIP3    H231926   5.584   2.349  16.527 -1.0324 -2.3240  0.8203
 3479TIP3   OH231927   6.302   0.802   4.201  0.3043 -0.1218 -0.0439
 3479TIP3    H131928   6.331   0.722   4.246 -2.0510 -0.1191  1.6474
 3479TIP3    H231929   6.307   0.781   4.108  4.2701 -0.5342  0.0953
 3480TIP3   OH231930   3.647   4.490  10.844  0.4090  0.1450  0.0747
 3480TIP3    H131931   3.603   4.430  10.784 -1.0610  2.4046 -1.2373
 3480TIP3    H231932   3.740   4.469  10.835  0.1863 -0.0096 -2.5888
 3481TIP3   OH231933   6.246   4.774  11.793 -0.0313 -0.0062  0.1052
 3481TIP3    H131934   6.330   4.810  11.820 -0.7922  0.4494  2.0339
 3481TIP3    H231935   6.208   4.738  11.874 -1.5979 -0.3641 -0.7457
 3482TIP3   OH231936   2.973   5.356  11.660 -0.1971  0.0042  0.2563
 3482TIP3    H131937   2.880   5.360  11.684  0.1728 -0.3140  1.8464
 3482TIP3    H231938   3.006   5.444  11.679  0.1893 -0.3641  1.3090
 3483TIP3   OH231939   1.899   5.724   3.871  0.3458 -0.4612  0.2459
 3483TIP3    H131940   1.826   5.730   3.810  0.1631 -1.0765  0.3889
 3483TIP3    H231941   1.859   5.697   3.954  0.7388 -0.8979  0.3034
 3484TIP3   OH231942   6.713   3.326  13.985  0.0319  0.0248  0.0599
 3484TIP3    H131943   6.698   3.282  14.068 -0.1352 -1.3534 -0.6696
 3484TIP3    H231944   6.707   3.419  14.005 -1.2364 -0.3144  1.3439
 3485TIP3   OH231945   6.807   2.969   2.196 -0.6380  0.3280  0.1790
 3485TIP3    H131946   6.780   3.021   2.121 -0.6835 -1.7007 -1.2704
 3485TIP3    H231947   6.900   2.991   2.208 -0.6203  0.6251 -0.4795
 3486TIP3   OH231948   3.914   2.010  12.094  0.1399 -0.4048  0.2927
 3486TIP3    H131949   4.008   1.993  12.102  0.2228 -0.6569 -1.0129
 3486TIP3    H231950   3.905   2.054  12.009 -0.9378 -0.4412  0.3761
 3487TIP3   OH231951   5.267   1.617  16.198  0.4019  0.1275  0.8399
 3487TIP3    H131952   5.219   1.588  16.276 -0.6562  1.8577  0.9040
 3487TIP3    H231953   5.304   1.702  16.224  1.3127  0.0173 -0.0631
 3488TIP3   OH231954   0.106   1.758  14.695 -0.2578 -1.0613 -0.0247
 3488TIP3    H131955   0.141   1.788  14.779 -0.2055 -0.9373 -0.0893
 3488TIP3    H231956   0.110   1.662  14.700  1.1047 -1.0583 -0.4348
 3489TIP3   OH231957   4.282   0.010   3.496  0.0847 -0.0541 -0.4806
 3489TIP3    H131958   4.313   0.094   3.529 -0.5134 -0.0872  0.2010
 3489TIP3    H231959   4.345  -0.053   3.528  0.2173  0.0675 -0.5020
 3490TIP3   OH231960   2.987   4.928   1.029  0.5317  0.2833  0.2236
 3490TIP3    H131961   3.008   4.850   0.978  1.9299 -0.0529  1.2373
 3490TIP3    H231962   3.064   4.984   1.021  0.1541  0.8945  0.7364
 3491TIP3   OH231963   1.883   6.044  11.901 -0.3853 -0.5422  0.3082
 3491TIP3    H131964   1.826   5.968  11.914 -1.2214  0.2375  1.3915
 3491TIP3    H231965   1.842   6.115  11.951  0.9910  0.3292  0.2881
 3492TIP3   OH231966   3.837   0.113   5.249  0.0893  0.3518 -0.4783
 3492TIP3    H131967   3.919   0.075   5.281 -0.3599 -2.1649 -2.0856
 3492TIP3    H231968   3.769   0.071   5.301 -0.3119  1.1014 -0.3797
 3493TIP3   OH231969   6.759   6.820  13.971  0.0720 -0.3958 -0.0844
 3493TIP3    H131970   6.847   6.789  13.949  0.2493 -0.4108  0.6164
 3493TIP3    H231971   6.747   6.796  14.062 -0.2771  0.4853  0.1187
 3494TIP3   OH231972   5.773   1.745  16.915 -0.1627  0.1029  0.1462
 3494TIP3    H131973   5.814   1.827  16.886  1.2849 -0.1450  1.4173
 3494TIP3    H231974   5.785   1.744  17.010 -1.2981 -0.9899  0.3055
 3495TIP3   OH231975   1.404   5.994   1.155  0.0121  0.4590  0.0863
 3495TIP3    H131976   1.374   6.038   1.234  1.0780  2.7120 -0.6907
 3495TIP3    H231977   1.324   5.958   1.116 -0.6697  0.2887  1.5790
 3496TIP3   OH231978   4.156   2.913  16.779 -0.3328  0.0474 -0.1401
 3496TIP3    H131979   4.185   2.978  16.715 -0.5445 -0.8727 -1.2069
 3496TIP3    H231980   4.207   2.835  16.759 -2.0045 -0.9681 -0.7127
 3497TIP3   OH231981   2.352   2.692   4.119 -0.1862 -0.4464 -0.0732
 3497TIP3    H131982   2.422   2.659   4.064 -1.5022 -2.9996 -0.3498
 3497TIP3    H231983   2.372   2.658   4.206 -1.4969 -2.0427 -0.3391
 3498TIP3   OH231984   6.311   4.059   4.489 -0.0721 -0.6148  0.5480
 3498TIP3    H131985   6.369   3.999   4.443  1.3365 -0.0157  1.4768
 3498TIP3    H231986   6.245   4.084   4.424 -0.3603 -2.6853 -0.0214
 3499TIP3   OH231987   2.809   4.836  16.284 -0.3196 -0.7319  0.1348
 3499TIP3    H131988   2.837   4.823  16.193 -0.1307 -3.1963  0.4745
 3499TIP3    H231989   2.868   4.781  16.335 -0.2174  0.8535  1.8305
 3500TIP3   OH231990   3.831   0.545   5.502  0.5675 -0.1838  0.2604
 3500TIP3    H131991   3.876   0.616   5.549 -0.7323  1.0696 -0.2813
 3500TIP3    H231992   3.748   0.585   5.475  0.2199 -1.6454 -0.9173
 3501TIP3   OH231993   3.426   1.569   5.973 -0.7798  0.1601  0.2852
 3501TIP3    H131994   3.451   1.657   5.945 -0.5114  0.6630  1.9983
 3501TIP3    H231995   3.472   1.556   6.056  1.4920 -2.7164 -1.2296
 3502TIP3   OH231996   1.126   6.663  13.709 -0.2122  0.6695  0.5431
 3502TIP3    H131997   1.080   6.643  13.791  3.1363  0.0176  2.4391
 3502TIP3    H231998   1.178   6.741  13.729 -0.8721  1.7639 -1.7049
 3503TIP3   OH231999   6.244   2.782   4.266  0.2777  0.1951 -0.5430
 3503TIP3    H132000   6.286   2.724   4.330 -0.0487 -1.4102 -1.7120
 3503TIP3    H232001   6.153   2.789   4.295  0.3236  0.1368 -0.3868
 3504TIP3   OH232002   3.158   0.190   4.427  0.0407 -0.7414  0.1070
 3504TIP3    H132003   3.115   0.144   4.356  0.2239 -1.1180  0.2406
 3504TIP3    H232004   3.090   0.246   4.464 -0.4873 -1.7332  0.6642
 3505TIP3   OH232005   5.927   3.721  15.662 -0.4415 -0.1740  0.1109
 3505TIP3    H132006   5.833   3.707  15.669 -0.5592  0.3251 -0.4577
 3505TIP3    H232007   5.964   3.633  15.650 -0.8399 -0.3593  0.2405
 3506TIP3   OH232008   2.012   0.651   1.707  0.4206 -0.1588 -0.4936
 3506TIP3    H132009   2.098   0.670   1.669  0.7804 -0.6032  0.0931
 3506TIP3    H232010   1.966   0.602   1.638  0.6537  0.0312 -0.7890
 3507TIP3   OH232011   4.579   6.543   1.223  0.0004  0.3105  0.2260
 3507TIP3    H132012   4.508   6.580   1.170  0.0962  0.3195  0.1020
 3507TIP3    H232013   4.645   6.516   1.159  0.2546  0.6114  0.3581
 3508TIP3   OH232014   3.257   4.422  14.865  0.6754 -0.0676  0.2305
 3508TIP3    H132015   3.195   4.401  14.794 -1.0952  0.8433  1.4512
 3508TIP3    H232016   3.330   4.464  14.820 -1.0979  1.9370 -0.9517
 3509TIP3   OH232017   5.364   4.234  11.101 -0.3714 -0.2134  0.3031
 3509TIP3    H132018   5.406   4.237  11.187 -1.0407 -0.0253  0.6346
 3509TIP3    H232019   5.359   4.326  11.074  0.0071 -0.2888 -0.0220
 3510TIP3   OH232020   3.529   1.340   1.329  0.1298  0.0789  0.7660
 3510TIP3    H132021   3.519   1.316   1.421  2.6529 -0.9848  0.8330
 3510TIP3    H232022   3.608   1.394   1.327  0.0468  0.1766 -0.7720
 3511TIP3   OH232023   0.637   4.332   4.919 -0.6264  0.5696 -0.0358
 3511TIP3    H132024   0.713   4.347   4.864 -2.0920  2.3138 -1.7384
 3511TIP3    H232025   0.613   4.240   4.904 -0.2880  0.6847 -1.4185
 3512TIP3   OH232026   4.560   4.155   4.361 -0.2947 -0.6406  0.1621
 3512TIP3    H132027   4.499   4.082   4.351 -2.5934  1.2300 -0.3440
 3512TIP3    H232028   4.634   4.133   4.304 -1.3892 -2.0922 -0.7530
 3513TIP3   OH232029   6.318   0.930   3.703 -0.1643  0.2480 -1.0419
 3513TIP3    H132030   6.397   0.921   3.756 -0.0253  0.0378 -1.2806
 3513TIP3    H232031   6.293   1.023   3.712 -0.1948  0.1948 -0.5447
 3514TIP3   OH232032   2.111   5.212  14.388  0.0838 -0.1463  0.1816
 3514TIP3    H132033   2.054   5.153  14.437 -2.6639  2.7049  0.7808
 3514TIP3    H232034   2.087   5.200  14.297 -0.7132  0.2087  0.3320
 3515TIP3   OH232035   2.811   0.064   5.080  0.0993  0.0897 -0.4912
 3515TIP3    H132036   2.861   0.142   5.105  2.9460 -1.3529 -1.1991
 3515TIP3    H232037   2.773   0.033   5.162 -0.6939  1.9315 -0.1249
 3516TIP3   OH232038   1.783   2.794  16.489 -0.4509  0.4321  0.7738
 3516TIP3    H132039   1.719   2.859  16.461 -0.5608 -0.3401 -0.8431
 3516TIP3    H232040   1.749   2.762  16.573 -1.7917  0.5717  0.3104
 3517TIP3   OH232041   1.525   1.423   2.965  0.5121  0.4998 -0.0598
 3517TIP3    H132042   1.608   1.388   2.932  1.5938  1.3996  1.5164
 3517TIP3    H232043   1.542   1.439   3.058 -2.5749 -2.7010  1.2929
 3518TIP3   OH232044   3.807   6.168   2.477 -0.6274  0.1283  0.4110
 3518TIP3    H132045   3.748   6.154   2.551 -0.0620  0.6340  0.9698
 3518TIP3    H232046   3.768   6.241   2.430 -0.6338  0.2327  0.5771
 3519TIP3   OH232047   3.781   6.644   1.417  0.3373  0.2865 -0.9772
 3519TIP3    H132048   3.815   6.556   1.431  2.4270  0.9066 -1.7970
 3519TIP3    H232049   3.686   6.632   1.410  0.4715 -1.7340 -0.0384
 3520TIP3   OH232050   0.382   6.158  12.820 -0.1332  0.3137 -0.8398
 3520TIP3    H132051   0.288   6.145  12.832 -0.1656  1.2464  0.0550
 3520TIP3    H232052   0.393   6.253  12.815  0.8966  0.2925  0.3863
 3521TIP3   OH232053   6.208   5.402   5.659  0.2945  0.1408 -0.7282
 3521TIP3    H132054   6.207   5.378   5.566  1.7798  1.5408 -1.1336
 3521TIP3    H232055   6.116   5.418   5.680 -0.1465 -0.8731 -1.7514
 3522TIP3   OH232056   0.004   6.225   2.872  0.0940  0.0251 -0.1539
 3522TIP3    H132057  -0.027   6.225   2.962 -1.7856  1.4039 -0.7419
 3522TIP3    H232058  -0.071   6.197   2.820  1.2636 -1.1597 -1.2918
 3523TIP3   OH232059   6.274   3.671   5.237 -0.5322  0.2008 -0.1547
 3523TIP3    H132060   6.226   3.671   5.319  1.4008 -0.9981  1.0666
 3523TIP3    H232061   6.241   3.595   5.189  0.2242 -0.7379  0.7647
 3524TIP3   OH232062   5.231   3.126   4.547 -0.4877  0.2218  0.2273
 3524TIP3    H132063   5.281   3.067   4.603 -0.2916  0.4036  0.2437
 3524TIP3    H232064   5.297   3.171   4.494 -0.7112 -0.5172 -0.7153
 3525TIP3   OH232065   3.239   6.200   1.450 -0.4347 -0.4192  0.2886
 3525TIP3    H132066   3.277   6.263   1.512 -0.5734 -1.3173  1.3034
 3525TIP3    H232067   3.300   6.126   1.450 -0.1188 -0.1889 -1.1207
 3526TIP3   OH232068   0.391   4.472   2.683  0.8353 -0.6104  0.4594
 3526TIP3    H132069   0.348   4.553   2.708  2.2284  1.0965 -2.1284
 3526TIP3    H232070   0.327   4.427   2.627  0.9564 -0.0528 -0.1326
 3527TIP3   OH232071   6.056   3.167  13.756  0.2216  0.2083 -0.5027
 3527TIP3    H132072   6.045   3.152  13.850 -1.3330  0.5231 -0.6090
 3527TIP3    H232073   6.047   3.080  13.717  1.7424 -0.0679 -0.3364
 3528TIP3   OH232074   3.291   3.605  13.861 -0.1740 -0.1988 -0.3786
 3528TIP3    H132075   3.253   3.544  13.923  0.3099  0.2650  0.3901
 3528TIP3    H232076   3.383   3.578  13.855 -0.5294 -1.2229 -2.1065
 3529TIP3   OH232077   3.260   4.291   5.377  0.1480  0.3804 -0.7542
 3529TIP3    H132078   3.179   4.341   5.367 -0.4489 -0.4999 -0.4651
 3529TIP3    H232079   3.233   4.199   5.371  0.9756  0.0403  0.3916
 3530TIP3   OH232080   1.190   4.545   2.977 -0.6132 -0.7952  0.2691
 3530TIP3    H132081   1.183   4.514   3.067  0.9588  0.3025  0.8051
 3530TIP3    H232082   1.175   4.467   2.923 -2.0212 -1.3860  1.4430
 3531TIP3   OH232083   3.268   2.250  11.923  0.6170 -0.1792  0.2330
 3531TIP3    H132084   3.287   2.156  11.914  1.4807  0.0673 -0.5716
 3531TIP3    H232085   3.343   2.285  11.970  0.3856  0.1558  0.3563
 3532TIP3   OH232086   2.665   4.272   2.927 -0.3932 -0.4047  0.1844
 3532TIP3    H132087   2.610   4.346   2.952 -1.3548 -0.7370 -0.8548
 3532TIP3    H232088   2.732   4.310   2.870 -0.0494 -0.1393  0.7493
 3533TIP3   OH232089   1.715   2.361   0.868  0.0021 -0.0266  0.4230
 3533TIP3    H132090   1.773   2.434   0.846 -0.3773  0.3784  0.7444
 3533TIP3    H232091   1.774   2.287   0.885  0.4518  0.5125  1.2505
 3534TIP3   OH232092   3.404   3.134  15.271  0.4290  0.6083  0.5090
 3534TIP3    H132093   3.491   3.114  15.305  0.4049 -2.3163 -0.8279
 3534TIP3    H232094   3.418   3.148  15.177 -0.4427  0.9184  0.4145
 3535TIP3   OH232095   3.118   5.584   3.316 -0.3104 -0.1765 -0.0523
 3535TIP3    H132096   3.037   5.537   3.337 -1.2965  1.5970  0.3386
 3535TIP3    H232097   3.111   5.666   3.365  1.0665  0.6395 -1.1528
 3536TIP3   OH232098   0.191   4.025   0.670 -0.5737  0.3305 -0.1697
 3536TIP3    H132099   0.211   4.036   0.763  1.0196 -0.1450 -0.4300
 3536TIP3    H232100   0.223   4.106   0.630 -0.7431  0.2888 -0.3898
 3537TIP3   OH232101   5.465   1.756   3.869  0.0271  0.7421  0.2188
 3537TIP3    H132102   5.550   1.787   3.836  1.3464 -2.6097  0.0773
 3537TIP3    H232103   5.409   1.753   3.792  0.5342  0.7309 -0.1562
 3538TIP3   OH232104   4.539   1.785  16.756  0.3754  0.1787  0.0663
 3538TIP3    H132105   4.553   1.718  16.823  0.0063  0.7206  0.6896
 3538TIP3    H232106   4.444   1.800  16.756  0.5325  1.2591  0.4828
 3539TIP3   OH232107   0.389   3.042  16.843  0.1266  0.7289 -0.0931
 3539TIP3    H132108   0.360   3.129  16.871  0.0204  0.6686 -0.0188
 3539TIP3    H232109   0.476   3.032  16.883 -0.6394  0.0283  1.4529
 3540TIP3   OH232110   5.291   5.811  13.396 -0.3174  0.1705 -0.1746
 3540TIP3    H132111   5.351   5.752  13.350 -0.9580  0.1367 -0.9896
 3540TIP3    H232112   5.274   5.768  13.480 -2.4704 -1.9570 -1.5693
 3541TIP3   OH232113   0.810   5.613  10.409 -0.1752  0.1662 -0.9103
 3541TIP3    H132114   0.753   5.591  10.483  1.0816 -0.1040  0.0016
 3541TIP3    H232115   0.840   5.702  10.429  1.7599 -0.6337 -0.0134
 3542TIP3   OH232116   5.813   0.466   4.702  0.4097 -0.1077  0.1418
 3542TIP3    H132117   5.785   0.408   4.631 -0.8473 -0.0615  0.5610
 3542TIP3    H232118   5.833   0.549   4.659 -1.5487  0.3075 -0.0747
 3543TIP3   OH232119   4.297   2.403   3.195  0.2701 -0.3113 -0.3432
 3543TIP3    H132120   4.250   2.457   3.259 -1.0496 -2.3835  0.5538
 3543TIP3    H232121   4.385   2.394   3.232  0.8486  1.9151 -1.0030
 3544TIP3   OH232122   5.211   3.309  13.413  0.6362  0.2127 -0.2376
 3544TIP3    H132123   5.176   3.342  13.330  0.0574 -0.0176 -0.0950
 3544TIP3    H232124   5.133   3.288  13.465  0.9891 -0.2140  0.1336
 3545TIP3   OH232125   3.481   1.059  14.510  0.0369 -0.2039  0.5888
 3545TIP3    H132126   3.400   1.013  14.489  0.6796 -1.6381  1.1123
 3545TIP3    H232127   3.527   1.066  14.426  0.1971 -1.0788  0.5957
 3546TIP3   OH232128   1.429   0.595   0.044  0.5654  0.1496  0.3718
 3546TIP3    H132129   1.444   0.501   0.047  0.8083  0.1534 -0.4643
 3546TIP3    H232130   1.456   0.627   0.131  0.9087 -0.4862  0.5023
 3547TIP3   OH232131   0.089   3.396   3.335  0.2127  0.3992 -0.6327
 3547TIP3    H132132   0.084   3.383   3.241 -1.4443 -3.5929 -0.2046
 3547TIP3    H232133   0.073   3.490   3.348 -0.8723  0.8438 -4.2183
 3548TIP3   OH232134   4.701   3.345   3.131  0.4190 -0.0508  0.1199
 3548TIP3    H132135   4.753   3.344   3.050  0.0500 -0.3755 -0.1118
 3548TIP3    H232136   4.612   3.325   3.103  0.1414  0.6103  0.5065
 3549TIP3   OH232137   2.005   1.791  12.729 -0.4790 -0.2392 -0.4506
 3549TIP3    H132138   1.934   1.847  12.696  0.1279  0.9192  0.1432
 3549TIP3    H232139   2.030   1.831  12.812  0.1996 -1.2264 -0.1611
 3550TIP3   OH232140   1.770   2.882   0.651 -0.0794 -0.4101  0.1715
 3550TIP3    H132141   1.828   2.898   0.577 -0.1713 -0.0314  0.1794
 3550TIP3    H232142   1.683   2.876   0.614 -0.1315 -0.1737  0.2516
 3551TIP3   OH232143   3.060   0.224  11.146 -0.0389  0.5671  0.3339
 3551TIP3    H132144   3.154   0.236  11.136  0.1200  0.0374  1.1298
 3551TIP3    H232145   3.051   0.153  11.209 -0.9662 -0.3132 -0.7397
 3552TIP3   OH232146   2.842   4.228   2.122 -0.4863  0.1159 -0.4498
 3552TIP3    H132147   2.800   4.194   2.201  0.3949  1.1736  0.5335
 3552TIP3    H232148   2.928   4.185   2.120  0.2384  1.4376  0.2533
 3553TIP3   OH232149   5.815   6.526   0.015  0.0390 -0.1539 -0.5094
 3553TIP3    H132150   5.888   6.464   0.010 -0.7927 -1.4930  2.2603
 3553TIP3    H232151   5.759   6.503  -0.059  1.0117 -0.9884 -1.0194
 3554TIP3   OH232152   0.395   4.999   0.825 -0.0984 -0.0698 -0.1558
 3554TIP3    H132153   0.303   5.019   0.844  0.5339  1.7996  1.2483
 3554TIP3    H232154   0.416   4.924   0.881 -0.1466  1.0320  1.3879
 3555TIP3   OH232155   1.690   2.529  12.936 -0.1378  0.0258  0.4315
 3555TIP3    H132156   1.724   2.603  12.987 -0.9535 -0.8929  2.4138
 3555TIP3    H232157   1.763   2.504  12.879  1.1546  0.5847  1.7722
 3556TIP3   OH232158   4.829   3.396  16.074 -0.1214 -0.0042  0.4439
 3556TIP3    H132159   4.794   3.310  16.051  1.6532 -0.3208 -1.3939
 3556TIP3    H232160   4.911   3.376  16.120  0.1753  0.6816  0.2215
 3557TIP3   OH232161   1.466   1.452   1.688 -0.6016  0.2222  0.0602
 3557TIP3    H132162   1.530   1.382   1.672  0.9392  1.9251 -1.7667
 3557TIP3    H232163   1.433   1.434   1.776  1.9005 -1.1333  0.8230
 3558TIP3   OH232164   4.785   4.072   4.222 -0.0598  0.2026  0.3992
 3558TIP3    H132165   4.861   4.112   4.263  0.5896  0.0543 -0.6105
 3558TIP3    H232166   4.792   3.979   4.242  1.8032 -0.3426 -2.2485
 3559TIP3   OH232167   1.696   4.646   0.371  0.0099  0.2128 -0.0435
 3559TIP3    H132168   1.765   4.692   0.323 -0.1433  0.3391 -0.1412
 3559TIP3    H232169   1.628   4.712   0.385  1.6866  1.3781  3.8125
 3560TIP3   OH232170   6.805   2.438  13.971  0.1214  0.6505  0.2659
 3560TIP3    H132171   6.873   2.402  13.914  0.9529 -1.9230  2.6178
 3560TIP3    H232172   6.724   2.427  13.921  0.8624 -1.0102 -0.6816
 3561TIP3   OH232173   6.612   4.988   0.339  0.6805  0.2507  0.5330
 3561TIP3    H132174   6.596   5.083   0.331  1.7535  0.4004  0.0255
 3561TIP3    H232175   6.707   4.980   0.347  0.6034 -0.7954  0.5140
 3562TIP3   OH232176   2.554   0.814  10.723  0.2133 -0.7931 -0.0602
 3562TIP3    H132177   2.466   0.840  10.696  0.2032 -1.1203 -0.3435
 3562TIP3    H232178   2.540   0.756  10.798  0.2064 -0.5773  0.1093
 3563TIP3   OH232179   3.449   5.497   0.088 -0.1977 -0.6697  0.5616
 3563TIP3    H132180   3.489   5.416   0.118 -0.0138  0.0757  2.4532
 3563TIP3    H232181   3.355   5.482   0.099 -0.1119 -0.0169  2.8028
 3564TIP3   OH232182   2.870   1.178  16.148 -0.2706 -0.5078  0.6117
 3564TIP3    H132183   2.897   1.258  16.103 -2.1793  0.0758  0.4328
 3564TIP3    H232184   2.917   1.181  16.231  0.5526  0.2182  0.1349
 3565TIP3   OH232185   6.483   0.645  14.323 -0.4714  0.0106  1.0176
 3565TIP3    H132186   6.394   0.610  14.321 -0.8659  0.9891 -0.6587
 3565TIP3    H232187   6.496   0.684  14.236  1.8265 -0.6481  0.9937
 3566TIP3   OH232188   1.512   3.750  15.851 -0.7495  0.4534 -0.1307
 3566TIP3    H132189   1.528   3.843  15.871 -2.6786  0.5182  1.3169
 3566TIP3    H232190   1.434   3.751  15.795 -0.6798 -0.2828 -0.2463
 3567TIP3   OH232191   3.786   6.697   0.190 -0.2072  0.7406 -0.3513
 3567TIP3    H132192   3.791   6.702   0.285  1.1205  1.5546 -0.4390
 3567TIP3    H232193   3.877   6.701   0.161 -0.5426 -0.1776 -1.6381
 3568TIP3   OH232194   1.618   3.768  14.393  0.2854 -0.0073  0.2144
 3568TIP3    H132195   1.687   3.708  14.366 -0.2774 -1.4067  1.7085
 3568TIP3    H232196   1.613   3.758  14.489 -2.0197 -0.0453  0.1546
 3569TIP3   OH232197   3.991   0.807   4.320 -0.2496  0.4881  0.1864
 3569TIP3    H132198   4.023   0.767   4.239  1.7199 -1.0701  1.6177
 3569TIP3    H232199   4.048   0.883   4.333  0.2141  0.0675  0.6664
 3570TIP3   OH232200   3.827   6.043  11.319 -0.3960 -0.3080 -0.1038
 3570TIP3    H132201   3.856   6.109  11.257 -2.3036 -0.1013 -0.8362
 3570TIP3    H232202   3.824   5.962  11.268 -1.6039 -0.2107 -0.2146
 3571TIP3   OH232203   6.172   0.854   0.222 -0.3387  0.0657  0.0660
 3571TIP3    H132204   6.229   0.899   0.284 -1.4614  1.2158  0.3192
 3571TIP3    H232205   6.213   0.867   0.137  1.2032 -1.4977  0.5270
 3572TIP3   OH232206   2.395   6.175  14.704 -0.0339  0.4224  0.4885
 3572TIP3    H132207   2.334   6.143  14.771 -2.5229  0.9651 -1.3780
 3572TIP3    H232208   2.366   6.265  14.686  1.1673  0.6127 -0.6489
 3573TIP3   OH232209   4.084   3.611   3.636  0.3209  0.0003 -0.4643
 3573TIP3    H132210   4.046   3.600   3.723 -1.5138  0.1146 -1.2036
 3573TIP3    H232211   4.063   3.529   3.590  0.2202  0.4206 -1.1778
 3574TIP3   OH232212   3.007   1.286  11.787  0.5449 -0.5961  0.1195
 3574TIP3    H132213   3.043   1.372  11.766  1.1660 -0.8080  0.2991
 3574TIP3    H232214   3.078   1.241  11.834 -0.2546 -0.6980  1.2769
 3575TIP3   OH232215   4.115   2.885  11.337  0.6005  0.2425  0.2094
 3575TIP3    H132216   4.122   2.973  11.299 -0.4685  0.8897  1.4640
 3575TIP3    H232217   4.201   2.846  11.321  1.3052  1.7415  0.1741
 3576TIP3   OH232218   0.275   5.252   4.688  0.4786  0.1881  0.0688
 3576TIP3    H132219   0.321   5.334   4.708  1.3434 -0.3369  0.2787
 3576TIP3    H232220   0.306   5.191   4.755  1.3166 -0.8409 -1.2045
 3577TIP3   OH232221   3.355   0.601  16.147  0.2965 -0.0411 -0.0148
 3577TIP3    H132222   3.341   0.542  16.073  0.4777 -0.8128  0.5539
 3577TIP3    H232223   3.275   0.592  16.199 -1.3311  2.9623 -1.7227
 3578TIP3   OH232224   1.350   6.666  15.793 -0.4264  0.0295  0.2313
 3578TIP3    H132225   1.268   6.645  15.750 -0.9052  1.2249  0.4950
 3578TIP3    H232226   1.331   6.748  15.840  1.7174  2.0853 -2.1481
 3579TIP3   OH232227   6.313   3.752   5.855 -0.4314  0.4628 -0.3069
 3579TIP3    H132228   6.361   3.775   5.776 -0.2898  0.1624 -0.3103
 3579TIP3    H232229   6.224   3.732   5.824  0.3192 -2.5848 -0.8631
 3580TIP3   OH232230   2.432   3.666  15.769  0.4077 -0.1099 -0.5836
 3580TIP3    H132231   2.473   3.689  15.685 -1.4318 -0.0394 -1.5255
 3580TIP3    H232232   2.414   3.750  15.811  0.3143 -0.0917 -0.6576
 3581TIP3   OH232233   0.999   2.446   4.250  0.0370  0.3470  0.2779
 3581TIP3    H132234   0.972   2.426   4.160  0.9212  0.2533  0.0261
 3581TIP3    H232235   0.920   2.431   4.302 -0.7018  1.1440 -0.5687
 3582TIP3   OH232236   6.556   2.510   2.378 -0.2448 -0.3545  0.5039
 3582TIP3    H132237   6.513   2.483   2.459 -0.4695 -0.6140  0.2974
 3582TIP3    H232238   6.551   2.606   2.379 -0.8004 -0.3784  0.5009
 3583TIP3   OH232239   5.868   3.334   6.241 -0.2846 -0.4422  0.0637
 3583TIP3    H132240   5.827   3.421   6.242 -0.7520 -0.6242 -1.2515
 3583TIP3    H232241   5.805   3.277   6.285 -0.2191 -0.2157  0.4534
 3584TIP3   OH232242   5.949   5.353   0.257 -0.2566 -0.0795 -0.3177
 3584TIP3    H132243   5.857   5.341   0.234 -0.4056 -0.0532  0.2489
 3584TIP3    H232244   5.949   5.425   0.319  0.0417 -0.6807  0.3912
 3585TIP3   OH232245   6.494   4.199   3.340  0.8754 -0.2651 -0.0043
 3585TIP3    H132246   6.589   4.188   3.340  1.2207  2.1367  0.4619
 3585TIP3    H232247   6.470   4.200   3.433  0.7715  1.5888 -0.0283
 3586TIP3   OH232248   0.051   5.409   4.603  0.3908  0.2714  0.3079
 3586TIP3    H132249  -0.027   5.377   4.648 -0.9170  0.7299 -1.5084
 3586TIP3    H232250   0.124   5.362   4.643 -0.9701 -1.3078  1.0307
 3587TIP3   OH232251   0.521   3.629   0.373  0.4587  0.2324 -0.1529
 3587TIP3    H132252   0.551   3.566   0.438  0.9821 -0.1972 -0.8052
 3587TIP3    H232253   0.552   3.714   0.406  0.9962 -0.0178 -0.0069
 3588TIP3   OH232254   0.154   3.351   1.176  0.2730  0.0582 -0.5278
 3588TIP3    H132255   0.128   3.261   1.158  1.3389 -0.6633  1.2924
 3588TIP3    H232256   0.088   3.383   1.238  1.1989 -0.3073  0.6848
 3589TIP3   OH232257   4.488   0.140  16.612 -0.1788  0.1907 -0.4469
 3589TIP3    H132258   4.400   0.118  16.641 -0.9008  2.6449 -0.5034
 3589TIP3    H232259   4.494   0.107  16.523 -1.6722  1.3551 -1.0232
 3590TIP3   OH232260   0.803   2.590   6.453 -0.0276  0.0459 -0.3300
 3590TIP3    H132261   0.713   2.561   6.467 -0.6516  1.5207 -1.0494
 3590TIP3    H232262   0.803   2.682   6.479  1.2874  0.0592 -0.3161
 3591TIP3   OH232263   1.945   4.949  12.429 -0.4184  0.4975 -0.4293
 3591TIP3    H132264   1.855   4.959  12.399  0.1628  1.0539 -2.0888
 3591TIP3    H232265   1.989   5.029  12.399  0.5262  0.4618  0.7940
 3592TIP3   OH232266   3.835   2.190  11.852  0.2738  0.1965 -0.5909
 3592TIP3    H132267   3.746   2.225  11.858  0.8117  1.5999 -0.4577
 3592TIP3    H232268   3.847   2.170  11.759 -1.1587 -2.8109 -0.2592
 3593TIP3   OH232269   4.736   3.789  10.836 -0.0342  0.0630 -0.3120
 3593TIP3    H132270   4.816   3.741  10.814 -1.3301 -2.7284  0.5044
 3593TIP3    H232271   4.698   3.813  10.752  1.1037  0.4758 -0.7282
 3594TIP3   OH232272   3.655   1.392  12.956 -0.3533 -0.6015  1.0004
 3594TIP3    H132273   3.584   1.356  13.009 -2.2026  1.1080 -0.1597
 3594TIP3    H232274   3.611   1.438  12.885  1.9545  0.0814 -0.0989
 3595TIP3   OH232275   5.830   5.710   5.407 -0.3393 -0.1961  0.1534
 3595TIP3    H132276   5.867   5.694   5.320  0.0239 -0.0075  0.2700
 3595TIP3    H232277   5.822   5.623   5.446  2.0988 -0.1222  0.9785
 3596TIP3   OH232278   1.667   5.177   4.883  0.2638 -0.2436  0.1887
 3596TIP3    H132279   1.639   5.205   4.796 -1.1524 -1.4120  0.2333
 3596TIP3    H232280   1.637   5.247   4.941  1.6503  0.7814 -0.2779
 3597TIP3   OH232281   5.959   6.067   3.500 -0.3644  0.5807 -0.3885
 3597TIP3    H132282   5.940   6.069   3.406 -1.2384 -0.7238 -0.2519
 3597TIP3    H232283   5.968   6.160   3.524  1.8382  0.9029 -2.1180
 3598TIP3   OH232284   2.061   6.776  13.798 -0.3931 -0.1562 -0.0352
 3598TIP3    H132285   2.111   6.710  13.750  0.9416  0.8236 -0.0577
 3598TIP3    H232286   2.109   6.787  13.880 -1.5505 -0.4015  0.6918
 3599TIP3   OH232287   3.690   6.700  14.008 -0.5685 -0.0205  0.8573
 3599TIP3    H132288   3.746   6.776  13.992  0.8328 -1.4822 -1.8262
 3599TIP3    H232289   3.739   6.647  14.071  1.3321 -1.3739 -1.5976
 3600TIP3   OH232290   1.012   1.989  14.610 -0.1152  0.5956 -0.4430
 3600TIP3    H132291   0.940   1.926  14.618 -0.5961  0.9169 -1.9059
 3600TIP3    H232292   1.005   2.043  14.689 -0.4025 -0.4547  0.2755
 3601TIP3   OH232293   2.587   1.734  11.612  0.2915  0.0402 -0.4910
 3601TIP3    H132294   2.557   1.786  11.686 -0.0317 -0.2843 -0.3948
 3601TIP3    H232295   2.661   1.684  11.646 -0.7908 -1.2622  0.0551
 3602TIP3   OH232296   1.709   1.208   2.113  0.1851 -0.1819  0.1172
 3602TIP3    H132297   1.718   1.128   2.165 -1.3886 -1.1011 -0.9495
 3602TIP3    H232298   1.763   1.192   2.035 -1.6874 -1.1224 -1.0655
 3603TIP3   OH232299   5.758   3.984  13.333  0.2843  0.0875 -0.7660
 3603TIP3    H132300   5.814   4.061  13.346 -0.7845  0.8542 -0.6014
 3603TIP3    H232301   5.820   3.911  13.326  1.3118  0.9258 -0.7300
 3604TIP3   OH232302   1.072   4.998   1.273 -0.4496  0.0414  0.3726
 3604TIP3    H132303   1.039   5.067   1.215  0.8721 -0.4252 -0.9860
 3604TIP3    H232304   0.993   4.950   1.299 -1.3379  1.6985  0.9202
 3605TIP3   OH232305   3.860   4.252  10.456 -0.3583 -0.5044 -0.2425
 3605TIP3    H132306   3.894   4.184  10.397 -0.9848 -2.6900  1.7836
 3605TIP3    H232307   3.923   4.256  10.528 -0.9197  0.2869  0.2239
 3606TIP3   OH232308   0.586   1.422   5.137 -0.1821  0.2888 -0.5430
 3606TIP3    H132309   0.604   1.498   5.192  1.5848 -1.3346  1.3442
 3606TIP3    H232310   0.503   1.388   5.170  0.4519 -0.1902  0.6550
 3607TIP3   OH232311   4.002   1.100  14.788 -0.4234 -0.1769  0.0477
 3607TIP3    H132312   3.978   1.134  14.874  2.1500  0.9077  0.4233
 3607TIP3    H232313   3.996   1.175  14.730 -1.7387 -0.8124 -0.6873
 3608TIP3   OH232314   3.760   3.987   5.642  0.0921 -0.8939  0.5837
 3608TIP3    H132315   3.765   3.994   5.737 -1.5648  0.2823  0.6186
 3608TIP3    H232316   3.779   4.075   5.611  2.0916 -1.5727 -0.3007
 3609TIP3   OH232317   5.293   6.104   5.347 -0.5117  0.5446 -0.1281
 3609TIP3    H132318   5.198   6.095   5.355 -0.4174 -0.3653  0.0546
 3609TIP3    H232319   5.326   6.099   5.437 -0.2026 -0.4132 -0.2750
 3610TIP3   OH232320   5.622   4.816  11.850 -0.1371  0.3045 -0.2159
 3610TIP3    H132321   5.693   4.817  11.786  0.7323 -0.4900  0.7153
 3610TIP3    H232322   5.604   4.724  11.865 -1.2409  0.4900 -0.2678
 3611TIP3   OH232323   1.634   4.650   2.269  0.3293  0.2887  0.1420
 3611TIP3    H132324   1.575   4.575   2.266  0.2255  0.3290  0.9073
 3611TIP3    H232325   1.691   4.632   2.344  0.9847  0.4736 -0.3043
 3612TIP3   OH232326   1.936   2.304   2.048  0.5273 -0.4050  0.0876
 3612TIP3    H132327   1.921   2.379   2.106 -0.1412 -0.2070 -0.3372
 3612TIP3    H232328   1.951   2.343   1.962 -0.7807 -0.7751 -0.3365
 3613TIP3   OH232329   5.333   5.361  13.563 -0.0696  0.1235  0.2053
 3613TIP3    H132330   5.245   5.333  13.591  0.8150 -1.3345  1.7587
 3613TIP3    H232331   5.340   5.451  13.593 -0.7250 -0.0418  0.8903
 3614TIP3   OH232332   6.682   2.911   3.218  0.4078 -0.2155  0.4052
 3614TIP3    H132333   6.679   2.820   3.188  0.3695  0.4963 -2.0107
 3614TIP3    H232334   6.599   2.924   3.264  0.5301 -1.4579  1.0105
 3615TIP3   OH232335   4.216   4.664  15.353  0.1823  0.1701 -0.4548
 3615TIP3    H132336   4.142   4.621  15.311  0.9829 -2.0769  0.2536
 3615TIP3    H232337   4.278   4.679  15.282  0.6297 -1.5914 -0.4864
 3616TIP3   OH232338   2.064   1.668   5.105 -0.1102  0.4346  0.4140
 3616TIP3    H132339   2.002   1.693   5.174 -1.1392 -0.7735 -0.0349
 3616TIP3    H232340   2.011   1.624   5.039  1.0972  0.1471 -0.4076
 3617TIP3   OH232341   3.465   3.064  13.553 -0.1552 -0.0857  0.3283
 3617TIP3    H132342   3.523   3.094  13.623  0.3383 -1.2228  0.4309
 3617TIP3    H232343   3.524   3.043  13.480 -0.6665  1.1802 -0.4987
 3618TIP3   OH232344   4.876   4.069   5.910  0.1519  0.0917 -0.3192
 3618TIP3    H132345   4.869   3.975   5.928  0.1715  0.1442 -0.0317
 3618TIP3    H232346   4.841   4.111   5.989  1.4292  0.3455  0.1256
 3619TIP3   OH232347   6.732   1.312  16.429  0.9395  0.2608 -0.0686
 3619TIP3    H132348   6.754   1.301  16.336 -1.4387  0.4579 -0.7142
 3619TIP3    H232349   6.753   1.404  16.447  0.1665  0.6062 -0.8213
 3620TIP3   OH232350   3.499   2.402   2.734 -0.4138 -0.2862  0.5960
 3620TIP3    H132351   3.507   2.372   2.825  2.6763 -0.1642  0.4676
 3620TIP3    H232352   3.498   2.322   2.683  0.0606 -0.3261  0.6439
 3621TIP3   OH232353   1.970   1.302   0.607  0.3287  0.2775  0.2494
 3621TIP3    H132354   2.016   1.384   0.596  1.1658 -0.1385  0.5753
 3621TIP3    H232355   1.919   1.314   0.687 -1.4251  1.3077 -0.9500
 3622TIP3   OH232356   1.269   6.386   3.801 -0.4958 -0.2359  0.0119
 3622TIP3    H132357   1.255   6.294   3.823  1.3160 -0.7870 -0.8976
 3622TIP3    H232358   1.195   6.432   3.840 -1.8681 -2.1658 -0.1865
 3623TIP3   OH232359   3.785   2.927   4.763  0.9759 -0.1473  0.2690
 3623TIP3    H132360   3.789   3.017   4.732  0.0284 -0.4692 -0.8254
 3623TIP3    H232361   3.695   2.899   4.748  1.7392 -1.9528 -1.3812
 3624TIP3   OH232362   3.759   3.684  13.333 -0.8577 -0.2446  0.2758
 3624TIP3    H132363   3.802   3.740  13.268  0.8898 -1.2792  0.4901
 3624TIP3    H232364   3.765   3.596  13.296 -1.4184 -0.6149  1.0399
 3625TIP3   OH232365   3.491   4.151  17.140  0.0065  0.6303 -0.1543
 3625TIP3    H132366   3.524   4.239  17.161  0.1348  0.7510 -0.8453
 3625TIP3    H232367   3.435   4.128  17.215  3.2625 -0.4651  2.1683
 3626TIP3   OH232368   1.885   0.656  13.655 -0.3698  0.4588 -0.5476
 3626TIP3    H132369   1.911   0.748  13.655  0.3422  0.2950 -1.9381
 3626TIP3    H232370   1.935   0.617  13.727  0.7461  0.8195 -1.0947
 3627TIP3   OH232371   5.288   1.877   4.439  0.4267 -0.6516 -0.7742
 3627TIP3    H132372   5.371   1.872   4.487 -0.9677  1.3430  2.2232
 3627TIP3    H232373   5.233   1.808   4.478 -0.3160  0.1291 -0.4024
 3628TIP3   OH232374   5.736   4.762  16.977  0.3940 -0.2249 -0.1343
 3628TIP3    H132375   5.748   4.718  16.893  1.1075 -1.4886  0.5946
 3628TIP3    H232376   5.727   4.691  17.040 -0.3204  0.7008  0.8404
 3629TIP3   OH232377   3.321   2.805  12.042 -0.0024 -0.7258  0.7040
 3629TIP3    H132378   3.374   2.828  11.966 -0.9608 -0.2150  0.1651
 3629TIP3    H232379   3.282   2.888  12.070 -1.3060 -1.2169  0.4566
 3630TIP3   OH232380   5.818   4.175   0.021 -0.2478  0.2043 -0.4276
 3630TIP3    H132381   5.909   4.163  -0.005  0.1655  0.6013  0.8126
 3630TIP3    H232382   5.787   4.087   0.041  0.2595  0.2099  0.4180
 3631TIP3   OH232383   4.845   2.955   5.110  0.6354 -0.2722 -0.2478
 3631TIP3    H132384   4.933   2.974   5.078  0.6369 -0.4739 -0.3713
 3631TIP3    H232385   4.858   2.891   5.180  0.8526  2.1783  2.0751
 3632TIP3   OH232386   5.676   6.518   2.706  0.0816  0.2669  0.1268
 3632TIP3    H132387   5.703   6.580   2.638  1.6835  0.8606  1.2314
 3632TIP3    H232388   5.706   6.433   2.673 -0.8615  0.2581 -0.7554
 3633TIP3   OH232389   6.674   5.678  11.138 -0.0579 -0.2720 -0.3007
 3633TIP3    H132390   6.629   5.762  11.150 -1.2956 -1.1274  1.4680
 3633TIP3    H232391   6.620   5.631  11.075 -1.0804 -0.8485  0.9527
 3634TIP3   OH232392   0.075   1.204   2.263 -0.3277  0.2559  0.2756
 3634TIP3    H132393  -0.003   1.175   2.216  1.9517 -1.8909 -2.5948
 3634TIP3    H232394   0.121   1.122   2.285  2.0070  1.4506  0.1515
 3635TIP3   OH232395   2.790   5.359   0.488 -0.0556 -0.3893 -0.0768
 3635TIP3    H132396   2.835   5.285   0.446 -1.5158 -0.9804 -0.6793
 3635TIP3    H232397   2.714   5.320   0.530  0.2453  0.5145  1.3594
 3636TIP3   OH232398   0.867   2.328  13.468  0.2502 -0.3613 -0.4517
 3636TIP3    H132399   0.804   2.256  13.473 -0.5632  0.4084  1.9163
 3636TIP3    H232400   0.928   2.302  13.399 -0.4878 -2.9431 -0.2420
 3637TIP3   OH232401   5.621   6.003   0.638  0.6216  0.0373 -0.0194
 3637TIP3    H132402   5.676   6.081   0.632  0.7225  0.0636  1.0473
 3637TIP3    H232403   5.581   6.009   0.725  1.3692 -1.5808  0.4754
 3638TIP3   OH232404   5.971   6.336   3.122 -0.2362 -0.2574  0.6159
 3638TIP3    H132405   5.907   6.373   3.062  0.2592 -0.2495  0.0826
 3638TIP3    H232406   6.024   6.278   3.067  0.9800  0.6509  0.7893
 3639TIP3   OH232407   1.327   4.742   4.348  0.4252  0.7891  0.3525
 3639TIP3    H132408   1.280   4.771   4.427  2.6018  1.9574  1.3198
 3639TIP3    H232409   1.271   4.768   4.275 -1.3029  0.3610  1.4667
 3640TIP3   OH232410   5.238   2.865  13.844  0.8948 -0.3387  0.0524
 3640TIP3    H132411   5.323   2.905  13.865  0.3520 -0.4039  2.7468
 3640TIP3    H232412   5.177   2.939  13.844  0.5605 -0.6098  0.7390
 3641TIP3   OH232413   2.692   4.565  13.064  0.0170  0.1253 -0.3178
 3641TIP3    H132414   2.713   4.571  12.971  0.9599  2.5567 -0.0226
 3641TIP3    H232415   2.750   4.628  13.106 -1.6369  0.4101  1.7149
 3642TIP3   OH232416   0.529   5.734  12.406  0.6315 -0.0434 -0.1729
 3642TIP3    H132417   0.622   5.731  12.430  0.2335  2.4513  2.2953
 3642TIP3    H232418   0.529   5.767  12.316  2.1273 -0.9179 -0.5382
 3643TIP3   OH232419   1.805   0.122  15.389  0.1098 -0.0802 -0.7886
 3643TIP3    H132420   1.810   0.204  15.436 -1.3544 -0.1084 -0.5139
 3643TIP3    H232421   1.769   0.146  15.303 -0.7409 -0.4572 -0.5547
 3644TIP3   OH232422   4.143   0.316  11.437 -0.1120 -0.4741  0.0594
 3644TIP3    H132423   4.101   0.383  11.384 -1.8087  0.0241  1.9318
 3644TIP3    H232424   4.079   0.245  11.441  0.8270 -1.3606 -0.2054
 3645TIP3   OH232425   2.078   3.132   3.023 -0.4344 -0.2645 -0.8517
 3645TIP3    H132426   2.100   3.077   3.099  1.8239  0.9101 -0.5598
 3645TIP3    H232427   2.128   3.094   2.951  0.9170  1.1139 -0.7127
 3646TIP3   OH232428   2.724   0.784  12.841 -0.3410 -0.1360 -0.1071
 3646TIP3    H132429   2.683   0.862  12.803  0.1172  0.4742  0.6290
 3646TIP3    H232430   2.706   0.791  12.935 -1.0227 -1.3639 -0.1265
 3647TIP3   OH232431   0.228   3.162  15.637 -0.3912 -0.3287  0.2075
 3647TIP3    H132432   0.285   3.203  15.704 -0.4781  0.8518 -0.4120
 3647TIP3    H232433   0.142   3.199  15.654 -0.6411 -0.8846  0.1392
 3648TIP3   OH232434   1.521   4.941   4.353 -0.0430 -0.0330  0.4900
 3648TIP3    H132435   1.442   4.992   4.337  0.1661  0.2854  0.4478
 3648TIP3    H232436   1.491   4.862   4.397 -0.3826  0.0900  0.4803
 3649TIP3   OH232437   5.293   4.856   1.392  0.2995 -0.1040 -0.3979
 3649TIP3    H132438   5.357   4.846   1.462 -0.0407  0.9361  0.0867
 3649TIP3    H232439   5.322   4.934   1.345 -0.7556  0.5590  0.0087
 3650TIP3   OH232440   1.476   3.905  12.456 -0.5695 -0.2755  0.6756
 3650TIP3    H132441   1.534   3.871  12.524  0.0610  0.6354  0.5977
 3650TIP3    H232442   1.520   3.982  12.422 -0.3532 -1.2816 -1.5077
 3651TIP3   OH232443   4.806   1.954   2.450  0.2079 -0.3918 -0.1308
 3651TIP3    H132444   4.895   1.982   2.472  0.0124 -0.3629  0.6392
 3651TIP3    H232445   4.803   1.957   2.354  0.9345 -0.0858 -0.1483
 3652TIP3   OH232446   5.062   0.747   3.511  0.2230  0.0017 -0.2706
 3652TIP3    H132447   5.073   0.713   3.599  0.8635  2.1326  0.5410
 3652TIP3    H232448   5.092   0.676   3.454  0.6119 -1.1081  1.2492
 3653TIP3   OH232449   5.808   6.227  16.806 -0.4656 -0.1859  0.2339
 3653TIP3    H132450   5.845   6.312  16.831 -0.1567  0.5183 -2.4017
 3653TIP3    H232451   5.863   6.163  16.851  0.4300  0.9597  0.8220
 3654TIP3   OH232452   3.143   3.872  10.742 -0.1246  0.4152  0.2012
 3654TIP3    H132453   3.140   3.966  10.759  0.3309  0.7653 -1.4929
 3654TIP3    H232454   3.236   3.849  10.752 -0.2866  0.0566  0.9643
 3655TIP3   OH232455   6.482   1.081   2.873 -0.1438 -0.1457  0.1388
 3655TIP3    H132456   6.470   1.170   2.840 -2.8748 -0.3360  0.3809
 3655TIP3    H232457   6.427   1.077   2.952  1.4954 -1.4809  1.2671
 3656TIP3   OH232458   0.573   3.961  15.431  0.3214 -0.0938  0.7414
 3656TIP3    H132459   0.569   3.865  15.425 -0.3553 -0.0689  0.7235
 3656TIP3    H232460   0.544   3.992  15.345 -2.0277  0.1492  1.5463
 3657TIP3   OH232461   4.319   1.136   2.993  0.0335  0.3024 -1.0228
 3657TIP3    H132462   4.371   1.057   2.982  0.0038  0.2039 -0.4614
 3657TIP3    H232463   4.383   1.205   3.009 -0.0084  0.1860 -0.3591
 3658TIP3   OH232464   2.638   5.203   0.649  0.0910 -0.3286 -0.1978
 3658TIP3    H132465   2.580   5.239   0.716  1.7274 -0.8591  1.5672
 3658TIP3    H232466   2.582   5.144   0.599 -1.3346  0.6098  0.2148
 3659TIP3   OH232467   3.499   0.925  15.346  0.3538  0.0564 -0.2446
 3659TIP3    H132468   3.406   0.946  15.338  0.5011  1.0782  0.4452
 3659TIP3    H232469   3.505   0.831  15.330 -0.6359  0.1917 -1.5100
 3660TIP3   OH232470   0.876   1.288   4.686 -0.0149  0.5777  0.6303
 3660TIP3    H132471   0.954   1.239   4.713  0.8857  0.4368 -1.9750
 3660TIP3    H232472   0.803   1.233   4.713  0.8854 -0.6212  0.7165
 3661TIP3   OH232473   3.637   3.949  11.489  0.6161 -0.1478  0.0314
 3661TIP3    H132474   3.683   3.894  11.553 -0.0874  0.5287  1.1415
 3661TIP3    H232475   3.546   3.950  11.519 -0.0043 -0.8547 -1.7204
 3662TIP3   OH232476   0.032   2.687  14.073 -0.4890 -0.0565 -0.0564
 3662TIP3    H132477   0.127   2.698  14.074 -0.2583 -1.0404  3.2191
 3662TIP3    H232478   0.018   2.606  14.024  0.5145 -0.5893  0.4867
 3663TIP3   OH232479   5.722   0.986  17.033 -0.3129  0.7462  0.6727
 3663TIP3    H132480   5.658   1.043  16.990 -0.9317  0.8945  1.7551
 3663TIP3    H232481   5.704   0.997  17.127  0.7031  0.0879  0.9558
 3664TIP3   OH232482   0.274   1.279  13.498  0.1417 -0.1324 -0.3903
 3664TIP3    H132483   0.340   1.284  13.429 -0.6251  0.3075 -1.1015
 3664TIP3    H232484   0.296   1.352  13.557  1.2542 -0.9689  0.2673
 3665TIP3   OH232485   2.400   6.693  15.039  0.1407  0.4073  0.3047
 3665TIP3    H132486   2.324   6.749  15.052 -0.5295 -0.8775  2.4727
 3665TIP3    H232487   2.453   6.705  15.118  1.0893 -0.3431 -0.1974
 3666TIP3   OH232488   3.011   4.320  10.629  0.6826 -0.9098 -0.3267
 3666TIP3    H132489   3.083   4.380  10.610  0.0024  0.0050 -0.0735
 3666TIP3    H232490   2.932   4.372  10.616  0.1112 -1.2194  1.6830
 3667TIP3   OH232491   6.081   2.813  15.481 -0.3867  1.1451  0.1463
 3667TIP3    H132492   6.065   2.730  15.437  0.4713  0.8255  0.4230
 3667TIP3    H232493   6.010   2.821  15.544 -1.1406  1.1948 -0.6831
 3668TIP3   OH232494   5.548   5.069  12.542  0.2620  0.2072 -0.3701
 3668TIP3    H132495   5.582   5.018  12.469 -1.5772  0.1607 -1.2647
 3668TIP3    H232496   5.542   5.006  12.614  2.5329  0.3631  0.0338
 3669TIP3   OH232497   2.818   5.660  14.294 -0.1395 -0.0896 -0.7462
 3669TIP3    H132498   2.728   5.650  14.323 -0.3267  1.7986 -0.5446
 3669TIP3    H232499   2.870   5.656  14.374 -0.2567  0.8712 -0.6104
 3670TIP3   OH232500   6.285   3.338   0.265  0.5302  0.7557 -0.0166
 3670TIP3    H132501   6.264   3.410   0.324  0.3849  0.7155 -0.0190
 3670TIP3    H232502   6.296   3.380   0.180 -1.6574  0.5333 -0.4644
 3671TIP3   OH232503   3.866   0.296   5.586 -0.3130  0.3934  0.1822
 3671TIP3    H132504   3.876   0.369   5.525 -0.9025 -0.5600 -1.1035
 3671TIP3    H232505   3.926   0.229   5.553 -0.0769  0.1333  1.1042
 3672TIP3   OH232506   5.443   6.761  15.763  1.2441 -0.1757  0.2145
 3672TIP3    H132507   5.383   6.691  15.738  0.3631  0.5810  0.1645
 3672TIP3    H232508   5.495   6.778  15.685 -0.0383  0.7143 -0.4791
 3673TIP3   OH232509   3.783   5.512   4.049 -0.4831  0.5118 -0.5635
 3673TIP3    H132510   3.706   5.473   4.092  0.9212 -0.4133  1.3084
 3673TIP3    H232511   3.811   5.445   3.987 -0.3747  0.2162 -0.2053
 3674TIP3   OH232512   2.861   6.449  13.476 -0.2226 -0.4301 -0.1865
 3674TIP3    H132513   2.767   6.448  13.457  0.0035  0.6800 -1.5254
 3674TIP3    H232514   2.877   6.366  13.520 -2.0871 -0.0332  1.4291
 3675TIP3   OH232515   5.063   4.913   4.973  0.1795 -0.0940  0.5549
 3675TIP3    H132516   4.978   4.929   5.015 -0.0293  0.1147  0.0722
 3675TIP3    H232517   5.074   4.818   4.976 -1.2804 -0.4162 -1.6058
 3676TIP3   OH232518   6.074   2.946   4.664  0.3754 -0.4750  0.2250
 3676TIP3    H132519   6.078   3.030   4.710 -1.9780 -1.6736  2.9555
 3676TIP3    H232520   6.092   2.967   4.573 -1.7905  3.3049  0.4803
 3677TIP3   OH232521   0.462   0.283  14.212  0.1255 -0.0563  0.2393
 3677TIP3    H132522   0.478   0.256  14.302  1.9294 -0.0289 -0.0351
 3677TIP3    H232523   0.429   0.372  14.219 -0.8518 -0.4496  0.9019
 3678TIP3   OH232524   1.271   6.774   3.702  0.2133  0.5949  0.1377
 3678TIP3    H132525   1.308   6.808   3.620 -2.0478 -1.0533 -1.6824
 3678TIP3    H232526   1.208   6.841   3.728  0.4251  0.7920  0.1529
 3679TIP3   OH232527   2.016   4.131  16.812  0.1831 -0.2135 -0.0096
 3679TIP3    H132528   1.988   4.139  16.721 -0.4230 -1.6120  0.0311
 3679TIP3    H232529   1.945   4.172  16.863  0.4172  0.3661 -0.1346
 3680TIP3   OH232530   5.930   6.097   4.910 -0.2327  0.2570  0.7043
 3680TIP3    H132531   6.026   6.091   4.913 -0.1952  0.7312  0.5364
 3680TIP3    H232532   5.903   6.019   4.861  0.1857  1.0119 -0.7735
 3681TIP3   OH232533   1.905   5.170   3.350 -0.3751  0.3748  0.1003
 3681TIP3    H132534   1.971   5.141   3.413 -0.6678 -0.2318  0.1336
 3681TIP3    H232535   1.849   5.229   3.400 -1.8467 -1.6897  1.0190
 3682TIP3   OH232536   0.949   6.393  14.650  0.6969  0.8855 -0.7067
 3682TIP3    H132537   0.978   6.358  14.735  0.6390  1.1102 -0.5926
 3682TIP3    H232538   1.029   6.430  14.612  0.6255  1.2241 -0.5319
 3683TIP3   OH232539   5.982   4.112   5.187 -0.2014 -0.3576 -0.1912
 3683TIP3    H132540   6.077   4.125   5.184 -0.2207  0.0915  0.7850
 3683TIP3    H232541   5.968   4.031   5.138  0.5908 -0.0037 -1.0390
 3684TIP3   OH232542   5.072   6.639  14.319  0.2220  0.3636 -0.2723
 3684TIP3    H132543   5.008   6.583  14.362  0.1258 -0.5335 -1.5312
 3684TIP3    H232544   5.059   6.623  14.226  2.4908 -0.0984 -0.5714
 3685TIP3   OH232545   0.178   0.452   2.101  0.3020 -0.5439 -0.5955
 3685TIP3    H132546   0.182   0.433   2.007  1.4226  0.7642 -0.8303
 3685TIP3    H232547   0.169   0.547   2.107  0.6922 -0.5614  0.6391
 3686TIP3   OH232548   0.261   4.575  11.827 -0.6628  0.0041  0.1535
 3686TIP3    H132549   0.207   4.540  11.897 -3.1604  2.3359 -0.4244
 3686TIP3    H232550   0.244   4.669  11.828  0.7663  0.3810 -2.3112
 3687TIP3   OH232551   5.454   5.918  11.554  0.3009  0.3307 -0.0605
 3687TIP3    H132552   5.547   5.895  11.564  1.0373  3.1413  0.3113
 3687TIP3    H232553   5.448   5.955  11.466 -0.5703 -0.0838 -0.1877
 3688TIP3   OH232554   3.846   3.337  14.328  0.0616  0.5921  0.1317
 3688TIP3    H132555   3.890   3.281  14.391  1.4192  0.2763 -1.0452
 3688TIP3    H232556   3.871   3.302  14.243 -1.2899  1.3312 -0.6027
 3689TIP3   OH232557   6.357   3.743   1.157 -0.1567  0.3321  0.0337
 3689TIP3    H132558   6.449   3.767   1.165 -0.1074  0.8841 -1.7552
 3689TIP3    H232559   6.312   3.798   1.222  0.9152 -1.4500  2.4675
 3690TIP3   OH232560   1.139   1.123   5.275  0.1747 -0.8805  0.5573
 3690TIP3    H132561   1.071   1.154   5.215  0.5705  0.7720  0.9256
 3690TIP3    H232562   1.221   1.148   5.234  0.5774 -2.3608  0.3966
 3691TIP3   OH232563   3.738   1.223  15.448  0.4795 -0.0468 -0.5917
 3691TIP3    H132564   3.643   1.213  15.450  0.5096 -0.4772 -0.9205
 3691TIP3    H232565   3.758   1.250  15.358  0.6568  0.1889 -0.4843
 3692TIP3   OH232566   2.276   4.992   1.609  0.3285 -0.1865 -0.5790
 3692TIP3    H132567   2.359   4.995   1.657  0.5349 -1.9029 -0.7449
 3692TIP3    H232568   2.246   4.902   1.620 -0.5827 -0.0958 -2.0648
 3693TIP3   OH232569   1.472   3.677   5.919 -0.4420  0.7579 -0.1042
 3693TIP3    H132570   1.525   3.751   5.888 -0.1207  0.2728 -0.7200
 3693TIP3    H232571   1.521   3.599   5.893 -1.0444  0.3175  0.0641
 3694TIP3   OH232572   3.401   6.474  12.487 -0.1777  0.7583 -0.0274
 3694TIP3    H132573   3.324   6.474  12.544  0.4975 -0.6977  0.9703
 3694TIP3    H232574   3.450   6.552  12.512 -0.4426  0.7213  0.6337
 3695TIP3   OH232575   6.260   2.671  17.167 -0.0768 -0.1223 -0.0173
 3695TIP3    H132576   6.323   2.714  17.225 -0.5187 -0.5522  0.7868
 3695TIP3    H232577   6.283   2.578  17.171 -2.6117 -0.7874  2.7416
 3696TIP3   OH232578   4.117   3.548  11.560 -0.0655  0.3555  0.2678
 3696TIP3    H132579   4.102   3.602  11.482 -0.7374 -0.3896 -0.1331
 3696TIP3    H232580   4.192   3.589  11.603 -0.0094  1.0858 -0.4892
 3697TIP3   OH232581   1.151   5.509   3.603  0.2075 -0.1587  0.9382
 3697TIP3    H132582   1.109   5.426   3.582 -1.0439  0.6715 -0.0023
 3697TIP3    H232583   1.189   5.539   3.520 -1.0227  1.1012  0.7943
 3698TIP3   OH232584   4.102   1.034   0.955 -0.0902 -0.1059 -0.2415
 3698TIP3    H132585   4.114   0.953   1.005 -1.6000 -1.4455 -1.9367
 3698TIP3    H232586   4.008   1.048   0.954  0.0579  0.9346 -1.1454
 3699TIP3   OH232587   3.184   5.398   0.151 -0.2595  0.2352 -0.2732
 3699TIP3    H132588   3.116   5.456   0.186 -1.4374 -0.0230 -2.0317
 3699TIP3    H232589   3.205   5.339   0.224 -2.5710 -0.2344  0.0876
 3700TIP3   OH232590   3.397   1.339   4.364  0.4136 -0.1536  0.1011
 3700TIP3    H132591   3.476   1.287   4.352  0.8354  0.5378 -0.2064
 3700TIP3    H232592   3.376   1.329   4.457 -0.1558 -1.7410 -0.1722
 3701TIP3   OH232593   6.596   5.633  10.803  0.0204 -0.7043  0.2945
 3701TIP3    H132594   6.580   5.575  10.729 -2.5572  1.3071 -0.8452
 3701TIP3    H232595   6.686   5.664  10.790  0.0734 -1.4110 -1.2211
 3702TIP3   OH232596   6.708   0.344   3.176 -0.7549 -0.1697  0.3745
 3702TIP3    H132597   6.650   0.290   3.229 -0.9818  0.6921  1.0290
 3702TIP3    H232598   6.738   0.286   3.106 -1.4879 -0.9522  0.6936
 3703TIP3   OH232599   5.118   3.498  14.861  0.0359 -0.3109 -0.0421
 3703TIP3    H132600   5.107   3.445  14.941 -1.0109  0.0308  0.0650
 3703TIP3    H232601   5.040   3.477  14.809  0.0168  0.5121 -0.3484
 3704TIP3   OH232602   5.085   2.600  14.440 -0.1072 -0.3016  0.0175
 3704TIP3    H132603   5.153   2.549  14.396  0.5101  0.7771 -0.3110
 3704TIP3    H232604   5.096   2.689  14.406  0.7112  0.7115  2.6802
 3705TIP3   OH232605   2.831   5.683   3.730 -0.6375 -0.2072  0.6657
 3705TIP3    H132606   2.851   5.745   3.660 -1.6856  1.0638  1.4304
 3705TIP3    H232607   2.785   5.611   3.686 -0.0348 -0.1140 -0.1388
 3706TIP3   OH232608   4.581   6.575   2.042  0.1188  0.3609 -0.7649
 3706TIP3    H132609   4.573   6.509   1.973 -1.5426  0.4754 -0.7120
 3706TIP3    H232610   4.546   6.655   2.003 -0.1026  0.6192 -0.0487
 3707TIP3   OH232611   4.920   1.250   1.074  0.8141  0.4294 -0.6003
 3707TIP3    H132612   4.932   1.339   1.042 -1.4359  0.0978 -2.6797
 3707TIP3    H232613   4.888   1.201   0.998 -1.1947 -1.3593  1.2420
 3708TIP3   OH232614   6.553   5.694  12.567  0.4130 -0.1541  0.7170
 3708TIP3    H132615   6.529   5.606  12.597  0.8645 -0.1886  0.9945
 3708TIP3    H232616   6.531   5.694  12.474  1.1855 -0.8656  0.5110
 3709TIP3   OH232617   1.448   6.429   3.461 -0.1510  0.2894  0.4877
 3709TIP3    H132618   1.429   6.356   3.402  0.1948 -0.8491  1.7339
 3709TIP3    H232619   1.513   6.482   3.414  0.0549 -0.5357 -0.1851
 3710TIP3   OH232620   4.512   0.668  14.103 -0.2013 -0.0440 -0.0595
 3710TIP3    H132621   4.427   0.643  14.139 -1.4058  1.7972 -1.4639
 3710TIP3    H232622   4.528   0.605  14.032 -1.0576  0.4071 -0.6677
 3711TIP3   OH232623   4.108   5.710  11.887 -0.1320  0.0724 -0.1700
 3711TIP3    H132624   4.104   5.787  11.944  3.2564  1.0407 -0.9709
 3711TIP3    H232625   4.144   5.641  11.942 -0.6106 -0.1590 -0.1435
 3712TIP3   OH232626   1.891   1.594   2.941 -0.3638 -0.1535  0.1543
 3712TIP3    H132627   1.887   1.687   2.918  2.3975  0.1026  0.4155
 3712TIP3    H232628   1.888   1.549   2.857  1.0066  0.3412 -0.1821
 3713TIP3   OH232629   2.043   6.067  13.852  0.1005 -0.4094 -0.7343
 3713TIP3    H132630   2.061   5.973  13.845  1.4354 -0.3148  0.8956
 3713TIP3    H232631   2.129   6.109  13.839 -0.5569  0.6363 -1.9266
 3714TIP3   OH232632   2.283   2.795  17.123 -0.4489  0.4101 -0.6342
 3714TIP3    H132633   2.309   2.859  17.056 -0.8100  0.5839 -0.6107
 3714TIP3    H232634   2.188   2.807  17.131 -0.1084  2.1584  1.7362
 3715TIP3   OH232635   1.400   6.086  14.201  0.0637 -0.0658 -0.6980
 3715TIP3    H132636   1.336   6.098  14.130  0.6505 -0.2949 -1.2837
 3715TIP3    H232637   1.424   5.994  14.196  0.7040  0.0954 -0.7259
 3716TIP3   OH232638   4.595   1.377  14.977  0.0105  0.0568 -0.1004
 3716TIP3    H132639   4.538   1.313  15.019  0.4207 -0.5718 -0.4828
 3716TIP3    H232640   4.677   1.372  15.026  0.3375 -0.3505 -0.6785
 3717TIP3   OH232641   4.130   6.479   2.864 -0.2209  0.1279  0.0268
 3717TIP3    H132642   4.128   6.566   2.822  0.2675  0.1520  0.0479
 3717TIP3    H232643   4.083   6.491   2.947 -0.5215  0.2671 -0.1590
 3718TIP3   OH232644   0.112   1.847  12.995 -0.3959  0.1313  0.7591
 3718TIP3    H132645   0.163   1.793  13.054  0.8961 -0.5661 -0.9075
 3718TIP3    H232646   0.124   1.936  13.026  0.0157 -0.2476  1.7064
 3719TIP3   OH232647   2.866   0.041   5.642  0.2188  0.2065 -0.4212
 3719TIP3    H132648   2.812  -0.029   5.681  1.8603 -0.4408  0.8038
 3719TIP3    H232649   2.830   0.121   5.679  1.3944 -0.3592  2.1816
 3720TIP3   OH232650   2.932   4.777  15.715  0.3716 -0.0252 -0.6154
 3720TIP3    H132651   2.912   4.871  15.713  0.9283  0.1757  1.2520
 3720TIP3    H232652   2.979   4.765  15.797 -2.5551 -2.4888  0.8884
 3721TIP3   OH232653   5.297   4.238   4.924 -0.0948 -0.2485 -0.0342
 3721TIP3    H132654   5.349   4.159   4.906 -0.0105 -0.2735  0.3239
 3721TIP3    H232655   5.323   4.265   5.011 -2.1914 -1.4596  1.0495
 3722TIP3   OH232656   4.789   6.317  17.140 -0.1812 -0.0711 -0.1057
 3722TIP3    H132657   4.880   6.312  17.169 -0.4515 -0.0382  0.7521
 3722TIP3    H232658   4.756   6.398  17.179 -0.7246 -0.3401 -0.0080
 3723TIP3   OH232659   1.288   4.565  12.947 -0.1827 -0.2867 -0.2936
 3723TIP3    H132660   1.299   4.654  12.982  1.6966 -0.7173  0.3527
 3723TIP3    H232661   1.336   4.567  12.864 -0.4517 -0.6141 -0.4578
 3724TIP3   OH232662   3.016   2.765  14.701 -0.0801 -0.3737  0.0236
 3724TIP3    H132663   3.022   2.818  14.780  1.3515 -0.7280  0.1757
 3724TIP3    H232664   2.922   2.761  14.682 -0.5378 -0.9879  2.1703
 3725TIP3   OH232665   4.330   3.128   5.696 -0.2498 -0.1363 -0.2842
 3725TIP3    H132666   4.412   3.144   5.743  0.0079 -0.9430 -0.4536
 3725TIP3    H232667   4.304   3.215   5.664 -0.1835  0.3502  0.9317
 3726TIP3   OH232668   4.056   5.398   4.387 -0.1994 -0.2938 -0.8328
 3726TIP3    H132669   4.115   5.324   4.396 -0.2609 -0.1494  0.9591
 3726TIP3    H232670   3.969   5.359   4.377 -0.4514 -0.5295  1.6515
 3727TIP3   OH232671   5.978   4.268  11.378 -0.5806 -0.0218 -0.2944
 3727TIP3    H132672   6.022   4.353  11.369 -1.4018  0.3604 -0.9421
 3727TIP3    H232673   5.968   4.237  11.288 -0.1590 -0.8872 -0.0522
 3728TIP3   OH232674   6.463   2.765   6.002  0.1115  0.0370  0.6450
 3728TIP3    H132675   6.528   2.828   5.971 -0.8482  0.2831 -1.0506
 3728TIP3    H232676   6.512   2.683   6.014  1.1186  0.7515  1.5850
 3729TIP3   OH232677   0.897   1.492   5.373 -0.2126  0.3942 -0.4268
 3729TIP3    H132678   0.915   1.577   5.413  0.8034 -0.1254  0.2472
 3729TIP3    H232679   0.959   1.432   5.415 -1.0461 -0.7201 -0.7494
 3730TIP3   OH232680   5.071   2.687  13.458  0.4203 -0.5240 -0.1121
 3730TIP3    H132681   5.023   2.648  13.531  1.0900 -1.7093 -0.2797
 3730TIP3    H232682   5.118   2.761  13.497 -1.3460  0.5488  0.0922
 3731TIP3   OH232683   4.878   1.920   6.345 -0.1407  0.3197  0.0805
 3731TIP3    H132684   4.889   2.002   6.393  1.3442 -0.4705  1.2116
 3731TIP3    H232685   4.930   1.856   6.395 -2.2531 -1.6260 -0.0250
 3732TIP3   OH232686   1.905   4.409  14.322 -0.0728 -0.2708 -0.2208
 3732TIP3    H132687   1.834   4.352  14.292 -0.6398  0.0847  0.4423
 3732TIP3    H232688   1.874   4.445  14.405  0.9605 -0.2538  0.1670
 3733TIP3   OH232689   3.230   2.614  15.499  0.4832 -0.4289 -0.3255
 3733TIP3    H132690   3.185   2.558  15.436  0.0022  0.5829 -0.9062
 3733TIP3    H232691   3.275   2.553  15.558 -1.5747 -1.4859  0.2479
 3734TIP3   OH232692   1.170   2.125  16.529 -0.7679  0.2486 -0.0170
 3734TIP3    H132693   1.188   2.069  16.604  0.6940 -0.4619 -0.8576
 3734TIP3    H232694   1.179   2.214  16.562 -0.8561 -0.0447  0.8135
 3735TIP3   OH232695   4.070   4.698  12.394  0.2461  0.5451 -0.1214
 3735TIP3    H132696   4.079   4.659  12.307  1.2332 -0.1707  0.2770
 3735TIP3    H232697   4.160   4.709  12.424 -0.0599  1.6833  0.4308
 3736TIP3   OH232698   0.176   1.287  15.366  0.5198  0.0495  0.9731
 3736TIP3    H132699   0.254   1.285  15.311 -0.7943 -0.4699 -0.9913
 3736TIP3    H232700   0.195   1.228  15.438  1.4509 -1.1905 -0.2332
 3737TIP3   OH232701   1.536   3.285   4.408 -0.4316  0.0263  0.1778
 3737TIP3    H132702   1.489   3.318   4.484  3.4247 -0.1657  2.9236
 3737TIP3    H232703   1.518   3.191   4.406 -1.5234  0.2241  0.0172
 3738TIP3   OH232704   5.764   4.092   3.713 -0.0766  0.2501 -0.0311
 3738TIP3    H132705   5.715   4.160   3.666  0.3453  1.6890  1.4961
 3738TIP3    H232706   5.698   4.045   3.763 -0.1878  0.6900  0.2450
 3739TIP3   OH232707   4.025   6.109  10.324  0.4012  0.1897  0.1138
 3739TIP3    H132708   4.045   6.202  10.312 -0.7788  0.5286  0.6034
 3739TIP3    H232709   3.929   6.106  10.329  0.4261 -1.0636  0.0471
 3740TIP3   OH232710   5.055   5.411  16.989 -0.2821 -0.3983  0.0079
 3740TIP3    H132711   5.087   5.400  17.079  1.4407 -0.9664 -0.6346
 3740TIP3    H232712   5.133   5.435  16.939 -1.0651 -0.8300 -1.4674
 3741TIP3   OH232713   2.607   6.580  16.674  0.2630  0.0570 -0.1819
 3741TIP3    H132714   2.515   6.561  16.658  0.0638  0.0896  0.8974
 3741TIP3    H232715   2.647   6.580  16.587 -0.7274 -0.0871 -0.6424
 3742TIP3   OH232716   1.391   2.705   0.484  0.1758  0.2333  0.3764
 3742TIP3    H132717   1.483   2.684   0.464  0.2686  0.3366  0.6839
 3742TIP3    H232718   1.341   2.662   0.415  0.5385  1.2543 -0.5622
 3743TIP3   OH232719   4.928   6.267  10.827  0.0469  0.2277 -0.4384
 3743TIP3    H132720   4.920   6.175  10.856 -2.3567  0.6964  0.6859
 3743TIP3    H232721   4.857   6.278  10.764  0.0462  1.4028 -0.2495
 3744TIP3   OH232722   3.449   3.050   2.343  0.3396 -0.0417  0.5009
 3744TIP3    H132723   3.469   3.043   2.437  0.3318 -0.6380  0.4637
 3744TIP3    H232724   3.419   3.140   2.332 -0.5532 -0.2279  1.2466
 3745TIP3   OH232725   2.370   4.083   2.633  0.6424 -0.7674  0.0810
 3745TIP3    H132726   2.428   4.012   2.607 -1.8871 -3.2915  0.7840
 3745TIP3    H232727   2.395   4.105   2.722  0.9978 -1.2455  0.0990
 3746TIP3   OH232728   2.059   0.618  15.779  0.3023 -0.1930 -0.0413
 3746TIP3    H132729   2.014   0.560  15.841 -2.4413  1.8555  0.0672
 3746TIP3    H232730   2.112   0.676  15.835  0.3884 -0.4076  0.1026
 3747TIP3   OH232731   6.282   1.934   6.028  0.8038 -0.2451  0.7972
 3747TIP3    H132732   6.276   2.021   6.067 -1.8700  0.0954 -0.1658
 3747TIP3    H232733   6.203   1.889   6.056  0.3162 -1.0599 -1.6280
 3748TIP3   OH232734   6.273   0.549  16.380 -0.0546  0.6148  0.4049
 3748TIP3    H132735   6.331   0.568  16.307 -0.1871 -1.1446 -0.2055
 3748TIP3    H232736   6.283   0.455  16.395 -1.5043  0.5774  1.3603
 3749TIP3   OH232737   0.749   6.292  15.233 -0.2044  0.0336  0.2169
 3749TIP3    H132738   0.665   6.318  15.197 -0.6290 -2.3204 -0.6465
 3749TIP3    H232739   0.791   6.374  15.259 -2.8575  1.2425  0.9723
 3750TIP3   OH232740   4.584   1.722   5.991 -0.2720 -0.3311  0.5384
 3750TIP3    H132741   4.580   1.627   5.997  2.1446 -0.3933  3.0670
 3750TIP3    H232742   4.599   1.752   6.080 -0.2360  2.3917 -0.2711
 3751TIP3   OH232743   6.111   5.140  13.521 -0.6122  0.0036  0.4025
 3751TIP3    H132744   6.096   5.060  13.572 -0.7621  0.0794  0.4791
 3751TIP3    H232745   6.038   5.141  13.459  0.8538 -1.3633 -1.4518
 3752TIP3   OH232746   6.087   1.847  14.475  0.2545  0.0700  0.0757
 3752TIP3    H132747   6.054   1.808  14.555  2.8756 -0.9316  0.7812
 3752TIP3    H232748   6.088   1.776  14.412  0.1772  0.3231 -0.2135
 3753TIP3   OH232749   6.810   0.094   3.744  0.3819  0.0669  0.0162
 3753TIP3    H132750   6.745   0.026   3.760  1.6627 -0.9158  1.4281
 3753TIP3    H232751   6.837   0.122   3.832  2.0336  0.2133 -0.4958
 3754TIP3   OH232752   5.019   0.130   3.343 -0.4325  0.6721  0.4491
 3754TIP3    H132753   4.926   0.129   3.322 -0.3754 -1.3894  0.0975
 3754TIP3    H232754   5.029   0.063   3.411  0.9313  0.1293 -0.2508
 3755TIP3   OH232755   1.909   4.276  11.909  0.5795  0.4184  0.6944
 3755TIP3    H132756   1.963   4.234  11.977  1.8469  0.7368 -0.0914
 3755TIP3    H232757   1.850   4.333  11.958  0.3296 -0.6021  1.6338
 3756TIP3   OH232758   1.713   4.417  12.027 -0.2432 -0.0688  0.6162
 3756TIP3    H132759   1.661   4.487  11.987  1.4485  0.5720 -0.6104
 3756TIP3    H232760   1.733   4.449  12.115 -0.1319  0.6383  0.3371
 3757TIP3   OH232761   5.290   2.247   2.057 -0.2430 -0.3414  0.0865
 3757TIP3    H132762   5.283   2.327   2.005 -0.7331 -0.7212 -0.4401
 3757TIP3    H232763   5.206   2.239   2.102  0.5956  0.6545  1.9654
 3758TIP3   OH232764   6.526   6.190   5.203  0.5931 -0.4942  0.1062
 3758TIP3    H132765   6.543   6.176   5.110 -1.0955  0.7428 -0.4401
 3758TIP3    H232766   6.583   6.127   5.248  2.5497 -0.1026 -1.6793
 3759TIP3   OH232767   4.858   2.917  15.060  0.2362 -0.3817  0.5386
 3759TIP3    H132768   4.824   2.940  14.974  0.2842  1.2290  0.9197
 3759TIP3    H232769   4.888   2.826  15.051 -0.0874 -0.3552 -1.0267
 3760TIP3   OH232770   2.928   6.032  12.437 -0.0222 -0.1616 -0.5423
 3760TIP3    H132771   2.856   6.072  12.388 -1.6140 -1.0774  0.9378
 3760TIP3    H232772   2.885   5.970  12.496  2.1358 -2.1810 -0.9547
 3761TIP3   OH232773   1.168   5.439   2.842  0.3544  0.2391 -0.2093
 3761TIP3    H132774   1.256   5.443   2.879  1.5556 -1.4177 -2.6251
 3761TIP3    H232775   1.124   5.517   2.876  2.6539  0.9920  1.2675
 3762TIP3   OH232776   4.820   3.674   0.657 -0.0035  0.5311 -0.3415
 3762TIP3    H132777   4.842   3.617   0.730 -2.0093 -1.7205 -1.3621
 3762TIP3    H232778   4.755   3.735   0.693 -0.7621 -0.3759 -0.1246
 3763TIP3   OH232779   5.801   3.922   1.334 -0.1124 -0.0192 -0.6637
 3763TIP3    H132780   5.713   3.922   1.370 -0.0181  1.1541 -0.3704
 3763TIP3    H232781   5.858   3.923   1.411  0.1370 -0.1211 -0.8461
 3764TIP3   OH232782   5.299   0.795   1.372  0.2282  0.3182 -0.2389
 3764TIP3    H132783   5.391   0.781   1.350 -0.0137  0.2125 -1.2742
 3764TIP3    H232784   5.283   0.741   1.449  0.4952 -1.4112 -1.3541
 3765TIP3   OH232785   0.519   0.669  17.022  0.6788 -0.1709 -0.2877
 3765TIP3    H132786   0.592   0.614  17.052  0.3432 -1.5895 -1.8896
 3765TIP3    H232787   0.548   0.702  16.937  1.0738  2.6647  0.8447
 3766TIP3   OH232788   6.665   3.604  14.051 -0.5209  0.2982 -0.3443
 3766TIP3    H132789   6.652   3.678  13.991 -2.9452  0.7234  0.5849
 3766TIP3    H232790   6.699   3.645  14.131 -2.8289  0.6826  0.5357
 3767TIP3   OH232791   2.696   6.769  11.377  0.8360 -0.2397  0.4656
 3767TIP3    H132792   2.760   6.817  11.428  0.2405  2.2229 -0.9612
 3767TIP3    H232793   2.697   6.811  11.291 -3.4713  0.7340  0.6936
 3768TIP3   OH232794   1.585   1.019  15.592  0.1549 -0.0198  0.3814
 3768TIP3    H132795   1.606   1.110  15.611 -0.4109  0.2562 -0.3066
 3768TIP3    H232796   1.493   1.020  15.568  0.4891 -0.5578 -1.0019
 3769TIP3   OH232797   5.776   6.701  12.705 -0.0308 -0.0501  0.0741
 3769TIP3    H132798   5.722   6.767  12.748 -1.4030 -0.3754 -1.0360
 3769TIP3    H232799   5.724   6.674  12.629  1.6319 -0.5493 -0.9422
 3770TIP3   OH232800   1.223   3.263  14.139 -0.1547 -0.3128 -0.5951
 3770TIP3    H132801   1.254   3.172  14.142 -0.0223 -0.3583 -2.1887
 3770TIP3    H232802   1.184   3.271  14.052  0.7207  1.4376 -0.8559
 3771TIP3   OH232803   6.033   0.680  11.895 -0.8620  0.5335 -0.3749
 3771TIP3    H132804   6.082   0.660  11.816 -0.4566  0.9330 -0.2298
 3771TIP3    H232805   5.976   0.753  11.870  0.1147  1.4569  0.0035
 3772TIP3   OH232806   0.225   4.543   0.286 -0.1697  0.7047 -0.3630
 3772TIP3    H132807   0.307   4.577   0.251  0.5356  0.0392  0.5807
 3772TIP3    H232808   0.190   4.488   0.216  1.7274 -1.4161  0.2119
 3773TIP3   OH232809   5.083   0.452   1.376 -0.7391  0.1956  0.0235
 3773TIP3    H132810   5.008   0.510   1.357 -0.9293 -0.5052 -1.5282
 3773TIP3    H232811   5.093   0.400   1.296  0.7319 -0.4813  0.6282
 3774TIP3   OH232812   0.492   4.248  16.236  0.5284 -0.0439  0.0305
 3774TIP3    H132813   0.449   4.264  16.320 -0.5623  0.8430 -0.6793
 3774TIP3    H232814   0.521   4.157  16.242 -1.5598 -0.7317  0.4950
 3775TIP3   OH232815   1.655   2.118  15.238 -0.1191  0.1771  0.0888
 3775TIP3    H132816   1.591   2.183  15.209 -0.9479  0.0762  1.5886
 3775TIP3    H232817   1.729   2.171  15.271  1.3567  0.2996 -3.0752
 3776TIP3   OH232818   3.312   4.902   1.223 -0.1155 -0.0480 -0.7279
 3776TIP3    H132819   3.339   4.899   1.315  0.3710 -0.7807 -0.8860
 3776TIP3    H232820   3.244   4.969   1.220  1.5645  1.7453 -0.2806
 3777TIP3   OH232821   3.971   6.051  16.006  0.1108 -0.1766  0.5184
 3777TIP3    H132822   3.899   6.070  15.946  0.7783  0.0325 -0.2476
 3777TIP3    H232823   4.042   6.108  15.977  0.6213 -0.4602  1.1757
 3778TIP3   OH232824   4.464   3.734  17.058 -0.1915 -0.5116  0.0798
 3778TIP3    H132825   4.515   3.812  17.076 -0.4003 -0.4594  0.4629
 3778TIP3    H232826   4.399   3.761  16.994  1.0566 -0.8888 -1.4014
 3779TIP3   OH232827   1.046   1.323   0.109  0.0649 -0.3580 -0.3356
 3779TIP3    H132828   1.006   1.391   0.055  0.6334  2.6864  2.7111
 3779TIP3    H232829   0.973   1.281   0.153 -0.2710 -1.6708 -2.0378
 3780TIP3   OH232830   1.609   3.640   3.312  0.2536 -0.0776 -0.7989
 3780TIP3    H132831   1.636   3.571   3.251  0.9677 -2.2682  1.8227
 3780TIP3    H232832   1.525   3.611   3.346  0.2084  0.7427 -0.1862
 3781TIP3   OH232833   3.107   1.947  15.127 -0.2740  0.8112  0.2466
 3781TIP3    H132834   3.124   1.862  15.169 -1.8081  1.1161  1.5619
 3781TIP3    H232835   3.177   1.955  15.062  1.0915 -0.5497  1.4493
 3782TIP3   OH232836   0.948   2.453   5.395  0.3316  0.2824  0.7846
 3782TIP3    H132837   0.944   2.360   5.417  1.3849 -0.1318 -0.6068
 3782TIP3    H232838   0.894   2.496   5.461  0.3449 -1.2457  1.8407
 3783TIP3   OH232839   1.112   1.288  16.703 -0.3317 -0.6954  0.3383
 3783TIP3    H132840   1.204   1.300  16.724  0.1075 -0.7461 -1.4318
 3783TIP3    H232841   1.093   1.199  16.730  0.5299 -1.1676 -0.5536
 3784TIP3   OH232842   3.265   5.686  11.913 -0.3550 -0.3623  0.2244
 3784TIP3    H132843   3.283   5.615  11.852  1.1131 -0.1859  0.4194
 3784TIP3    H232844   3.313   5.761  11.878 -1.9895  0.5914 -0.0530
 3785TIP3   OH232845   1.263   2.664   2.956 -0.5593  0.3738  0.7244
 3785TIP3    H132846   1.195   2.600   2.934 -0.3142  0.2849  0.2162
 3785TIP3    H232847   1.302   2.688   2.872  0.2558  0.1833  1.0344
 3786TIP3   OH232848   6.556   4.822   3.579 -0.8440  0.2516 -0.0579
 3786TIP3    H132849   6.480   4.862   3.537  0.2063  1.9895 -0.4240
 3786TIP3    H232850   6.571   4.876   3.657  0.4117  0.4054 -0.3791
 3787TIP3   OH232851   1.438   2.719   1.463 -0.4156  0.6611 -0.3737
 3787TIP3    H132852   1.398   2.730   1.377 -3.0378  0.7420  0.7904
 3787TIP3    H232853   1.454   2.624   1.470 -0.6454  0.5957 -0.7342
 3788TIP3   OH232854   0.292   4.114   5.653 -0.6727 -0.0952  0.2152
 3788TIP3    H132855   0.270   4.186   5.595 -0.6569 -0.3244 -0.0764
 3788TIP3    H232856   0.383   4.128   5.677 -1.0222  0.6950  1.1899
 3789TIP3   OH232857   6.236   1.603  15.445  0.3918 -0.7374 -0.4250
 3789TIP3    H132858   6.144   1.579  15.449  0.5532 -1.2475  0.6747
 3789TIP3    H232859   6.278   1.530  15.400  0.3309 -0.7247 -0.5031
 3790TIP3   OH232860   6.074   0.189  13.216 -0.3304  0.3347  0.2141
 3790TIP3    H132861   6.168   0.203  13.227 -0.3462  1.4748 -0.8985
 3790TIP3    H232862   6.041   0.274  13.187 -1.3346 -0.6102 -1.5561
 3791TIP3   OH232863   5.174   4.303  14.402 -0.2503  0.1097 -0.0897
 3791TIP3    H132864   5.132   4.217  14.399  0.2591 -0.1876  0.8538
 3791TIP3    H232865   5.127   4.350  14.471 -2.1716  1.5179 -2.2123
 3792TIP3   OH232866   1.760   5.316  14.827 -0.1481  0.0548 -0.0687
 3792TIP3    H132867   1.841   5.362  14.804 -0.3334 -0.9574 -3.1834
 3792TIP3    H232868   1.788   5.244  14.883  0.8805  0.6186  0.1662
 3793TIP3   OH232869   0.488   0.460  11.286  0.1355  0.1681  0.7958
 3793TIP3    H132870   0.583   0.463  11.280  0.1267  1.6561  1.0263
 3793TIP3    H232871   0.459   0.430  11.200  0.8234 -1.4203  1.0783
 3794TIP3   OH232872   6.221   3.910  12.204  0.1935 -0.4124 -0.5142
 3794TIP3    H132873   6.213   3.864  12.121  2.0627 -0.7582 -0.5464
 3794TIP3    H232874   6.303   3.958  12.197  0.2020 -0.1482  0.9983
 3795TIP3   OH232875   1.928   6.675   2.962 -0.0553 -0.5315 -0.1362
 3795TIP3    H132876   2.011   6.635   2.937  0.5653 -1.1985  2.6595
 3795TIP3    H232877   1.864   6.605   2.954 -0.0296 -0.5100 -0.5644
 3796TIP3   OH232878   3.697   6.314  15.469 -0.1015  0.4850 -0.4741
 3796TIP3    H132879   3.614   6.266  15.459 -0.1017  0.1894  0.7461
 3796TIP3    H232880   3.764   6.246  15.464 -0.1384  0.1353  2.0914
 3797TIP3   OH232881   4.862   2.431  15.977  0.3420 -0.1321  0.4124
 3797TIP3    H132882   4.949   2.405  15.948  0.4876  0.1156  0.6185
 3797TIP3    H232883   4.817   2.459  15.898  0.6457  0.2867  0.3874
 3798TIP3   OH232884   4.510   1.340   4.220 -0.2135 -0.2511  0.2615
 3798TIP3    H132885   4.472   1.387   4.295 -0.9570 -0.6739  0.1592
 3798TIP3    H232886   4.593   1.385   4.203 -0.3470  0.2631  0.9221
 3799TIP3   OH232887   3.781   1.038   2.136 -0.3803 -0.1993 -0.0292
 3799TIP3    H132888   3.807   1.018   2.046  1.3620  0.9216  0.1722
 3799TIP3    H232889   3.848   1.098   2.168 -2.0750  1.1107  1.3401
 3800TIP3   OH232890   6.810   6.763   3.020  0.5006 -0.1980  0.6822
 3800TIP3    H132891   6.745   6.695   3.040  0.3432 -0.1961  0.1959
 3800TIP3    H232892   6.875   6.755   3.089 -0.1596 -0.0170  1.3412
 3801TIP3   OH232893   0.001   0.710   5.729 -0.1188 -0.7539 -0.0702
 3801TIP3    H132894   0.042   0.764   5.796 -1.9118 -0.7607  1.0851
 3801TIP3    H232895   0.018   0.757   5.647  1.0749 -0.1241  0.5025
 3802TIP3   OH232896   3.808   3.364   4.695 -0.3234  0.5318 -0.1805
 3802TIP3    H132897   3.892   3.386   4.735 -0.9033  3.0237 -0.1648
 3802TIP3    H232898   3.823   3.281   4.650  1.1617 -0.9364  2.7103
 3803TIP3   OH232899   2.093   5.831  11.675 -0.2780  0.0383 -0.0700
 3803TIP3    H132900   2.073   5.810  11.584 -1.4118  0.6793  0.0036
 3803TIP3    H232901   2.182   5.867  11.673  0.3535 -1.4801 -0.6608
 3804TIP3   OH232902   2.304   5.021   3.373 -0.0085 -0.0534 -0.1318
 3804TIP3    H132903   2.305   5.044   3.280  1.0075 -0.8767 -0.3458
 3804TIP3    H232904   2.389   5.051   3.406 -0.5232  0.5915  0.6295
 3805TIP3   OH232905   2.467   4.874   4.631 -0.0701  0.0803  0.4187
 3805TIP3    H132906   2.420   4.864   4.548 -0.2344  3.9751 -0.1134
 3805TIP3    H232907   2.402   4.851   4.698  0.2046 -3.5950 -0.3523
 3806TIP3   OH232908   6.366   0.865  16.871  0.4034 -0.1300  0.2712
 3806TIP3    H132909   6.438   0.918  16.905  2.8951 -2.1603 -1.4338
 3806TIP3    H232910   6.338   0.911  16.792  2.7544 -1.3190 -1.3707
 3807TIP3   OH232911   5.712   4.058  11.795  0.1079  0.0603 -0.7178
 3807TIP3    H132912   5.733   4.060  11.889 -1.9881  0.7524 -0.2109
 3807TIP3    H232913   5.782   4.004  11.756  1.0976 -0.1385  1.1976
 3808TIP3   OH232914   0.916   1.754   3.887  0.3662  0.4719 -0.0304
 3808TIP3    H132915   0.967   1.803   3.821 -1.1150 -0.4008 -1.9002
 3808TIP3    H232916   0.830   1.796   3.887 -0.6580 -1.5072 -1.0312
 3809TIP3   OH232917   4.317   4.612   2.316 -0.1267 -0.6453 -0.1695
 3809TIP3    H132918   4.239   4.557   2.314 -1.2910  0.9195 -2.3779
 3809TIP3    H232919   4.314   4.661   2.234  2.7548  0.1096  0.0490
 3810TIP3   OH232920   5.849   2.595  13.455 -0.3586 -0.5531  0.4968
 3810TIP3    H132921   5.853   2.502  13.432  0.2923 -0.2875 -0.5146
 3810TIP3    H232922   5.801   2.635  13.382 -1.0507 -0.1583  1.1600
 3811TIP3   OH232923   3.170   4.137   4.928  0.4505 -0.0702  0.3174
 3811TIP3    H132924   3.127   4.155   4.845  0.4570 -1.9435 -0.1548
 3811TIP3    H232925   3.137   4.204   4.988  0.5171  1.3656 -1.1934
 3812TIP3   OH232926   5.398   5.033   5.367  0.4155  0.6388 -0.4560
 3812TIP3    H132927   5.398   5.109   5.309  0.2387 -0.0109 -1.3414
 3812TIP3    H232928   5.325   4.979   5.336 -0.9091  1.1443  1.5856
 3813TIP3   OH232929   3.405   3.805   4.186 -0.0233 -0.1799 -0.2117
 3813TIP3    H132930   3.374   3.813   4.276 -1.3124 -1.8265 -0.4584
 3813TIP3    H232931   3.390   3.891   4.147  1.7645  0.9532  1.4574
 3814TIP3   OH232932   0.019   2.779   5.083  0.0514 -0.6279 -0.3731
 3814TIP3    H132933   0.020   2.831   5.164  1.8957  0.4208 -1.0178
 3814TIP3    H232934  -0.073   2.777   5.057 -0.2654  1.0508  0.4938
 3815TIP3   OH232935   4.605   0.642   1.538  0.0490 -0.3834 -0.5682
 3815TIP3    H132936   4.617   0.721   1.486 -1.2920 -0.6318 -1.3001
 3815TIP3    H232937   4.520   0.608   1.511  0.9393 -2.5315 -0.8588
 3816TIP3   OH232938   6.420   3.352   6.171 -0.0629 -0.3640 -0.1786
 3816TIP3    H132939   6.388   3.441   6.158  0.2413 -0.2261 -0.0110
 3816TIP3    H232940   6.502   3.363   6.219 -0.4659 -0.7777  0.6342
 3817TIP3   OH232941   5.194   6.015  15.281 -0.2263  0.2188 -0.6693
 3817TIP3    H132942   5.253   5.955  15.235  1.3041  0.5142  0.7925
 3817TIP3    H232943   5.181   5.975  15.367  0.3671  1.6434  0.1287
 3818TIP3   OH232944   5.792   6.807  15.060  0.0171  0.1052  0.0792
 3818TIP3    H132945   5.861   6.743  15.045 -1.3819 -1.0079 -2.1099
 3818TIP3    H232946   5.788   6.858  14.979  0.0312  1.9594  1.1833
 3819TIP3   OH232947   4.969   5.234  15.474  0.1427 -0.4272 -0.0036
 3819TIP3    H132948   4.946   5.279  15.392 -0.4478 -0.3948  0.1737
 3819TIP3    H232949   5.005   5.150  15.446  2.5207  0.6378 -0.3985
 3820TIP3   OH232950   5.835   3.713  12.449  0.9409 -0.4492  0.0847
 3820TIP3    H132951   5.903   3.768  12.488  0.3230 -0.6621  1.5111
 3820TIP3    H232952   5.883   3.647  12.400  1.7097  0.8853 -1.0437
 3821TIP3   OH232953   6.571   6.305   2.103  0.0998  0.4969  0.1069
 3821TIP3    H132954   6.550   6.366   2.173 -1.0676  0.3512 -0.0916
 3821TIP3    H232955   6.594   6.223   2.148  1.9458  1.1147  0.3841
 3822TIP3   OH232956   5.058   0.846   2.722  0.0728 -0.7236 -0.4339
 3822TIP3    H132957   5.143   0.863   2.682  0.3529  0.0316  0.4536
 3822TIP3    H232958   5.047   0.751   2.716  0.7304 -0.7671 -1.0318
 3823TIP3   OH232959   0.366   1.349   4.881  0.0665 -0.4991 -0.2650
 3823TIP3    H132960   0.350   1.322   4.971  0.3594  0.4015  0.0660
 3823TIP3    H232961   0.336   1.275   4.828  0.1684 -1.1563  0.5797
 3824TIP3   OH232962   1.096   2.346   5.871  1.0612 -0.3596 -0.0286
 3824TIP3    H132963   1.133   2.304   5.948 -0.1885 -0.7288  0.3968
 3824TIP3    H232964   1.039   2.279   5.832 -0.1641  0.5845  0.0837
 3825TIP3   OH232965   5.533   3.565   1.141  0.3030 -0.1735 -0.4311
 3825TIP3    H132966   5.456   3.509   1.153  0.6182 -0.1526  2.3143
 3825TIP3    H232967   5.602   3.523   1.192  1.6589  0.7266 -1.4319
 3826TIP3   OH232968   2.385   6.228  15.986  0.1549  0.1927  0.3210
 3826TIP3    H132969   2.330   6.278  15.925 -1.3667 -0.3811  1.1840
 3826TIP3    H232970   2.439   6.295  16.028 -1.1389  1.0339  0.7262
 3827TIP3   OH232971   5.677   3.339   5.419  0.2209  0.1736 -0.4838
 3827TIP3    H132972   5.766   3.373   5.408 -0.3545  1.6959 -0.7271
 3827TIP3    H232973   5.653   3.306   5.332  0.0381  1.1202 -0.8096
 3828TIP3   OH232974   5.351   1.847   5.055  0.1155  0.6077  0.0079
 3828TIP3    H132975   5.425   1.907   5.052  0.4184  0.3424  1.3351
 3828TIP3    H232976   5.287   1.891   5.111  0.0273  0.0553  0.3498
 3829TIP3   OH232977   5.111   3.394   1.058 -0.1089 -0.0950 -0.2371
 3829TIP3    H132978   5.090   3.302   1.042 -1.2889  0.3810 -1.6855
 3829TIP3    H232979   5.202   3.403   1.031 -0.2538 -0.6615 -0.9493
 3830TIP3   OH232980   3.984   4.828   6.615 -0.2291 -0.4453  0.0500
 3830TIP3    H132981   3.912   4.767   6.633 -0.1881 -0.4289  0.2667
 3830TIP3    H232982   4.062   4.784   6.649 -0.2866 -0.0036  0.7718
 3831TIP3   OH232983   5.724   2.972  14.238  0.5761 -0.2601  0.0889
 3831TIP3    H132984   5.690   3.008  14.320  2.7223  0.2695  0.8089
 3831TIP3    H232985   5.659   2.996  14.172  0.8762  3.2737  0.8949
 3832TIP3   OH232986   6.593   2.230  13.331 -0.0522 -0.1442 -0.6771
 3832TIP3    H132987   6.503   2.261  13.341  0.4929  1.1807  0.4897
 3832TIP3    H232988   6.625   2.219  13.421  1.4136  0.8617 -1.0367
 3833TIP3   OH232989   4.264   4.609  11.731 -0.3966 -0.0612 -0.6076
 3833TIP3    H132990   4.230   4.525  11.762  0.3830  0.0164  0.5164
 3833TIP3    H232991   4.299   4.590  11.644  0.3510 -1.0606 -0.1099
 3834TIP3   OH232992   2.989   4.543   0.640  0.4259  0.0101 -0.6137
 3834TIP3    H132993   2.986   4.633   0.671  0.3391  0.5151 -1.9946
 3834TIP3    H232994   2.905   4.529   0.597 -0.5696 -1.5666  1.6359
 3835TIP3   OH232995   5.907   3.474   0.140 -0.2682  0.6993  0.0651
 3835TIP3    H132996   5.860   3.480   0.057 -1.7081  0.7226  0.8596
 3835TIP3    H232997   5.902   3.562   0.177 -1.1498  0.2840  0.9646
 3836TIP3   OH232998   5.484   0.143   2.234 -0.3791  1.1505 -0.0375
 3836TIP3    H132999   5.578   0.154   2.221  0.0032 -0.2570  1.2331
 3836TIP3    H233000   5.467   0.053   2.208 -0.8149  0.4601  2.4154
 3837TIP3   OH233001   4.621   4.652  10.711  0.0709 -1.2027  0.2619
 3837TIP3    H133002   4.589   4.671  10.799  0.1515 -1.8954  0.4490
 3837TIP3    H233003   4.563   4.582  10.679  0.0431 -0.9559 -0.2338
 3838TIP3   OH233004   2.727   3.686   1.072 -0.4176 -0.4283 -0.1885
 3838TIP3    H133005   2.803   3.653   1.024  0.1455 -0.3984  0.6439
 3838TIP3    H233006   2.673   3.729   1.006  0.1939 -0.6201 -0.8288
 3839TIP3   OH233007   1.613   2.689  13.545  0.5931 -0.5057 -0.4368
 3839TIP3    H133008   1.523   2.715  13.525  0.4641  0.2255  1.0270
 3839TIP3    H233009   1.616   2.596  13.523 -0.9070 -0.8586  0.7116
 3840TIP3   OH233010   6.244   1.722  16.518 -0.0849 -0.4957 -0.3863
 3840TIP3    H133011   6.305   1.652  16.496 -0.6188 -0.6825 -1.3527
 3840TIP3    H233012   6.300   1.797  16.540  0.4849 -1.0105 -0.0680
 3841TIP3   OH233013   2.146   1.030  14.035  0.1719 -0.2527  0.0954
 3841TIP3    H133014   2.108   0.953  13.994  0.4533  0.4032 -1.4734
 3841TIP3    H233015   2.230   1.042  13.991  0.1602  0.9095  0.3561
 3842TIP3   OH233016   0.098   3.418   5.724  0.5175 -0.3236 -0.4968
 3842TIP3    H133017   0.166   3.429   5.791 -0.2629  0.5449  0.1756
 3842TIP3    H233018   0.142   3.372   5.652  1.8455  0.3023 -0.1126
 3843TIP3   OH233019   0.040   3.969   4.309  0.5442  0.2539  0.0718
 3843TIP3    H133020  -0.039   3.932   4.347  0.5013 -0.0337 -0.2935
 3843TIP3    H233021   0.011   4.051   4.269  0.5155  0.3612  0.3104
 3844TIP3   OH233022   3.680   3.119   6.065 -0.4819 -0.3506 -0.0303
 3844TIP3    H133023   3.618   3.136   5.993 -0.8106  0.9199  0.5351
 3844TIP3    H233024   3.626   3.117   6.143  0.3416  2.8295  0.7575
 3845TIP3   OH233025   0.778   3.862  11.612 -0.5268 -0.2291 -0.2326
 3845TIP3    H133026   0.858   3.904  11.644  0.2526 -0.6740 -1.5353
 3845TIP3    H233027   0.722   3.935  11.586 -1.4509  0.1911  2.5719
 3846TIP3   OH233028   2.061   1.970  14.003  0.2745  0.4457  0.0778
 3846TIP3    H133029   2.088   2.027  13.931  1.9784  0.8820  1.0053
 3846TIP3    H233030   2.111   2.001  14.078 -0.8615 -0.5125  1.2791
 3847TIP3   OH233031   2.344   2.076   5.725  0.3458 -0.2340 -0.3048
 3847TIP3    H133032   2.384   2.063   5.811  1.4283 -0.0745 -0.7681
 3847TIP3    H233033   2.255   2.040   5.735  0.1200  0.6194  1.1353
 3848TIP3   OH233034   4.522   1.226   0.899  0.0606  0.6348  0.0639
 3848TIP3    H133035   4.501   1.288   0.830 -0.9148  0.7254  0.4286
 3848TIP3    H233036   4.618   1.220   0.898  0.1497  1.9364 -0.1483
 3849TIP3   OH233037   1.798   5.554  13.495 -0.2543  0.5841  0.9294
 3849TIP3    H133038   1.773   5.557  13.587 -0.4252  1.9705  0.8502
 3849TIP3    H233039   1.893   5.565  13.495 -0.2258  0.3515  0.9441
 3850TIP3   OH233040   4.656   0.937  16.788 -0.7929 -0.0347  0.2218
 3850TIP3    H133041   4.667   1.014  16.732 -3.9721  0.0531 -0.5037
 3850TIP3    H233042   4.562   0.917  16.783 -1.1890 -0.5256  4.9014
 3851TIP3   OH233043   3.958   3.680  11.272 -0.3586 -0.5192  0.0675
 3851TIP3    H133044   3.876   3.712  11.236 -0.3773  0.2069  0.7384
 3851TIP3    H233045   3.956   3.585  11.256 -1.2631 -0.4884 -0.0304
 3852TIP3   OH233046   0.017   1.376   1.144 -0.0883  0.7350 -0.4759
 3852TIP3    H133047   0.052   1.464   1.128 -1.7128  1.9207  1.8994
 3852TIP3    H233048   0.045   1.355   1.233 -3.1535  0.6682  0.5692
 3853TIP3   OH233049   4.367   6.122  13.566  0.2428  0.5524  0.1745
 3853TIP3    H133050   4.339   6.089  13.651  0.3351  0.3206  0.1154
 3853TIP3    H233051   4.458   6.149  13.579  1.4423 -2.6312 -0.6672
 3854TIP3   OH233052   1.131   2.335   6.634  0.0814 -0.0847  0.5000
 3854TIP3    H133053   1.049   2.341   6.585 -0.9420 -0.9389  2.0054
 3854TIP3    H233054   1.169   2.251   6.607  0.6481  0.4473 -0.4212
 3855TIP3   OH233055   6.571   0.913   1.965 -0.2973 -0.3538  0.4767
 3855TIP3    H133056   6.582   0.895   2.058  1.7579 -1.4833  0.0815
 3855TIP3    H233057   6.502   0.853   1.937  0.8799 -1.9475  0.8078
 3856TIP3   OH233058   0.945   4.049  12.110 -0.7682 -0.2334 -0.0179
 3856TIP3    H133059   0.973   4.089  12.193 -1.0768  0.2214 -0.1320
 3856TIP3    H233060   0.972   3.957  12.118 -2.7960 -0.7638  1.5528
 3857TIP3   OH233061   3.968   1.829   2.910  0.0725 -0.6574 -0.5101
 3857TIP3    H133062   4.000   1.785   2.988 -0.8096 -1.0241 -0.3486
 3857TIP3    H233063   3.881   1.793   2.895  0.3687 -0.8733 -1.8895
 3858TIP3   OH233064   0.187   0.161   6.013  0.2794 -0.0794  0.2317
 3858TIP3    H133065   0.185   0.069   5.987 -2.0092  0.3586 -1.5232
 3858TIP3    H233066   0.246   0.203   5.950  1.8679 -0.3765  1.4476
 3859TIP3   OH233067   2.894   4.037   4.486 -0.1247 -0.0178  0.3000
 3859TIP3    H133068   2.923   3.959   4.533  0.1130  0.1735  0.4732
 3859TIP3    H233069   2.799   4.039   4.497 -0.1307 -0.2901  0.2846
 3860TIP3   OH233070   5.020   0.818   4.462 -0.1928 -0.1910  0.2829
 3860TIP3    H133071   5.078   0.811   4.539  1.4860 -0.1468 -0.9129
 3860TIP3    H233072   4.978   0.733   4.456  1.3207 -0.9615  0.0395
 3861TIP3   OH233073   5.574   6.315  13.413 -0.2944  0.2893 -0.0874
 3861TIP3    H133074   5.533   6.401  13.423 -1.8694 -0.3508 -0.7463
 3861TIP3    H233075   5.615   6.318  13.327  0.0446  0.5197  0.0773
 3862TIP3   OH233076   1.229   0.626   3.367  0.2525 -0.1544 -0.5026
 3862TIP3    H133077   1.298   0.657   3.308  0.3514  0.9919  0.1936
 3862TIP3    H233078   1.267   0.630   3.454 -0.7003  0.5630 -0.0956
 3863TIP3   OH233079   3.918   6.609  15.716  0.1791  0.1098 -0.4864
 3863TIP3    H133080   3.829   6.617  15.681  0.1501  0.4184 -0.3465
 3863TIP3    H233081   3.968   6.569  15.645  0.4627  2.0951 -1.4751
 3864TIP3   OH233082   2.324   3.060   0.327 -0.2281 -0.1421  0.4346
 3864TIP3    H133083   2.385   3.065   0.400  0.9102 -2.0263 -0.3184
 3864TIP3    H233084   2.267   3.136   0.339  1.7198  1.2377  1.6341
 3865TIP3   OH233085   4.651   1.186   1.805  0.5487  1.1856 -0.3261
 3865TIP3    H133086   4.653   1.090   1.807 -0.6441  1.1070 -1.5891
 3865TIP3    H233087   4.742   1.212   1.820  0.6968 -0.0999  1.1675
 3866TIP3   OH233088   6.771   2.150  15.356  0.0258 -0.9197 -0.1663
 3866TIP3    H133089   6.836   2.202  15.310  1.0978 -3.0507 -1.1686
 3866TIP3    H233090   6.692   2.205  15.355  1.3035  1.0237 -0.3818
 3867TIP3   OH233091   6.637   4.039   4.645  0.2173  0.1793 -0.2256
 3867TIP3    H133092   6.554   4.019   4.689 -0.3374 -0.1778 -1.3860
 3867TIP3    H233093   6.690   4.083   4.712 -1.0157  0.6784  0.4531
 3868TIP3   OH233094   5.005   0.535  13.306 -0.3970 -0.0362  0.4779
 3868TIP3    H133095   5.093   0.544  13.343 -0.1126  0.0926 -0.2268
 3868TIP3    H233096   5.007   0.452  13.259 -0.8932 -0.4087  1.1008
 3869TIP3   OH233097   1.265   4.181   1.899 -0.3985 -0.4428  0.2031
 3869TIP3    H133098   1.271   4.242   1.825 -2.0597 -1.1560 -0.5749
 3869TIP3    H233099   1.351   4.185   1.941  1.6957 -2.0903 -3.4252
 3870TIP3   OH233100   2.135   5.129   2.530  0.4501 -0.5017 -0.2065
 3870TIP3    H133101   2.188   5.055   2.560 -0.0752 -1.0798 -0.6766
 3870TIP3    H233102   2.194   5.205   2.535  1.0907 -1.0079 -0.0183
 3871TIP3   OH233103   2.839   6.012   2.443  0.3154 -0.1035  0.1687
 3871TIP3    H133104   2.864   5.939   2.499 -1.5616 -1.0617 -0.1393
 3871TIP3    H233105   2.844   5.977   2.354  0.8023  0.6105 -0.0958
 3872TIP3   OH233106   3.755   6.394   2.304  0.0279  0.4098  0.4345
 3872TIP3    H133107   3.827   6.456   2.316  1.6260 -1.0233 -1.1208
 3872TIP3    H233108   3.690   6.442   2.253  0.9637  0.9983 -0.2229
 3873TIP3   OH233109   2.684   1.832  16.114 -0.4987  0.0494  0.5071
 3873TIP3    H133110   2.738   1.865  16.043  0.1453 -2.2194 -0.1253
 3873TIP3    H233111   2.744   1.823  16.188 -0.9184  1.2640  1.0353
 3874TIP3   OH233112   2.472   5.308  12.568  0.4211  0.3075 -0.3729
 3874TIP3    H133113   2.468   5.215  12.547  1.7388 -0.5014  2.4322
 3874TIP3    H233114   2.396   5.323  12.626  0.0969  1.0549 -0.9651
 3875TIP3   OH233115   2.961   3.076  16.871  0.4256 -0.3906  0.1832
 3875TIP3    H133116   2.997   3.003  16.921 -0.9830 -0.6820  0.8178
 3875TIP3    H233117   2.952   3.042  16.782 -0.8949 -1.2573  0.6257
 3876TIP3   OH233118   4.487   5.174   1.963  0.4542  0.3347 -0.0332
 3876TIP3    H133119   4.479   5.132   2.049  1.6470 -4.0696 -1.8058
 3876TIP3    H233120   4.572   5.218   1.967 -0.1265  1.4248  1.4158
 3877TIP3   OH233121   3.281   0.587   2.248 -0.1533 -0.2994 -0.4518
 3877TIP3    H133122   3.268   0.681   2.264  1.2124 -0.0960 -0.3986
 3877TIP3    H233123   3.375   0.573   2.261 -0.4492 -1.8239  0.2527
 3878TIP3   OH233124   6.749   1.041   2.897 -0.2819  0.6925 -0.2613
 3878TIP3    H133125   6.657   1.061   2.879 -0.0726  0.9746 -1.0544
 3878TIP3    H233126   6.749   1.007   2.987 -1.2888 -0.1986 -0.5782
 3879TIP3   OH233127   3.317   2.554   4.587  0.2254  0.1184  0.7584
 3879TIP3    H133128   3.312   2.637   4.635  1.7246  0.8766 -0.3001
 3879TIP3    H233129   3.295   2.579   4.496  1.0206 -0.5773  0.3687
 3880TIP3   OH233130   6.673   0.297  14.704 -0.0510 -0.4837 -0.1770
 3880TIP3    H133131   6.671   0.211  14.662  0.0189 -0.4843 -0.1782
 3880TIP3    H233132   6.612   0.350  14.652  0.1981 -0.4232 -0.4116
 3881TIP3   OH233133   5.929   3.615   1.372 -0.3015 -0.1017 -0.4837
 3881TIP3    H133134   6.010   3.620   1.322  1.5095 -0.1594  2.2503
 3881TIP3    H233135   5.874   3.684   1.335  1.1441  0.2463 -2.1287
 3882TIP3   OH233136   3.882   5.375  11.215 -0.3405 -0.3353  0.3190
 3882TIP3    H133137   3.847   5.425  11.141 -1.2771 -0.1715  0.8525
 3882TIP3    H233138   3.875   5.284  11.187  0.1344 -0.2389 -0.1339
 3883TIP3   OH233139   1.592   2.672   3.592  0.0960  0.4186  0.0169
 3883TIP3    H133140   1.567   2.663   3.684  2.6080 -0.7440  0.6675
 3883TIP3    H233141   1.544   2.603   3.547 -0.1878  0.1916  0.6627
 3884TIP3   OH233142   0.292   3.039   0.565  0.2121  0.3747 -0.7001
 3884TIP3    H133143   0.337   3.101   0.508  0.5281  0.0266 -0.8347
 3884TIP3    H233144   0.225   2.999   0.510 -0.1678  0.7842 -0.5409
 3885TIP3   OH233145   6.155   4.364   1.121  0.2394  0.5153 -0.3225
 3885TIP3    H133146   6.206   4.373   1.202 -2.3531 -1.4793  1.7285
 3885TIP3    H233147   6.183   4.280   1.084  0.0949  0.5160 -0.4366
 3886TIP3   OH233148   3.624   5.806  12.721  0.3693 -0.3972  0.8682
 3886TIP3    H133149   3.552   5.861  12.755  1.0719  1.1252 -0.0058
 3886TIP3    H233150   3.580   5.731  12.682 -0.8425  0.8064 -0.2191
 3887TIP3   OH233151   3.491   5.526  15.204 -0.2536 -0.8912  0.2891
 3887TIP3    H133152   3.454   5.611  15.227  1.5811  0.0823 -0.2200
 3887TIP3    H233153   3.549   5.544  15.130  0.1083 -2.6054  0.1121
 3888TIP3   OH233154   2.761   6.264   0.795 -0.0888 -0.0226 -0.0901
 3888TIP3    H133155   2.743   6.241   0.704  1.3252 -0.5809 -0.2500
 3888TIP3    H233156   2.761   6.360   0.795  0.3895 -0.0086 -0.8029
 3889TIP3   OH233157   0.865   1.606  13.265 -0.3941 -0.2087  0.1341
 3889TIP3    H133158   0.776   1.571  13.257 -0.6020  0.3548 -0.0508
 3889TIP3    H233159   0.912   1.567  13.192 -0.9275  0.7795 -0.7686
 3890TIP3   OH233160   0.918   1.624   1.725 -0.0921  0.1083 -0.2356
 3890TIP3    H133161   0.858   1.644   1.653  0.0970 -0.2923 -0.5096
 3890TIP3    H233162   0.867   1.639   1.804 -0.7989 -0.9362 -0.4705
 3891TIP3   OH233163   3.850   3.874   2.636 -0.1850  0.1381 -0.1165
 3891TIP3    H133164   3.911   3.882   2.709 -2.6935  1.6373  1.9690
 3891TIP3    H233165   3.799   3.955   2.637 -0.4540  0.1538 -3.4908
 3892TIP3   OH233166   1.580   4.665  14.803 -0.5547 -0.0818 -0.3732
 3892TIP3    H133167   1.489   4.685  14.781 -1.0735 -0.6188  1.1335
 3892TIP3    H233168   1.631   4.725  14.749 -1.8945  2.5297  1.0594
 3893TIP3   OH233169   0.347   3.927  14.700  0.1791 -0.1411 -0.1071
 3893TIP3    H133170   0.422   3.983  14.719  1.5100 -0.9263 -2.5632
 3893TIP3    H233171   0.377   3.838  14.721 -0.2750 -0.3961 -0.5083
 3894TIP3   OH233172   6.327   1.372  10.668  0.0468  0.0957  0.1298
 3894TIP3    H133173   6.275   1.340  10.742  1.5462  0.6265  1.4773
 3894TIP3    H233174   6.287   1.331  10.591 -1.4964 -0.5739  1.2300
 3895TIP3   OH233175   3.808   1.289  11.597  0.1096  0.1556 -0.2553
 3895TIP3    H133176   3.781   1.322  11.683  2.0607  2.1656 -0.3296
 3895TIP3    H233177   3.728   1.292  11.544 -0.9504 -0.3927  1.2424
 3896TIP3   OH233178   6.325   5.144   1.674 -0.3067 -0.4988 -0.1269
 3896TIP3    H133179   6.390   5.180   1.734 -0.0391  1.1826 -1.3387
 3896TIP3    H233180   6.276   5.220   1.644 -0.0801 -1.1784 -2.4225
 3897TIP3   OH233181   1.926   6.094  11.617  0.0058  0.2503  0.0293
 3897TIP3    H133182   1.992   6.024  11.618  0.4029  0.6031  1.3813
 3897TIP3    H233183   1.884   6.088  11.703 -1.4256  0.3282 -0.6459
 3898TIP3   OH233184   6.076   1.523  16.700  0.3108  0.2539  0.3525
 3898TIP3    H133185   6.093   1.577  16.777  2.8891 -0.3274  0.2628
 3898TIP3    H233186   6.055   1.586  16.631  0.4843  0.9545  0.9239
 3899TIP3   OH233187   2.915   5.696  10.587 -0.5029  0.4045 -0.4474
 3899TIP3    H133188   2.905   5.601  10.597 -0.0795  0.4462  0.4634
 3899TIP3    H233189   2.924   5.709  10.493  0.5991 -0.5894 -0.5037
 3900TIP3   OH233190   1.089   6.175  13.060  0.2219 -0.1416  0.4989
 3900TIP3    H133191   1.167   6.150  13.110  0.5932 -1.5370 -0.7149
 3900TIP3    H233192   1.018   6.124  13.098 -0.4844  2.1509  2.5386
 3901TIP3   OH233193   6.317   4.921   3.716 -0.0413 -0.0579 -0.0170
 3901TIP3    H133194   6.296   4.846   3.772  1.0714 -1.3059 -1.1692
 3901TIP3    H233195   6.238   4.935   3.664 -0.3350 -0.2875  0.3631
 3902TIP3   OH233196   2.019   3.222   2.098  0.2627  0.0115  0.1467
 3902TIP3    H133197   2.075   3.287   2.055  0.2405  0.9729  1.5089
 3902TIP3    H233198   1.930   3.250   2.079  0.2517  0.5305  0.9125
 3903TIP3   OH233199   1.189   1.759  14.454 -0.0830 -0.2078 -0.3181
 3903TIP3    H133200   1.276   1.718  14.456  0.7184  1.4593  0.7766
 3903TIP3    H233201   1.133   1.693  14.413  1.3112 -2.0310  0.5817
 3904TIP3   OH233202   3.131   3.772   3.094 -0.0408  0.2237  0.1682
 3904TIP3    H133203   3.140   3.731   3.180 -0.4996  0.7218  0.4594
 3904TIP3    H233204   3.037   3.791   3.086 -0.4909 -2.1654 -1.5402
 3905TIP3   OH233205   4.582   4.014   4.011  0.2897 -0.3953  0.3000
 3905TIP3    H133206   4.505   3.971   4.047 -0.3654 -0.7565 -1.4532
 3905TIP3    H233207   4.636   4.035   4.088 -1.4961 -0.1983  1.5515
 3906TIP3   OH233208   3.157   6.034   5.506 -0.4570 -0.1666 -0.3796
 3906TIP3    H133209   3.142   5.943   5.479  0.6137  0.2056 -2.4539
 3906TIP3    H233210   3.238   6.058   5.462  0.7027  1.0152  2.2310
 3907TIP3   OH233211   4.185   2.509   5.102 -0.1301 -0.1698  0.1999
 3907TIP3    H133212   4.251   2.504   5.171  0.1324 -1.8993 -0.1369
 3907TIP3    H233213   4.107   2.542   5.146  0.6056  0.7822  0.8450
 3908TIP3   OH233214   0.436   1.944  15.943 -0.0982  0.1762 -0.3073
 3908TIP3    H133215   0.470   1.986  16.022 -0.8356  1.5917 -0.7102
 3908TIP3    H233216   0.500   1.876  15.923  0.3922  0.1566  1.1780
 3909TIP3   OH233217   1.152   4.406  11.413  0.6388  0.1974  0.6703
 3909TIP3    H133218   1.108   4.430  11.495  0.5210 -0.9972  0.9694
 3909TIP3    H233219   1.203   4.484  11.390 -0.4619  1.0660  1.0984
 3910TIP3   OH233220   0.993   5.538   2.123 -0.1564  0.2640  0.0076
 3910TIP3    H133221   0.967   5.447   2.112 -0.3455  0.4141 -0.8415
 3910TIP3    H233222   0.915   5.588   2.099  0.5467  0.6892 -1.5101
 3911TIP3   OH233223   1.159   1.929  16.212  0.2700 -0.1262  0.1094
 3911TIP3    H133224   1.081   1.930  16.156 -1.3008  1.3632  2.1957
 3911TIP3    H233225   1.221   1.987  16.167 -0.1195 -0.6326 -1.1338
 3912TIP3   OH233226   3.058   4.143  12.695  0.0009 -0.2280 -0.1842
 3912TIP3    H133227   3.144   4.180  12.677  0.7022 -0.9365  1.4840
 3912TIP3    H233228   3.059   4.123  12.788 -1.7718 -0.7959 -0.2385
 3913TIP3   OH233229   4.798   5.063   3.597  0.2745 -0.6789 -0.0578
 3913TIP3    H133230   4.854   5.013   3.538 -0.1399 -0.6431 -0.4943
 3913TIP3    H233231   4.848   5.141   3.618 -0.3986  0.3964 -2.1296
 3914TIP3   OH233232   0.419   0.106   1.172  0.0954 -0.0758  0.0935
 3914TIP3    H133233   0.381   0.177   1.121  2.1847  0.8598 -0.2885
 3914TIP3    H233234   0.427   0.142   1.261 -1.1664 -0.7719  0.5031
 3915TIP3   OH233235   4.214   4.503   1.602 -0.2374  0.2024  0.3553
 3915TIP3    H133236   4.173   4.485   1.687 -3.1023  0.3781 -0.8773
 3915TIP3    H233237   4.141   4.526   1.545  1.6672  0.7009 -2.0354
 3916TIP3   OH233238   0.710   0.717  14.314 -0.3476  0.4819 -1.1620
 3916TIP3    H133239   0.659   0.756  14.385 -0.3313 -0.1630 -0.7826
 3916TIP3    H233240   0.647   0.708  14.242 -0.9335 -0.7738 -0.5325
 3917TIP3   OH233241   6.729   5.970   5.164  0.7510  0.0199  0.0732
 3917TIP3    H133242   6.759   6.059   5.144  2.7439  0.1336  2.9319
 3917TIP3    H233243   6.774   5.915   5.101  0.4707  0.9132 -0.9346
 3918TIP3   OH233244   6.422   3.596   2.162  0.0068  0.7927 -0.5346
 3918TIP3    H133245   6.505   3.607   2.209  0.1992 -0.3769 -0.5703
 3918TIP3    H233246   6.447   3.604   2.070  0.6712 -2.3872 -0.7589
 3919TIP3   OH233247   5.741   2.928   3.741 -0.0322 -0.1804 -0.6622
 3919TIP3    H133248   5.742   2.882   3.825 -0.2622 -1.3876 -1.3113
 3919TIP3    H233249   5.769   3.018   3.763 -0.6934 -0.3073  0.7911
 3920TIP3   OH233250   1.086   3.961  15.691 -0.0695 -0.2671  0.0128
 3920TIP3    H133251   1.106   4.051  15.717  1.3572 -0.6781  0.4554
 3920TIP3    H233252   0.999   3.944  15.727 -1.6176  1.7914 -2.3747
 3921TIP3   OH233253   0.155   2.121  12.963  0.5098 -0.1496 -0.2425
 3921TIP3    H133254   0.187   2.137  13.052  1.8667  0.4997 -0.8311
 3921TIP3    H233255   0.222   2.157  12.906 -0.8025  0.3254 -1.5464
 3922TIP3   OH233256   1.277   2.340  10.839  0.7800 -0.2186  0.4600
 3922TIP3    H133257   1.214   2.271  10.818 -0.2671  0.8039  0.2013
 3922TIP3    H233258   1.332   2.347  10.761  0.0299  0.1690 -0.0387
 3923TIP3   OH233259   1.669   4.552   5.047  0.4787  0.3254 -0.3639
 3923TIP3    H133260   1.710   4.529   5.131 -0.6030  0.9204  0.3482
 3923TIP3    H233261   1.655   4.646   5.053  0.4177  0.3778 -1.2469
 3924TIP3   OH233262   2.210   4.651  16.879  0.1649  0.2123 -0.4489
 3924TIP3    H133263   2.193   4.588  16.809 -1.1824 -0.9345  0.8363
 3924TIP3    H233264   2.304   4.644  16.896  0.0666 -1.3465 -0.4438
 3925TIP3   OH233265   5.916   1.006   0.894  0.4582 -0.4190 -0.3250
 3925TIP3    H133266   5.846   0.942   0.882 -0.9569  1.1121 -0.6342
 3925TIP3    H233267   5.921   1.053   0.811  1.4981 -0.1280 -0.1239
 3926TIP3   OH233268   0.379   3.266   0.076 -0.0180  0.7218  0.0758
 3926TIP3    H133269   0.362   3.342   0.132 -0.1053 -0.3248  1.5441
 3926TIP3    H233270   0.325   3.196   0.114 -0.1731 -0.0127 -1.4184
 3927TIP3   OH233271   1.056   0.456   3.950  0.3520  0.0362 -0.2975
 3927TIP3    H133272   1.068   0.542   3.990 -0.5502 -0.9903  2.4097
 3927TIP3    H233273   1.111   0.457   3.872  0.1795  3.1191 -0.4723
 3928TIP3   OH233274   2.629   3.605  14.126  0.1877 -0.2078  0.5600
 3928TIP3    H133275   2.564   3.535  14.126 -0.5377  0.3847  2.9654
 3928TIP3    H233276   2.582   3.681  14.092  0.1794 -0.2144  0.5567
 3929TIP3   OH233277   5.417   6.044   3.763 -0.1019 -0.3965  0.2523
 3929TIP3    H133278   5.503   6.078   3.789 -0.6188  1.8010 -0.6520
 3929TIP3    H233279   5.357   6.115   3.783 -1.7864 -1.9692  1.0559
 3930TIP3   OH233280   0.883   6.584   0.578  0.2001 -0.2123  0.1206
 3930TIP3    H133281   0.849   6.673   0.585 -0.0396 -0.3501  0.7723
 3930TIP3    H233282   0.864   6.544   0.663  2.0441 -0.2831  0.5269
 3931TIP3   OH233283   0.307   4.837   6.053  0.0931  0.0695  0.0625
 3931TIP3    H133284   0.293   4.757   6.104 -2.4929 -0.3192 -1.1288
 3931TIP3    H233285   0.365   4.809   5.982 -0.4884 -0.6818 -0.1332
 3932TIP3   OH233286   3.977   2.789  12.242 -0.6537  0.0585 -0.3894
 3932TIP3    H133287   4.057   2.808  12.193 -0.2355 -2.4769 -0.7962
 3932TIP3    H233288   3.936   2.716  12.195 -0.2384 -2.5200  2.9500
 3933TIP3   OH233289   5.469   6.622   0.177  0.4980  0.3724  0.4536
 3933TIP3    H133290   5.482   6.561   0.104  0.0556 -0.5323  1.1065
 3933TIP3    H233291   5.518   6.583   0.250 -1.1198 -0.0774  1.3355
 3934TIP3   OH233292   3.346   5.036   0.062  0.4425  0.1351 -0.1847
 3934TIP3    H133293   3.325   5.126   0.037 -0.4194 -0.0251 -0.0841
 3934TIP3    H233294   3.272   4.984   0.030  0.3811 -0.3798  0.7322
 3935TIP3   OH233295   0.724   3.145  12.580  0.0172 -0.1829 -0.5062
 3935TIP3    H133296   0.709   3.170  12.488 -0.4121  1.6842  0.0234
 3935TIP3    H233297   0.809   3.184  12.601 -0.9556  1.5188  0.5340
 3936TIP3   OH233298   3.898   1.126   0.247 -0.0441 -0.9404 -0.2629
 3936TIP3    H133299   3.937   1.145   0.332  0.5502 -1.2222 -0.4694
 3936TIP3    H233300   3.804   1.140   0.260  0.2711  1.4711 -0.2271
 3937TIP3   OH233301   6.655   3.825  13.864 -0.2499  0.2364  0.1877
 3937TIP3    H133302   6.708   3.902  13.845  0.9999 -0.6246  0.0738
 3937TIP3    H233303   6.635   3.787  13.779  0.0782 -0.1720  0.2888
 3938TIP3   OH233304   1.670   4.900  15.841  0.0095 -0.1805  0.1574
 3938TIP3    H133305   1.760   4.904  15.872 -0.4110 -1.7328  1.7467
 3938TIP3    H233306   1.676   4.857  15.756  0.6805 -1.5098  0.8440
 3939TIP3   OH233307   1.970   2.252  15.581  0.4723 -0.0612  0.1293
 3939TIP3    H133308   1.914   2.220  15.652  0.1901  0.7311  0.2742
 3939TIP3    H233309   2.002   2.336  15.612  3.3612 -1.3354  0.8920
 3940TIP3   OH233310   5.809   1.768   3.471 -0.3887  0.6428 -0.4507
 3940TIP3    H133311   5.838   1.859   3.457  1.9714  0.3716  1.8688
 3940TIP3    H233312   5.873   1.716   3.423 -2.3361  0.1236 -2.6505
 3941TIP3   OH233313   5.568   5.178  15.984 -0.0441  0.1377  0.7273
 3941TIP3    H133314   5.625   5.224  15.921 -0.8031  0.3235  0.1527
 3941TIP3    H233315   5.560   5.239  16.058 -0.2259  0.5139  0.4068
 3942TIP3   OH233316   1.133   5.906   1.661 -0.1646 -0.0962  0.1549
 3942TIP3    H133317   1.203   5.922   1.724 -0.5551 -0.4539  0.6916
 3942TIP3    H233318   1.053   5.933   1.707 -0.5738 -1.3721  0.2251
 3943TIP3   OH233319   1.688   5.769  12.068  0.1451 -0.2800 -0.8180
 3943TIP3    H133320   1.673   5.839  12.132  0.9342  0.3469 -1.3074
 3943TIP3    H233321   1.609   5.768  12.015  0.1665  0.3170 -0.8707
 3944TIP3   OH233322   5.000   4.628  16.426 -0.1404  0.1053  0.2458
 3944TIP3    H133323   5.013   4.534  16.428  1.2246  0.2613 -0.1699
 3944TIP3    H233324   4.943   4.643  16.351  1.0278 -0.2647 -0.7474
 3945TIP3   OH233325   5.853   2.152   6.585 -0.0324 -0.1493  0.1363
 3945TIP3    H133326   5.801   2.201   6.649 -0.8944  1.2059 -1.5389
 3945TIP3    H233327   5.933   2.204   6.575 -0.1405 -0.0607 -0.2837
 3946TIP3   OH233328   4.670   0.072  15.790  0.0032 -0.4153 -0.6927
 3946TIP3    H133329   4.684   0.130  15.866 -2.0085 -0.0204 -0.5634
 3946TIP3    H233330   4.691   0.127  15.714  0.7521 -0.3929 -0.4766
 3947TIP3   OH233331   2.301   3.123   3.764 -0.1388 -0.0144 -0.3674
 3947TIP3    H133332   2.264   3.165   3.841 -1.2584 -1.7231  0.0764
 3947TIP3    H233333   2.395   3.143   3.768 -0.4354  1.3020  0.5011
 3948TIP3   OH233334   1.944   1.986  15.109  0.0180  0.2620 -0.7513
 3948TIP3    H133335   1.866   2.036  15.084 -0.4666 -0.3402 -0.4601
 3948TIP3    H233336   1.972   1.943  15.028 -1.7148 -1.9182 -0.2921
 3949TIP3   OH233337   3.784   0.877   0.333 -0.4815 -0.4206 -0.1188
 3949TIP3    H133338   3.851   0.935   0.295  0.1536 -0.5829  0.7200
 3949TIP3    H233339   3.815   0.859   0.422 -2.5829  1.0100  0.9888
 3950TIP3   OH233340   1.072   0.402  17.148  0.5541  0.2649  0.6844
 3950TIP3    H133341   1.004   0.336  17.136  1.4873 -0.6693  0.4345
 3950TIP3    H233342   1.047   0.473  17.089  0.1697 -0.3657  0.0729
 3951TIP3   OH233343   0.445   2.247  13.109 -0.2138 -0.2251  0.2867
 3951TIP3    H133344   0.531   2.236  13.069 -1.4022 -1.8652 -2.0468
 3951TIP3    H233345   0.413   2.330  13.074 -0.1796 -0.3442 -0.0258
 3952TIP3   OH233346   6.716   4.548   0.625 -0.1827 -0.4837 -0.4990
 3952TIP3    H133347   6.756   4.581   0.544 -2.1966 -1.2559 -1.8771
 3952TIP3    H233348   6.786   4.556   0.691  0.7215  2.6231 -1.6495
 3953TIP3   OH233349   0.826   6.489   1.426  0.5086  0.2577  0.1355
 3953TIP3    H133350   0.823   6.428   1.500  0.9440  1.0220  0.7976
 3953TIP3    H233351   0.738   6.527   1.424  0.2486 -0.3567 -0.2531
 3954TIP3   OH233352   6.431   0.924   5.981  0.2150  0.0210 -0.5306
 3954TIP3    H133353   6.486   0.984   5.931  1.3748 -0.7053 -0.1668
 3954TIP3    H233354   6.386   0.980   6.045  1.3842  0.5113 -0.0993
 3955TIP3   OH233355   3.758   1.116  13.575  0.0174 -0.5786 -0.2504
 3955TIP3    H133356   3.751   1.030  13.614 -1.7035 -1.0920 -1.5588
 3955TIP3    H233357   3.667   1.145  13.563  0.5469  1.0313 -0.6321
 3956TIP3   OH233358   2.082   6.256  16.731 -0.0455 -0.2770 -0.5417
 3956TIP3    H133359   1.991   6.287  16.733  0.5242  1.4982 -0.0333
 3956TIP3    H233360   2.098   6.235  16.639 -0.5361  0.8212 -0.8964
 3957TIP3   OH233361   6.030   3.920   1.529  0.5265 -0.9591  0.3387
 3957TIP3    H133362   6.025   3.976   1.606 -1.0143 -1.0784  0.3660
 3957TIP3    H233363   5.988   3.838   1.557  0.2781 -1.1293 -0.5068
 3958TIP3   OH233364   1.151   3.967   6.491  0.5070 -1.2034 -0.0860
 3958TIP3    H133365   1.091   3.977   6.418  1.7121  0.5404 -0.9019
 3958TIP3    H233366   1.136   4.044   6.546  2.2143 -0.4962 -0.5302
 3959TIP3   OH233367   1.927   0.958   2.740 -0.2764 -0.3376 -0.0583
 3959TIP3    H133368   1.862   0.916   2.797 -1.9020  0.5694 -1.1608
 3959TIP3    H233369   1.906   0.926   2.653 -0.0153  0.9057 -0.5928
 3960TIP3   OH233370   6.063   2.673  12.737  0.1756  0.1808  0.3145
 3960TIP3    H133371   6.073   2.584  12.773  3.3743 -1.0702 -2.9860
 3960TIP3    H233372   5.992   2.665  12.673  0.7475 -0.1799 -0.2912
 3961TIP3   OH233373   2.243   4.273  11.045  0.5030  0.0716  0.5218
 3961TIP3    H133374   2.251   4.194  11.099 -1.6669 -0.1247  0.6642
 3961TIP3    H233375   2.310   4.262  10.977  2.6761 -0.1167  2.5516
 3962TIP3   OH233376   1.047   3.603  15.826  0.1030 -0.1122 -0.3258
 3962TIP3    H133377   1.069   3.609  15.919  0.2854  0.9886 -0.4188
 3962TIP3    H233378   1.123   3.640  15.781 -0.3439  0.1764 -0.8597
 3963TIP3   OH233379   6.747   0.221  12.578  0.3533  0.0335 -0.3190
 3963TIP3    H133380   6.734   0.197  12.670  0.7060 -0.3607 -0.3676
 3963TIP3    H233381   6.710   0.147  12.529  0.5649  0.0391 -0.4860
 3964TIP3   OH233382   4.388   0.067   0.182  0.0773 -0.1217 -0.1367
 3964TIP3    H133383   4.374  -0.027   0.168  0.3851 -0.1586 -0.2032
 3964TIP3    H233384   4.477   0.072   0.218 -0.6872 -0.0505  1.8862
 3965TIP3   OH233385   4.548   0.655  13.617 -0.0177  0.2604  0.1975
 3965TIP3    H133386   4.527   0.692  13.703  1.3797  2.3538 -0.2844
 3965TIP3    H233387   4.631   0.610  13.630  0.2276  0.6353 -0.0648
 3966TIP3   OH233388   6.663   4.470  10.663 -0.2236  0.0340  0.3703
 3966TIP3    H133389   6.579   4.489  10.705 -0.2099 -0.6809  0.7233
 3966TIP3    H233390   6.670   4.375  10.664  0.0518  0.0271 -0.7363
 3967TIP3   OH233391   1.623   5.654   2.699 -0.3872  0.9038 -0.3804
 3967TIP3    H133392   1.689   5.723   2.705  0.6124  0.0136 -0.7663
 3967TIP3    H233393   1.541   5.697   2.722  0.4270  1.8811  0.8682
 3968TIP3   OH233394   1.918   5.628  13.973 -0.3572 -0.3229 -0.2653
 3968TIP3    H133395   1.853   5.615  14.042 -0.1426 -1.3487 -0.2407
 3968TIP3    H233396   1.997   5.656  14.019 -0.4739 -0.1197 -0.1877
 3969TIP3   OH233397   3.647   0.852  13.029  0.4312  0.1997  0.4129
 3969TIP3    H133398   3.680   0.819  12.946  0.0851 -0.1802  0.4234
 3969TIP3    H233399   3.601   0.778  13.068  2.1466 -0.2189  1.7992
 3970TIP3   OH233400   3.332   4.935   2.046  0.1282  0.1786 -0.3848
 3970TIP3    H133401   3.316   4.924   1.952 -0.9401 -1.3848 -0.0469
 3970TIP3    H233402   3.394   4.866   2.069 -3.2438 -2.6940  0.9067
 3971TIP3   OH233403   1.801   5.492   2.236  0.0616  0.2196  0.5630
 3971TIP3    H133404   1.794   5.584   2.260 -0.8935  0.7157 -1.4357
 3971TIP3    H233405   1.712   5.458   2.244  0.6706 -1.1059  3.0816
 3972TIP3   OH233406   0.088   1.961   4.007  0.2484  0.2505  0.0674
 3972TIP3    H133407   0.115   1.877   3.970  0.3375  0.9493 -1.5562
 3972TIP3    H233408   0.110   1.955   4.100  1.6167 -0.9704 -0.2979
 3973TIP3   OH233409   3.726   2.448  16.779  0.1975 -0.1070  0.1608
 3973TIP3    H133410   3.702   2.538  16.757 -1.5426 -0.7986 -0.9979
 3973TIP3    H233411   3.800   2.428  16.722 -1.7774 -0.5682 -2.4712
 3974TIP3   OH233412   4.788   6.359   1.471  0.3249  0.3617  0.3680
 3974TIP3    H133413   4.845   6.302   1.420 -1.7441  0.3619 -2.1777
 3974TIP3    H233414   4.822   6.447   1.456  2.1813  0.0812  2.4816
 3975TIP3   OH233415   0.202   0.199  16.242  0.0640  0.4474  0.0687
 3975TIP3    H133416   0.259   0.216  16.317 -0.2501  0.3774  0.3247
 3975TIP3    H233417   0.169   0.286  16.218 -0.9206  0.3125  0.8804
 3976TIP3   OH233418   5.277   5.698  14.461  0.0272  0.1969  0.5379
 3976TIP3    H133419   5.299   5.785  14.493  2.1786 -0.2127  0.3004
 3976TIP3    H233420   5.321   5.691  14.376 -2.0713 -0.2910 -0.5806
 3977TIP3   OH233421   1.481   4.167   5.070 -0.2042 -0.3673  0.0976
 3977TIP3    H133422   1.438   4.104   5.012  0.4708 -1.1744  0.4520
 3977TIP3    H233423   1.512   4.115   5.143  0.7676  0.3111  0.1850
 3978TIP3   OH233424   4.628   0.034  16.815 -0.0920  0.3400  0.3367
 3978TIP3    H133425   4.693   0.075  16.757  1.4024  0.4487  2.0009
 3978TIP3    H233426   4.546   0.039  16.766  0.4673  3.2106 -0.4975
 3979TIP3   OH233427   0.453   6.067   0.463  0.2778 -0.0180 -0.2462
 3979TIP3    H133428   0.489   6.116   0.537  0.1504  0.2824 -0.3812
 3979TIP3    H233429   0.499   6.103   0.387  1.2396 -1.1077 -0.2047
 3980TIP3   OH233430   4.430   5.038   2.199  0.0764  0.1441  0.6845
 3980TIP3    H133431   4.479   4.956   2.209  0.9165  0.5502 -0.0330
 3980TIP3    H233432   4.338   5.012   2.213  0.0158 -1.3952 -1.8575
 3981TIP3   OH233433   3.095   0.838  11.447 -0.0796  0.1674  0.1948
 3981TIP3    H133434   3.114   0.900  11.376  1.5008 -0.8866 -0.3481
 3981TIP3    H233435   3.073   0.894  11.521  1.4316  1.4251 -0.2374
 3982TIP3   OH233436   2.372   5.274  13.205 -0.2222 -0.1676 -0.0313
 3982TIP3    H133437   2.436   5.205  13.188 -0.8245 -0.3799 -1.6173
 3982TIP3    H233438   2.361   5.273  13.300  1.4971 -0.6698  0.1987
 3983TIP3   OH233439   1.586   0.833   5.400 -0.1276 -0.3030  0.0220
 3983TIP3    H133440   1.574   0.871   5.487  0.1792  0.2383 -0.1708
 3983TIP3    H233441   1.633   0.751   5.417 -0.3477 -0.3537  0.3939
 3984TIP3   OH233442   1.426   6.460  15.459 -0.4050 -0.1347  0.1427
 3984TIP3    H133443   1.367   6.523  15.416  1.8279  0.7361 -1.8397
 3984TIP3    H233444   1.440   6.497  15.546 -0.7574  1.0308 -0.2698
 3985TIP3   OH233445   3.571   2.054  14.973  0.6448 -0.1006  0.4995
 3985TIP3    H133446   3.590   1.987  15.039  0.4541 -0.2950  0.3554
 3985TIP3    H233447   3.492   2.097  15.005 -1.0935 -2.0076 -0.9719
 3986TIP3   OH233448   4.035   5.289   3.590  0.6333  0.1740  0.6675
 3986TIP3    H133449   3.975   5.218   3.613 -0.9805  1.4229  0.4919
 3986TIP3    H233450   4.083   5.306   3.670 -1.4049  1.1242  1.7829
 3987TIP3   OH233451   6.756   3.147   1.197 -0.5588  0.0390 -0.6118
 3987TIP3    H133452   6.815   3.096   1.140  0.5655  1.1199 -0.4677
 3987TIP3    H233453   6.678   3.161   1.143 -1.1897 -2.3389 -0.4244
 3988TIP3   OH233454   4.355   5.836  17.180  0.5356 -0.2340  0.0748
 3988TIP3    H133455   4.321   5.749  17.157 -1.7482  1.2041 -2.5283
 3988TIP3    H233456   4.316   5.854  17.266 -1.0690 -0.7914 -0.5008
 3989TIP3   OH233457   1.017   1.382  13.991 -0.3032  0.3232 -0.4769
 3989TIP3    H133458   1.009   1.446  13.920 -2.5466  0.2048 -0.3895
 3989TIP3    H233459   0.939   1.395  14.045  1.2736  0.3739  1.9979
 3990TIP3   OH233460   2.839   1.831   6.058  0.5142 -0.2719 -0.0936
 3990TIP3    H133461   2.892   1.850   5.980  0.1155 -0.9202 -0.5338
 3990TIP3    H233462   2.824   1.736   6.054  1.6537 -0.5647  1.5217
 3991TIP3   OH233463   1.096   5.300   4.311 -0.2748 -0.2719 -0.1545
 3991TIP3    H133464   1.098   5.277   4.219  0.2897 -2.2041  0.2943
 3991TIP3    H233465   1.008   5.336   4.325  0.2689  1.8833 -1.7999
 3992TIP3   OH233466   4.252   0.315  11.070 -0.1883  0.0235 -0.1440
 3992TIP3    H133467   4.246   0.231  11.025  0.2857  0.7050 -1.5327
 3992TIP3    H233468   4.295   0.373  11.008 -1.4102  1.5785  0.3865
 3993TIP3   OH233469   5.773   2.588  12.856  0.6785 -0.2965  0.2838
 3993TIP3    H133470   5.811   2.568  12.770 -0.7069 -2.4589  0.0981
 3993TIP3    H233471   5.840   2.562  12.919  0.8953 -0.6857 -0.1060
 3994TIP3   OH233472   1.822   3.311   4.522  0.0242  0.5959  0.0148
 3994TIP3    H133473   1.820   3.382   4.587  0.2201 -0.7001  1.5009
 3994TIP3    H233474   1.732   3.304   4.492 -0.2425  0.6604  0.7785
 3995TIP3   OH233475   0.840   3.289   1.162 -0.0224  0.8804  0.1521
 3995TIP3    H133476   0.761   3.240   1.139 -0.3347  1.1775  0.5791
 3995TIP3    H233477   0.900   3.274   1.089 -0.5346  0.7916 -0.2540
 3996TIP3   OH233478   4.426   3.340  16.737  0.1900  0.1489 -0.2218
 3996TIP3    H133479   4.385   3.348  16.651  0.2750  0.1736 -0.2599
 3996TIP3    H233480   4.427   3.429  16.771 -1.2777 -0.0645  0.4722
 3997TIP3   OH233481   2.034   5.341  15.396  0.1100 -0.5664  0.0252
 3997TIP3    H133482   2.053   5.401  15.468 -0.6837  0.8694 -0.9066
 3997TIP3    H233483   2.108   5.352  15.336 -0.1996 -0.2696 -0.3028
 3998TIP3   OH233484   1.147   6.533   0.638  0.2828  0.2401 -0.3590
 3998TIP3    H133485   1.181   6.535   0.548  1.4461  1.7432  0.0833
 3998TIP3    H233486   1.057   6.564   0.629  0.5831  0.9910 -0.9479
 3999TIP3   OH233487   2.217   0.803   5.409  0.0250 -0.5939 -0.4668
 3999TIP3    H133488   2.135   0.850   5.395  0.3257 -0.2522 -1.1566
 3999TIP3    H233489   2.249   0.783   5.321 -0.0570 -2.0562 -0.1937
 4000TIP3   OH233490   1.864   0.865  11.994 -0.2913 -0.1107  0.2521
 4000TIP3    H133491   1.923   0.940  11.997  0.2197 -0.5058  0.2517
 4000TIP3    H233492   1.818   0.874  11.910  0.6867 -0.4765 -0.3404
 4001TIP3   OH233493   3.133   3.721   1.099  0.3262 -0.4290  0.7467
 4001TIP3    H133494   3.119   3.794   1.038  0.5191  0.3453  1.6031
 4001TIP3    H233495   3.073   3.653   1.069 -0.1223  0.2175  0.1425
 4002TIP3   OH233496   4.602   5.521  11.549  0.1749  0.4112 -0.3189
 4002TIP3    H133497   4.512   5.548  11.531  0.0146 -0.5540 -1.0647
 4002TIP3    H233498   4.603   5.427  11.530  0.9814  0.1069  1.0778
 4003TIP3   OH233499   6.765   2.483  15.486  0.3205  0.1212 -0.4244
 4003TIP3    H133500   6.829   2.438  15.430 -0.4391  1.2032 -2.2366
 4003TIP3    H233501   6.759   2.571  15.449 -2.3650 -0.0087 -0.4646
 4004TIP3   OH233502   3.533   3.146  14.337 -0.3134 -0.0556 -0.2593
 4004TIP3    H133503   3.568   3.106  14.258 -0.7305  0.7100 -0.8458
 4004TIP3    H233504   3.572   3.096  14.409 -0.0215 -0.8357 -0.9443
 4005TIP3   OH233505   3.231   4.527   4.631 -0.7435 -0.2750  0.2378
 4005TIP3    H133506   3.236   4.610   4.678 -2.1713 -0.7811  1.3328
 4005TIP3    H233507   3.322   4.508   4.606 -0.4407  1.8408 -0.4974
 4006TIP3   OH233508   1.215   3.640   1.213  0.0934  0.0633 -0.2197
 4006TIP3    H133509   1.153   3.567   1.207 -0.3332  0.4901 -1.1357
 4006TIP3    H233510   1.301   3.600   1.198  0.0418 -0.4942  0.8479
 4007TIP3   OH233511   4.844   3.582  12.112  0.3227  0.0414  0.4990
 4007TIP3    H133512   4.776   3.647  12.092  0.8563  0.3849 -0.2450
 4007TIP3    H233513   4.923   3.615  12.069  0.9415 -0.4213  1.2345
 4008TIP3   OH233514   0.207   5.796  13.751 -0.1116 -0.2356  0.4904
 4008TIP3    H133515   0.134   5.855  13.733  0.1814 -0.1016 -0.3062
 4008TIP3    H233516   0.252   5.834  13.827 -0.9447 -0.3973  1.0768
 4009TIP3   OH233517   2.678   6.519   5.408 -0.0130  0.0053 -0.4083
 4009TIP3    H133518   2.708   6.451   5.347 -0.5990  2.0707 -3.1737
 4009TIP3    H233519   2.759   6.558   5.442  0.4475  0.6815 -2.1418
 4010TIP3   OH233520   5.432   1.689  13.718 -0.0049  0.5786  0.0561
 4010TIP3    H133521   5.471   1.777  13.725 -0.7941  1.0610 -1.2729
 4010TIP3    H233522   5.487   1.644  13.653 -0.3030  0.4851 -0.1303
 4011TIP3   OH233523   2.196   2.438   2.824  0.8658 -0.3013 -1.1198
 4011TIP3    H133524   2.172   2.531   2.822  0.4153 -0.4191 -1.4028
 4011TIP3    H233525   2.234   2.425   2.911  0.6449  0.0800 -0.9634
 4012TIP3   OH233526   3.420   2.768   5.032  0.2675 -0.2373 -0.1832
 4012TIP3    H133527   3.508   2.804   5.044  0.0586  0.2752 -0.1977
 4012TIP3    H233528   3.361   2.837   5.061 -0.1067 -1.1646  1.3712
 4013TIP3   OH233529   2.273   3.813   2.909  0.5604 -0.1332 -0.2600
 4013TIP3    H133530   2.262   3.749   2.839  1.4258  0.2923 -0.7906
 4013TIP3    H233531   2.285   3.760   2.988 -0.4255 -0.6132 -0.4140
 4014TIP3   OH233532   2.326   6.330   3.377 -0.4231 -0.4577 -0.2293
 4014TIP3    H133533   2.366   6.409   3.342  0.9840 -0.9291  0.2551
 4014TIP3    H233534   2.341   6.264   3.309  0.6267 -0.9040  0.4100
 4015TIP3   OH233535   6.150   3.475  14.659 -0.1089 -0.0586  0.0151
 4015TIP3    H133536   6.067   3.435  14.685  0.2100 -2.9405 -2.8078
 4015TIP3    H233537   6.214   3.440  14.720 -0.7205  1.1712  1.4140
 4016TIP3   OH233538   0.243   5.512   0.920  0.2830  0.6304  0.4271
 4016TIP3    H133539   0.295   5.436   0.893  1.2039  1.1782  0.5959
 4016TIP3    H233540   0.211   5.550   0.838  0.4461  0.4833  0.2961
 4017TIP3   OH233541   3.690   4.216   5.367 -0.3509 -0.1016 -0.5202
 4017TIP3    H133542   3.768   4.169   5.337 -0.0669  0.5835 -0.8755
 4017TIP3    H233543   3.659   4.166   5.443  1.0158  0.1638  0.2470
 4018TIP3   OH233544   3.749   3.000   5.337 -0.2022 -0.6107  0.0264
 4018TIP3    H133545   3.829   2.947   5.345 -0.7490 -1.3444  0.9384
 4018TIP3    H233546   3.739   3.041   5.423 -1.6342 -1.7922  0.4774
 4019TIP3   OH233547   1.454   4.464   2.388 -0.0326  0.0735 -0.7122
 4019TIP3    H133548   1.461   4.402   2.460  0.3087  0.9043 -0.0145
 4019TIP3    H233549   1.370   4.444   2.347 -0.5331  0.0170  0.3128
 4020TIP3   OH233550   5.599   1.179   2.810  0.4396 -0.3259 -0.0765
 4020TIP3    H133551   5.634   1.090   2.804  0.7534 -0.1643 -0.7450
 4020TIP3    H233552   5.676   1.235   2.806  0.4360 -0.0534  2.3894
 4021TIP3   OH233553   2.009   3.831   0.453  0.5461  0.1586 -0.1185
 4021TIP3    H133554   2.095   3.801   0.425  0.4466  1.0953 -1.5466
 4021TIP3    H233555   1.953   3.817   0.377  0.3257  3.1560 -0.6135
 4022TIP3   OH233556   0.810   5.140   3.250 -0.2268  0.0341 -0.2348
 4022TIP3    H133557   0.829   5.233   3.260  0.0100 -0.2116  2.6603
 4022TIP3    H233558   0.895   5.097   3.260 -0.7380 -0.5884  2.0508
 4023TIP3   OH233559   1.700   5.168  12.109  0.6424  0.2926  0.2399
 4023TIP3    H133560   1.740   5.252  12.087 -0.7023  0.7164 -0.7011
 4023TIP3    H233561   1.738   5.105  12.047 -0.4269  0.7828 -0.9642
 4024TIP3   OH233562   4.817   6.545   4.750  0.4122  0.3582  0.1555
 4024TIP3    H133563   4.864   6.618   4.792 -0.3325  0.1134  1.4782
 4024TIP3    H233564   4.811   6.479   4.819 -0.9220 -0.0374 -0.3230
 4025TIP3   OH233565   0.190   6.236  10.150 -0.1374 -0.1232  0.4094
 4025TIP3    H133566   0.238   6.275  10.223  0.2602  2.9869 -1.3509
 4025TIP3    H233567   0.203   6.142  10.161  2.0430  0.3454  2.8814
 4026TIP3   OH233568   4.806   1.697  11.848  0.0228  0.0005 -0.3358
 4026TIP3    H133569   4.826   1.604  11.846 -0.1291 -0.0348 -1.8233
 4026TIP3    H233570   4.817   1.726  11.757  1.9991  1.8611  0.4019
 4027TIP3   OH233571   5.996   4.591   3.577 -0.0236 -0.2159  0.5914
 4027TIP3    H133572   5.946   4.511   3.591 -2.7255  0.6308 -2.8179
 4027TIP3    H233573   6.086   4.562   3.566 -0.6227 -2.5288  1.3183
 4028TIP3   OH233574   2.652   0.515   5.345  0.2960 -0.0391  0.1948
 4028TIP3    H133575   2.669   0.438   5.399 -1.4629  1.8461  3.8038
 4028TIP3    H233576   2.557   0.525   5.347  0.5062  2.5047  0.4146
 4029TIP3   OH233577   3.006   2.154   4.052  0.4463  0.1304 -0.4744
 4029TIP3    H133578   2.913   2.146   4.075  0.6810  0.1649  0.5310
 4029TIP3    H233579   3.012   2.236   4.003  0.1495  0.8361  0.6291
 4030TIP3   OH233580   1.738   1.509  13.778 -0.2429  0.3649 -0.3086
 4030TIP3    H133581   1.714   1.602  13.773 -2.5785  0.1678  3.3245
 4030TIP3    H233582   1.662   1.463  13.744  0.8829 -0.3268 -2.0394
 4031TIP3   OH233583   5.119   2.642   0.552  0.1494 -0.3461  0.8038
 4031TIP3    H133584   5.208   2.607   0.545  0.0778 -0.5373  0.8551
 4031TIP3    H233585   5.063   2.573   0.517  0.1843  0.6054 -1.2618
 4032TIP3   OH233586   1.133   2.555   5.706  0.2895 -0.0189  0.7134
 4032TIP3    H133587   1.125   2.484   5.770  0.7401 -0.1515  0.6225
 4032TIP3    H233588   1.219   2.543   5.666 -0.5373 -0.8047 -0.9479
 4033TIP3   OH233589   3.771   5.000  13.459  0.4212 -0.0579  0.2575
 4033TIP3    H133590   3.708   4.949  13.406 -0.2335 -0.1490  1.1038
 4033TIP3    H233591   3.856   4.961  13.439  0.3044  0.3846 -1.2924
 4034TIP3   OH233592   6.728   6.620  14.992 -0.2798  0.3706 -0.6392
 4034TIP3    H133593   6.776   6.593  14.914 -0.5576  0.1854 -0.7470
 4034TIP3    H233594   6.662   6.682  14.961 -1.5070 -0.9632 -0.8200
 4035TIP3   OH233595   2.701   6.622   2.992 -0.5919 -0.3222  0.2307
 4035TIP3    H133596   2.754   6.634   2.913 -1.4081  0.3379 -0.2325
 4035TIP3    H233597   2.611   6.642   2.964 -1.3061 -2.5559  0.6926
 4036TIP3   OH233598   2.844   4.237  15.648  0.2745 -0.6757  0.2177
 4036TIP3    H133599   2.799   4.319  15.626 -0.5571 -1.4261 -0.9796
 4036TIP3    H233600   2.784   4.192  15.708 -0.2797 -1.3542 -0.8162
 4037TIP3   OH233601   4.885   0.574   4.455 -0.1836  0.1874 -0.5729
 4037TIP3    H133602   4.856   0.601   4.368 -0.9949 -0.7682 -0.6166
 4037TIP3    H233603   4.811   0.526   4.491  0.3092  0.1824  0.4772
 4038TIP3   OH233604   3.858   4.489   5.591  0.4437 -0.2285  0.1480
 4038TIP3    H133605   3.942   4.447   5.609 -0.1027 -0.6628  1.8713
 4038TIP3    H233606   3.849   4.554   5.661 -0.4962  0.0649 -0.2354
 4039TIP3   OH233607   4.767   2.883  14.332  0.1710 -0.0274 -0.2960
 4039TIP3    H133608   4.832   2.908  14.266  1.8992  0.5536  1.5504
 4039TIP3    H233609   4.699   2.950  14.324 -0.8653 -1.2412 -2.9867
 4040TIP3   OH233610   1.500   6.262   1.567  0.5012 -0.3362 -0.2128
 4040TIP3    H133611   1.445   6.339   1.552  0.2543 -0.2278  1.1110
 4040TIP3    H233612   1.590   6.295   1.561  0.4044 -0.0937 -0.3378
 4041TIP3   OH233613   2.064   2.651  13.874 -0.6951  0.1777  0.2767
 4041TIP3    H133614   1.983   2.699  13.892 -0.4173  0.6673  0.2176
 4041TIP3    H233615   2.130   2.718  13.864 -0.2463 -0.2302  0.4770
 4042TIP3   OH233616   5.846   4.711  11.717  0.6964 -0.2421  1.0640
 4042TIP3    H133617   5.926   4.730  11.668 -0.1569  0.1006 -0.2585
 4042TIP3    H233618   5.872   4.645  11.781  1.9558 -0.4196  0.4062
 4043TIP3   OH233619   5.066   0.918   5.345 -0.2551  0.6233 -0.1493
 4043TIP3    H133620   5.149   0.878   5.371  0.0358  1.8074  0.8221
 4043TIP3    H233621   5.003   0.887   5.410 -0.1863  1.1335  0.1650
 4044TIP3   OH233622   1.894   4.626   6.068  0.3092  0.1345 -0.1493
 4044TIP3    H133623   1.917   4.567   6.139 -1.6217 -1.3130 -0.6330
 4044TIP3    H233624   1.824   4.680   6.103  0.9368  1.0435 -0.2490
 4045TIP3   OH233625   0.776   2.385  13.163  0.1105 -0.2598  0.6248
 4045TIP3    H133626   0.737   2.462  13.205  0.2148  2.0493 -3.0741
 4045TIP3    H233627   0.866   2.383  13.196 -0.2872  0.3234  1.8166
 4046TIP3   OH233628   6.005   2.137   1.051 -0.0713  0.2939 -0.7006
 4046TIP3    H133629   5.936   2.090   1.098  0.1170  0.9617  0.2852
 4046TIP3    H233630   6.084   2.120   1.102 -0.1115  2.1617  0.0685
 4047TIP3   OH233631   6.502   6.486   4.462  0.0702 -0.5528 -0.3704
 4047TIP3    H133632   6.493   6.464   4.369  0.6856  2.1488 -1.1477
 4047TIP3    H233633   6.412   6.482   4.496 -0.3507 -0.2478 -1.4115
 4048TIP3   OH233634   2.014   3.484   5.379  0.2910  0.0425 -0.0621
 4048TIP3    H133635   2.023   3.577   5.401 -0.4702  0.0966  0.0786
 4048TIP3    H233636   2.103   3.451   5.375  0.5504  0.6295  0.5631
 4049TIP3   OH233637   3.056   6.520   0.973  0.2114 -0.2318 -0.6927
 4049TIP3    H133638   3.126   6.580   0.945  1.0023 -0.7646  0.0803
 4049TIP3    H233639   3.000   6.511   0.896  0.9478  0.2827 -1.3052
 4050TIP3   OH233640   4.974   1.783  15.047 -0.3941 -0.0126 -0.1815
 4050TIP3    H133641   5.069   1.770  15.048 -0.3153  0.3592 -1.5324
 4050TIP3    H233642   4.962   1.869  15.087 -0.0560  0.4452 -1.0373
 4051TIP3   OH233643   4.369   1.753  14.868  0.1020 -0.1011 -0.3669
 4051TIP3    H133644   4.324   1.741  14.785  1.2667  1.2044 -1.2165
 4051TIP3    H233645   4.433   1.682  14.872  0.2328 -0.0043 -0.7195
 4052TIP3   OH233646   0.349   1.912  12.426  0.0054 -0.2046 -0.0294
 4052TIP3    H133647   0.403   1.904  12.348  1.8028 -0.9810  1.2424
 4052TIP3    H233648   0.266   1.948  12.394  1.1598  0.8024 -2.0841
 4053TIP3   OH233649   3.547   0.738  14.023  0.1374  0.5632 -0.6806
 4053TIP3    H133650   3.513   0.650  14.008  1.0908 -0.0518  0.6377
 4053TIP3    H233651   3.529   0.756  14.115 -0.1530  1.8030 -0.9619
 4054TIP3   OH233652   3.448   0.850   1.250  0.4999 -0.2733  0.0167
 4054TIP3    H133653   3.496   0.927   1.220  0.9628 -0.7290 -0.4395
 4054TIP3    H233654   3.356   0.869   1.227  0.7075 -0.1749 -0.7766
 4055TIP3   OH233655   6.291   2.496  14.683  0.0070 -0.9371  0.4266
 4055TIP3    H133656   6.334   2.411  14.669 -2.2203 -1.9928 -0.6262
 4055TIP3    H233657   6.273   2.529  14.595 -0.3140 -0.0019  0.8272
 4056TIP3   OH233658   0.793   3.973  16.069 -0.0022 -0.4732 -0.0309
 4056TIP3    H133659   0.806   3.904  16.134 -0.1721 -0.2722  0.2171
 4056TIP3    H233660   0.847   4.045  16.101 -1.3949  0.2324  0.7981
 4057TIP3   OH233661   3.647   2.092  15.853  0.0545 -0.0860 -0.1850
 4057TIP3    H133662   3.695   2.065  15.774 -0.3559  1.6770 -1.0937
 4057TIP3    H233663   3.709   2.149  15.900 -0.4700  0.6768 -0.3990
 4058TIP3   OH233664   4.609   5.008  16.424 -0.2807 -0.1435 -0.1019
 4058TIP3    H133665   4.698   4.994  16.394 -0.9183 -1.4430 -1.4860
 4058TIP3    H233666   4.605   5.102  16.442  0.9917  0.1751 -1.2736
 4059TIP3   OH233667   5.424   2.081  11.679  0.2580  0.6533 -0.0382
 4059TIP3    H133668   5.483   2.087  11.755 -0.9973  0.8056  0.9526
 4059TIP3    H233669   5.336   2.082  11.717 -0.3902 -1.1716 -1.3764
 4060TIP3   OH233670   3.892   0.134  14.372  0.3771  0.1074  0.2394
 4060TIP3    H133671   3.962   0.099  14.316  0.4122  1.8491 -0.8655
 4060TIP3    H233672   3.922   0.221  14.396 -1.5390  1.0244 -0.5143
 4061TIP3   OH233673   3.294   5.509  12.226 -0.0747 -0.0155  0.2798
 4061TIP3    H133674   3.315   5.490  12.318  0.4058  0.8441  0.3592
 4061TIP3    H233675   3.281   5.604  12.224  0.3872  0.0369 -0.6268
 4062TIP3   OH233676   6.249   1.128   4.003  0.7353  0.2506  0.4129
 4062TIP3    H133677   6.345   1.122   4.005  0.8715  1.9286  0.5564
 4062TIP3    H233678   6.229   1.198   4.065 -0.3807  1.7684 -1.5398
 4063TIP3   OH233679   2.144   0.421  10.918 -0.0271  0.7745  0.2762
 4063TIP3    H133680   2.056   0.397  10.889 -0.4761  2.6251 -0.0054
 4063TIP3    H233681   2.199   0.349  10.886 -1.3513 -0.2001  0.0647
 4064TIP3   OH233682   2.942   4.360   2.895 -0.0714  0.1158 -0.2136
 4064TIP3    H133683   2.903   4.447   2.889  0.3022  0.2937 -0.0922
 4064TIP3    H233684   3.015   4.370   2.956 -1.1235 -0.6830  1.2231
 4065TIP3   OH233685   4.288   4.622  12.850 -0.0608  0.5743 -0.0929
 4065TIP3    H133686   4.356   4.626  12.918  0.3234  0.8703 -0.4884
 4065TIP3    H233687   4.298   4.535  12.812  0.9519  1.0484 -0.9969
 4066TIP3   OH233688   2.860   3.901   0.533  0.6589 -0.0583 -0.0532
 4066TIP3    H133689   2.815   3.927   0.452  0.9298  0.7617  0.0518
 4066TIP3    H233690   2.953   3.907   0.512  0.7297  0.1166  0.3011
 4067TIP3   OH233691   1.081   4.100   5.585 -0.0619  0.2711  0.3756
 4067TIP3    H133692   1.072   4.012   5.623  0.8434  0.5357  1.2516
 4067TIP3    H233693   1.172   4.104   5.555 -0.4588  0.4661 -0.8362
 4068TIP3   OH233694   3.048   1.350   4.549 -0.0335  0.2260 -0.3651
 4068TIP3    H133695   3.090   1.304   4.476 -2.6814 -0.8533 -1.3336
 4068TIP3    H233696   3.049   1.442   4.522  0.4536  0.0427 -1.0171
 4069TIP3   OH233697   4.681   1.447  12.418  0.2526  0.2267  0.2923
 4069TIP3    H133698   4.605   1.410  12.373  0.0135 -0.9252  1.5876
 4069TIP3    H233699   4.752   1.438  12.354 -0.2538 -0.6036 -0.1853
 4070TIP3   OH233700   1.810   0.895   1.254  0.0308  0.5590 -0.3153
 4070TIP3    H133701   1.768   0.893   1.168 -2.6756 -0.5665  0.9240
 4070TIP3    H233702   1.897   0.857   1.239 -0.1321  0.9434 -2.6168
 4071TIP3   OH233703   5.727   4.752  14.628 -0.3419  0.2841  0.0659
 4071TIP3    H133704   5.678   4.674  14.601 -0.4390 -0.3615  1.9982
 4071TIP3    H233705   5.666   4.824  14.614 -0.4875 -0.0407 -1.1067
 4072TIP3   OH233706   4.225   2.830  15.409  0.5836 -0.2156 -0.3026
 4072TIP3    H133707   4.170   2.752  15.412  0.2281  0.0542  0.3216
 4072TIP3    H233708   4.219   2.861  15.318  2.5639 -2.2039 -1.1938
 4073TIP3   OH233709   3.200   4.153  13.332  0.4824 -0.1992 -0.7543
 4073TIP3    H133710   3.201   4.107  13.417 -0.5303 -0.2721 -0.7698
 4073TIP3    H233711   3.119   4.204  13.334  0.0841 -0.7668 -1.9735
 4074TIP3   OH233712   5.270   3.998   5.763  0.0866  0.0138 -0.0894
 4074TIP3    H133713   5.333   3.996   5.836 -0.7352 -0.8246  0.6218
 4074TIP3    H233714   5.195   3.949   5.796 -0.5205  0.1072 -1.3144
 4075TIP3   OH233715   0.775   5.835   1.389 -0.2149 -0.4145  0.2650
 4075TIP3    H133716   0.726   5.880   1.320 -0.3837 -0.2774  0.4717
 4075TIP3    H233717   0.839   5.899   1.418  0.9094 -1.0005 -0.8380
 4076TIP3   OH233718   1.260   3.449  16.347  0.1643 -0.2401  0.3348
 4076TIP3    H133719   1.284   3.458  16.439 -1.3810  1.0242  0.6717
 4076TIP3    H233720   1.323   3.503  16.300  1.5268 -1.6158  0.5176
 4077TIP3   OH233721   2.355   2.936   3.308 -0.2747  0.1981 -0.1395
 4077TIP3    H133722   2.270   2.940   3.263 -0.5858  0.5365  0.4625
 4077TIP3    H233723   2.381   3.027   3.319 -0.6620  0.1661  1.1943
 4078TIP3   OH233724   1.828   1.264   4.143  0.6103  0.4520 -0.3255
 4078TIP3    H133725   1.815   1.204   4.070  2.2608  1.2346 -1.3120
 4078TIP3    H233726   1.838   1.350   4.103 -1.4410  1.4127  1.0479
 4079TIP3   OH233727   2.166   4.112  14.822  0.3618  0.0573 -0.2356
 4079TIP3    H133728   2.082   4.083  14.857  1.2159 -0.5585  1.3960
 4079TIP3    H233729   2.173   4.204  14.849 -1.1573  1.1703 -3.1450
 4080TIP3   OH233730   6.485   3.293   2.210 -0.5841  0.1670  0.9022
 4080TIP3    H133731   6.576   3.321   2.219 -0.4291 -0.3396  0.9050
 4080TIP3    H233732   6.458   3.330   2.125  0.0788 -0.9077  0.1944
 4081TIP3   OH233733   0.723   6.104  13.223 -0.2372  0.3449  0.1457
 4081TIP3    H133734   0.682   6.188  13.201 -0.8914  0.4173  1.5630
 4081TIP3    H233735   0.652   6.051  13.258  0.0019 -1.1056 -1.4131
 4082TIP3   OH233736   4.222   5.573   4.221 -0.0411 -0.5405 -0.3603
 4082TIP3    H133737   4.186   5.567   4.132 -0.3224 -0.4137 -0.2579
 4082TIP3    H233738   4.163   5.519   4.274 -1.2726  1.2089  0.1590
 4083TIP3   OH233739   3.996   1.174  13.701 -0.0302  0.0843 -0.2506
 4083TIP3    H133740   3.999   1.245  13.636  1.1355 -0.7425 -1.1436
 4083TIP3    H233741   3.903   1.152  13.707 -0.5312  2.1769  0.6405
 4084TIP3   OH233742   4.067   5.823  12.592  0.1250 -0.2632  0.5972
 4084TIP3    H133743   4.040   5.734  12.615 -0.3415 -0.3192 -0.1392
 4084TIP3    H233744   4.087   5.819  12.498  1.5461  0.0674  0.8597
 4085TIP3   OH233745   3.906   0.408  15.114 -0.0422 -0.8111 -0.0629
 4085TIP3    H133746   3.812   0.424  15.115  0.1444  0.4128  0.9570
 4085TIP3    H233747   3.916   0.318  15.145 -0.9397 -1.5599 -1.8043
 4086TIP3   OH233748   1.754   6.278  13.505 -1.0963  0.6558  0.1376
 4086TIP3    H133749   1.703   6.293  13.585 -1.4333  2.5062 -0.3756
 4086TIP3    H233750   1.689   6.278  13.435 -0.5079  2.2992 -0.4451
 4087TIP3   OH233751   4.468   3.094   3.260 -0.3424 -0.4417  0.4149
 4087TIP3    H133752   4.552   3.048   3.249 -0.3921 -0.4989  0.2607
 4087TIP3    H233753   4.463   3.113   3.353  0.3658  0.5709  0.2541
 4088TIP3   OH233754   6.142   6.820  14.382 -0.1768  0.2203 -0.0262
 4088TIP3    H133755   6.117   6.866  14.462  0.0933 -1.1828  0.9106
 4088TIP3    H233756   6.071   6.838  14.321 -2.0789 -1.2678  1.5982
 4089TIP3   OH233757   4.450   1.068   5.667  0.0505  0.5811 -0.2933
 4089TIP3    H133758   4.512   1.135   5.638  1.7281 -1.1294 -0.9657
 4089TIP3    H233759   4.405   1.040   5.587  0.6997 -0.3293 -0.3615
 4090TIP3   OH233760   2.230   2.885  15.983  0.5691 -0.5347 -0.4749
 4090TIP3    H133761   2.198   2.927  16.064 -1.3274  0.4382 -1.6442
 4090TIP3    H233762   2.318   2.920  15.972 -0.7877  3.1693 -1.2361
 4091TIP3   OH233763   4.891   5.832  10.589 -0.6500 -0.1454 -0.0671
 4091TIP3    H133764   4.855   5.907  10.540 -1.0824 -0.4826 -0.2704
 4091TIP3    H233765   4.897   5.762  10.524  1.4833  0.2238 -0.3231
 4092TIP3   OH233766   2.335   1.380  14.192 -0.0744  0.4376  0.0811
 4092TIP3    H133767   2.350   1.346  14.280  0.7852 -2.2784 -0.9946
 4092TIP3    H233768   2.244   1.355  14.172  0.4848 -1.2197 -0.6221
 4093TIP3   OH233769   3.548   4.820  15.450  0.8723  0.5709 -0.0927
 4093TIP3    H133770   3.545   4.894  15.511  1.7567  0.0195  0.6461
 4093TIP3    H233771   3.611   4.759  15.489  0.2398 -0.5321 -0.7269
 4094TIP3   OH233772   3.048   2.832  11.661  0.3708 -0.5901 -0.0720
 4094TIP3    H133773   2.960   2.824  11.624  0.0329  0.5533  0.4265
 4094TIP3    H233774   3.044   2.911  11.715  1.4532 -1.0220  0.6886
 4095TIP3   OH233775   1.594   6.767  15.467  0.5686 -0.2661  0.1334
 4095TIP3    H133776   1.613   6.724  15.550  1.2005  0.1656  0.2215
 4095TIP3    H233777   1.674   6.814  15.446 -0.3662  1.6059  0.5042
 4096TIP3   OH233778   2.633   1.028   3.278  0.0201 -0.7343  0.4902
 4096TIP3    H133779   2.680   1.111   3.282  3.1784 -2.3798  0.3862
 4096TIP3    H233780   2.552   1.044   3.327  1.3870  1.8592  2.1294
 4097TIP3   OH233781   5.119   5.711   2.809 -0.3193 -0.1004  0.0718
 4097TIP3    H133782   5.093   5.737   2.720 -0.6677  0.1888  0.2585
 4097TIP3    H233783   5.190   5.770   2.832 -0.4616  0.0519  0.1199
 4098TIP3   OH233784   5.534   0.101   3.924  0.1228 -0.5472  0.3461
 4098TIP3    H133785   5.472   0.116   3.853  1.2866  1.1759 -0.3844
 4098TIP3    H233786   5.568   0.012   3.908 -2.1695 -1.5843  0.8617
 4099TIP3   OH233787   0.143   2.438  15.313 -0.8713 -0.5714 -0.3375
 4099TIP3    H133788   0.213   2.503  15.306  0.0163 -1.5017 -0.1955
 4099TIP3    H233789   0.172   2.366  15.257 -0.1837 -2.3211  2.1289
 4100TIP3   OH233790   6.626   0.987  11.482  0.0814 -0.5635  0.4788
 4100TIP3    H133791   6.580   0.926  11.424  0.2623  1.0818 -1.5138
 4100TIP3    H233792   6.714   0.994  11.446  0.4759 -0.1633  1.4833
 4101TIP3   OH233793   4.461   1.319  11.734  0.2977  0.0768  0.1852
 4101TIP3    H133794   4.413   1.326  11.817  0.2353 -0.3837  0.1882
 4101TIP3    H233795   4.431   1.237  11.695  0.3901  0.2502 -0.2567
 4102TIP3   OH233796   1.603   0.163   4.952  0.2649  0.2246  0.3718
 4102TIP3    H133797   1.671   0.103   4.923 -0.3384 -0.8175  1.0254
 4102TIP3    H233798   1.538   0.162   4.882  1.5138  2.2646 -0.8706
 4103TIP3   OH233799   4.959   2.160   6.470 -0.5441 -0.1296 -0.2777
 4103TIP3    H133800   4.984   2.247   6.440  0.4457  0.3348  1.7706
 4103TIP3    H233801   5.041   2.118   6.495 -0.7690 -2.3827 -2.8652
 4104TIP3   OH233802   4.774   4.710   3.985  0.3481  0.4268 -0.0741
 4104TIP3    H133803   4.727   4.648   4.040  0.4021 -0.2061 -0.7279
 4104TIP3    H233804   4.860   4.719   4.027  0.2488  0.2707  0.1647
 4105TIP3   OH233805   4.442   0.632   5.200  0.6585  0.2643  0.3326
 4105TIP3    H133806   4.401   0.622   5.286 -0.9067 -1.3077 -0.5254
 4105TIP3    H233807   4.425   0.549   5.155  0.0554  1.5733 -2.0619
 4106TIP3   OH233808   2.165   4.112   5.319  0.1894 -0.2122  0.7203
 4106TIP3    H133809   2.077   4.137   5.348 -2.0957 -3.4700 -2.4471
 4106TIP3    H233810   2.209   4.084   5.399 -2.2065  0.1152  2.2775
 4107TIP3   OH233811   1.909   6.123   4.735 -0.3865  0.0696 -0.0884
 4107TIP3    H133812   1.930   6.163   4.650  0.0414  0.8076  0.3463
 4107TIP3    H233813   1.815   6.106   4.731 -0.4915  0.6835 -0.4861
 4108TIP3   OH233814   1.698   0.073   6.074 -1.1071 -0.7283  0.3512
 4108TIP3    H133815   1.663   0.022   6.146 -1.0963  1.9677  2.4016
 4108TIP3    H233816   1.793   0.072   6.088 -0.9879 -1.2691 -0.4244
 4109TIP3   OH233817   6.803   1.386   5.283  0.5176  0.2830 -0.2151
 4109TIP3    H133818   6.726   1.411   5.233  0.4872 -0.6342 -0.6355
 4109TIP3    H233819   6.769   1.335   5.356  0.7778 -0.8556 -0.8710
 4110TIP3   OH233820   0.684   6.722  13.822 -0.3424  0.0043 -0.4710
 4110TIP3    H133821   0.663   6.717  13.915 -0.1526  0.2192 -0.4169
 4110TIP3    H233822   0.754   6.659  13.809  1.7505  2.0935  0.1250
 4111TIP3   OH233823   2.351   5.884  12.371  0.8268 -0.3149 -0.0704
 4111TIP3    H133824   2.298   5.911  12.446  1.3678  2.5672 -0.6054
 4111TIP3    H233825   2.295   5.823  12.323 -0.3731 -0.5172  1.4973
 4112TIP3   OH233826   4.656   5.137  14.579 -0.2635 -0.2397  0.3639
 4112TIP3    H133827   4.620   5.098  14.659 -0.3839 -0.7532  0.0660
 4112TIP3    H233828   4.751   5.132  14.590 -0.1864  2.7458  1.9496
 4113TIP3   OH233829   0.253   5.577  15.370 -0.3088  0.0142 -0.3874
 4113TIP3    H133830   0.261   5.508  15.436  0.5554  0.7848  0.3459
 4113TIP3    H233831   0.231   5.656  15.420 -0.3904  0.4565 -1.1043
 4114TIP3   OH233832   1.075   2.850   5.706  0.0755 -0.2949  0.2348
 4114TIP3    H133833   1.094   2.757   5.693  1.7029 -0.0450  0.5866
 4114TIP3    H233834   1.031   2.854   5.791 -0.0836 -0.7636  0.1760
 4115TIP3   OH233835   5.712   5.718   0.566 -0.2120 -0.1600 -0.1863
 4115TIP3    H133836   5.624   5.685   0.586 -0.2232  0.8492  1.5735
 4115TIP3    H233837   5.698   5.811   0.545  0.5446  0.2664  1.1373
 4116TIP3   OH233838   3.355   5.202  15.963 -0.3064 -0.1415  0.2526
 4116TIP3    H133839   3.442   5.237  15.945  0.0864 -1.4732 -0.4804
 4116TIP3    H233840   3.327   5.249  16.042  1.5824 -0.5765  1.2259
 4117TIP3   OH233841   1.467   0.283   5.261 -0.2892  0.2066 -0.4518
 4117TIP3    H133842   1.480   0.338   5.184 -1.0144  1.2369  0.1504
 4117TIP3    H233843   1.549   0.290   5.310  0.2670 -0.6379 -1.2084
 4118TIP3   OH233844   3.173   4.645   1.925  0.4663  0.4947 -0.0296
 4118TIP3    H133845   3.111   4.696   1.978  0.4968 -1.9892  2.6402
 4118TIP3    H233846   3.118   4.581   1.880  0.6980  1.1359 -1.2651
 4119TIP3   OH233847   2.004   4.225  11.561 -0.6089 -0.6671 -0.1569
 4119TIP3    H133848   2.000   4.304  11.507 -0.3410  0.5633  1.5532
 4119TIP3    H233849   1.912   4.201  11.575 -0.6955 -0.5376 -0.4896
 4120TIP3   OH233850   2.601   1.039   6.803  0.4401 -0.5854 -0.6508
 4120TIP3    H133851   2.631   1.011   6.717  0.0436 -2.6752 -0.1576
 4120TIP3    H233852   2.511   1.007   6.809 -0.9155  2.7559 -0.8398
 4121TIP3   OH233853   5.751   3.685   0.888  0.0097 -0.0250  0.4486
 4121TIP3    H133854   5.844   3.673   0.871  0.6703  1.4776  2.5078
 4121TIP3    H233855   5.748   3.752   0.957 -2.4610 -1.9049  2.3711
 4122TIP3   OH233856   0.698   6.612   4.134  0.2707  0.2533 -0.3877
 4122TIP3    H133857   0.772   6.554   4.152 -0.7375 -1.3959 -1.2961
 4122TIP3    H233858   0.664   6.635   4.221 -1.1578 -3.0867  0.1287
 4123TIP3   OH233859   2.140   3.663   1.996  0.1087 -0.0810  0.4766
 4123TIP3    H133860   2.219   3.677   1.945  0.2768  1.6453  1.1486
 4123TIP3    H233861   2.165   3.600   2.064 -0.1976 -2.6358 -1.6303
 4124TIP3   OH233862   1.369   5.698   2.764  0.3139  0.1909 -0.4349
 4124TIP3    H133863   1.368   5.776   2.820 -0.2945 -1.2555  1.6790
 4124TIP3    H233864   1.316   5.722   2.688 -0.9101  1.4321  0.7687
 4125TIP3   OH233865   4.958   0.219  16.769  0.0813 -0.1591  0.6239
 4125TIP3    H133866   4.883   0.247  16.716 -0.4365  0.5100  1.6643
 4125TIP3    H233867   5.029   0.276  16.741 -0.9003  2.1868  2.5328
 4126TIP3   OH233868   4.638   6.070  13.303 -0.3897 -0.4606 -0.0598
 4126TIP3    H133869   4.627   6.148  13.357 -0.4140 -0.3985 -0.1544
 4126TIP3    H233870   4.558   6.066  13.250  0.2842  0.3349 -1.1921
 4127TIP3   OH233871   5.760   1.849  11.399 -0.2506  0.5096  0.1102
 4127TIP3    H133872   5.717   1.916  11.453 -1.0732  1.0247 -1.1450
 4127TIP3    H233873   5.791   1.896  11.322  0.0998 -0.3697 -0.2962
 4128TIP3   OH233874   4.975   5.077  15.232 -0.7058 -0.6017  0.4063
 4128TIP3    H133875   4.906   5.027  15.188 -1.3458  1.4362 -1.0211
 4128TIP3    H233876   4.959   5.168  15.207  1.9390  0.0536  0.8021
 4129TIP3   OH233877   0.254   1.191   3.796  0.1118  0.3084 -0.2036
 4129TIP3    H133878   0.298   1.273   3.772  0.0310  0.0099 -1.4026
 4129TIP3    H233879   0.309   1.155   3.865  0.9983  0.6261 -0.7255
 4130TIP3   OH233880   0.775   4.761  13.714  0.4986  0.7749  0.3773
 4130TIP3    H133881   0.709   4.796  13.773 -1.5149  0.8858 -1.7890
 4130TIP3    H233882   0.799   4.676  13.751 -1.8480  0.1468  0.5956
 4131TIP3   OH233883   0.493   6.208  16.718  0.3799  0.1940  0.0556
 4131TIP3    H133884   0.524   6.240  16.633  0.5359 -2.8486 -1.1491
 4131TIP3    H233885   0.404   6.179  16.701  0.5458 -0.7924  0.8241
 4132TIP3   OH233886   5.255   2.314   1.112 -0.2405 -0.0515  0.2533
 4132TIP3    H133887   5.289   2.403   1.106  2.7778 -1.1246 -0.4689
 4132TIP3    H233888   5.240   2.288   1.021 -1.6809 -0.1219  0.4880
 4133TIP3   OH233889   5.149   4.901   5.370 -0.2246 -0.0341  0.2175
 4133TIP3    H133890   5.114   4.904   5.460 -0.2431  1.1019  0.1859
 4133TIP3    H233891   5.093   4.838   5.325 -1.7480  1.1333  0.3877
 4134TIP3   OH233892   5.726   4.575   4.683 -0.3961 -0.3932 -0.1984
 4134TIP3    H133893   5.683   4.606   4.762 -0.5139 -1.8847  0.3536
 4134TIP3    H233894   5.812   4.546   4.712  0.5394  1.3491 -1.0737
 4135TIP3   OH233895   4.147   6.731  11.624 -0.0415  0.0752  0.4216
 4135TIP3    H133896   4.134   6.767  11.712  1.2603  0.8304  0.3310
 4135TIP3    H233897   4.242   6.730  11.613 -0.2067  1.2610 -1.4954
 4136TIP3   OH233898   2.132   1.166  13.126  0.3161  0.2743  0.5118
 4136TIP3    H133899   2.063   1.124  13.177  0.9797  0.0604  1.2471
 4136TIP3    H233900   2.156   1.243  13.177  0.5461  0.4106  0.2019
 4137TIP3   OH233901   6.559   5.729  17.145  0.5735 -0.5065  0.3173
 4137TIP3    H133902   6.608   5.651  17.171  0.6205 -0.1327  1.3857
 4137TIP3    H233903   6.623   5.800  17.144  0.0617  0.0037  1.8228
 4138TIP3   OH233904   0.516   6.561  11.019  0.1879 -0.0945 -0.2046
 4138TIP3    H133905   0.522   6.635  10.958  0.2859  0.5828  0.6044
 4138TIP3    H233906   0.584   6.500  10.990  1.1411  0.8281  0.0232
 4139TIP3   OH233907   5.562   2.059  15.604  0.7164  0.0812  0.2113
 4139TIP3    H133908   5.539   2.061  15.511  2.6266 -5.4532 -0.7337
 4139TIP3    H233909   5.489   2.014  15.646  0.7753  0.7505  1.0514
 4140TIP3   OH233910   2.876   3.699  13.068  0.4666  0.1462  0.2858
 4140TIP3    H133911   2.927   3.755  13.010 -0.7745  1.1610  0.1481
 4140TIP3    H233912   2.787   3.702  13.033  0.6202 -3.2812 -0.7624
 4141TIP3   OH233913   1.210   6.077   3.433 -0.0953  0.2106 -0.3896
 4141TIP3    H133914   1.270   6.070   3.507  1.4678  1.3829 -1.4686
 4141TIP3    H233915   1.223   5.996   3.384  0.5522  0.4140 -0.5620
 4142TIP3   OH233916   5.416   2.201   4.827 -0.3001  0.0968  0.4186
 4142TIP3    H133917   5.333   2.163   4.799 -0.8906  1.1581  0.6325
 4142TIP3    H233918   5.482   2.158   4.775 -1.1494  0.4008 -0.9616
 4143TIP3   OH233919   0.502   4.049  15.180 -0.1757  0.5202  0.0040
 4143TIP3    H133920   0.435   4.118  15.180  1.1642  1.8934 -0.7501
 4143TIP3    H233921   0.584   4.096  15.163  0.9405 -1.1489  0.5314
 4144TIP3   OH233922   6.800   5.625   0.479 -0.1805  0.6938  0.5497
 4144TIP3    H133923   6.708   5.618   0.455  0.5858 -0.1760 -2.5531
 4144TIP3    H233924   6.832   5.703   0.433  0.9235  0.1734  0.3976
 4145TIP3   OH233925   2.873   2.343  17.109  0.6405 -0.6471 -0.0009
 4145TIP3    H133926   2.963   2.376  17.101 -0.4060  1.9164 -5.3899
 4145TIP3    H233927   2.826   2.412  17.156  0.6337  0.3627 -1.4413
 4146TIP3   OH233928   6.471   0.527  10.175 -0.1792  0.6887  0.4587
 4146TIP3    H133929   6.424   0.538  10.258 -0.7292 -0.9761  0.3947
 4146TIP3    H233930   6.461   0.435  10.154  1.0182  0.8286 -0.8464
 4147TIP3   OH233931   5.084   5.923  12.708  0.9227  0.0853  0.3461
 4147TIP3    H133932   5.054   5.991  12.768 -2.9955 -0.5119 -0.6321
 4147TIP3    H233933   5.145   5.967  12.648 -0.4636  2.4159  0.5594
 4148TIP3   OH233934   1.442   5.907   0.230  0.5950 -0.2553 -0.3606
 4148TIP3    H133935   1.397   5.982   0.269 -0.0272 -0.6872 -0.2448
 4148TIP3    H233936   1.376   5.838   0.224  1.2085 -0.8693 -0.2848
 4149TIP3   OH233937   2.046   1.333  15.645  0.5167 -0.1162 -0.0506
 4149TIP3    H133938   1.981   1.392  15.606  0.1817 -0.6547 -0.3168
 4149TIP3    H233939   1.999   1.289  15.716  1.5175  1.9625  2.0403
 4150TIP3   OH233940   1.065   2.051   5.849  0.4401 -0.1235 -0.5546
 4150TIP3    H133941   1.070   1.989   5.776  0.2512  0.2695 -0.9077
 4150TIP3    H233942   1.123   2.015   5.916  2.4212  0.6387 -1.7756
 4151TIP3   OH233943   4.786   5.939   6.001  0.1623  0.2134 -0.6855
 4151TIP3    H133944   4.763   5.868   5.942  1.7825 -0.0174 -1.0844
 4151TIP3    H233945   4.759   5.908   6.088  1.4764 -1.2244 -0.7459
 4152TIP3   OH233946   2.241   0.183   2.887 -0.1015 -0.6768  0.2546
 4152TIP3    H133947   2.272   0.239   2.816 -0.7970  0.3885  0.7781
 4152TIP3    H233948   2.305   0.195   2.957 -0.7202  0.1783  0.6934
 4153TIP3   OH233949   3.969   3.188   5.010 -0.3225  0.0204 -0.6374
 4153TIP3    H133950   3.887   3.207   5.057 -0.9106 -1.2515 -1.1031
 4153TIP3    H233951   4.035   3.181   5.079 -0.7406  0.3458 -0.1929
 4154TIP3   OH233952   2.633   0.905   5.445  0.3164 -0.1914  0.0500
 4154TIP3    H133953   2.663   0.996   5.445 -1.5237  0.5144  2.3946
 4154TIP3    H233954   2.617   0.885   5.537 -0.7945 -2.3997 -0.5535
 4155TIP3   OH233955   6.010   4.839  15.434  0.0553 -0.1312 -0.6348
 4155TIP3    H133956   5.944   4.884  15.487  0.3610  2.5508 -2.3152
 4155TIP3    H233957   5.961   4.771  15.387 -1.1410  0.5632 -0.4400
 4156TIP3   OH233958   3.950   5.252  12.653  0.1593  0.1415  0.5537
 4156TIP3    H133959   3.901   5.182  12.697  1.7731 -0.5337  1.3616
 4156TIP3    H233960   4.028   5.208  12.618 -0.6111  0.8413 -2.2749
 4157TIP3   OH233961   4.841   3.298   2.895 -0.2682 -0.7640  0.2469
 4157TIP3    H133962   4.921   3.340   2.864 -0.7989  0.5171  0.5202
 4157TIP3    H233963   4.796   3.270   2.815 -0.0480 -0.5166  0.0353
 4158TIP3   OH233964   2.197   5.410   4.165 -0.0914  0.0554 -0.4561
 4158TIP3    H133965   2.110   5.432   4.134 -0.8230 -0.1437  1.3666
 4158TIP3    H233966   2.231   5.491   4.203  0.9422  0.3963 -2.0013
 4159TIP3   OH233967   1.958   2.325  15.041  0.5719 -0.6148 -0.2047
 4159TIP3    H133968   1.901   2.310  15.117 -1.2122  1.6926 -0.9600
 4159TIP3    H233969   2.040   2.357  15.079 -0.3705  0.7384  0.7975
 4160TIP3   OH233970   2.561   2.700  14.435 -0.5480  0.4617 -0.1755
 4160TIP3    H133971   2.570   2.605  14.431 -0.3335  0.3680  1.5731
 4160TIP3    H233972   2.543   2.718  14.527 -0.5105  2.1317 -0.4624
 4161TIP3   OH233973   3.367   6.321  15.304 -0.0756  0.5497  0.3612
 4161TIP3    H133974   3.344   6.383  15.374  0.6148  0.2617  0.8571
 4161TIP3    H233975   3.406   6.247  15.350 -0.0227  0.1557 -0.3048
 4162TIP3   OH233976   0.436   3.015  11.290  0.1411 -0.4221 -0.4281
 4162TIP3    H133977   0.401   3.087  11.342  0.3100 -0.8655  0.3201
 4162TIP3    H233978   0.470   3.056  11.210  1.7125  0.5647  0.6859
 4163TIP3   OH233979   5.881   3.003  11.775  0.0295  0.3580  0.4658
 4163TIP3    H133980   5.924   3.031  11.694  0.5898 -1.5363  0.0361
 4163TIP3    H233981   5.875   2.907  11.766 -2.3734  0.3474  1.4735
 4164TIP3   OH233982   0.380   1.486   5.549  0.2113  0.2529 -0.3715
 4164TIP3    H133983   0.320   1.416   5.524  0.8858  0.0721 -1.5569
 4164TIP3    H233984   0.464   1.460   5.512  0.4602  1.7070 -0.9071
 4165TIP3   OH233985   1.953   6.527   0.570 -0.1734 -0.6342  0.3508
 4165TIP3    H133986   1.989   6.581   0.640 -1.6853  0.2422  0.5011
 4165TIP3    H233987   1.871   6.570   0.546  0.2587 -0.9380 -1.9278
 4166TIP3   OH233988   5.324   4.550  16.514  0.0174 -0.1169  0.3966
 4166TIP3    H133989   5.369   4.525  16.595  1.0693  1.2387  0.2710
 4166TIP3    H233990   5.271   4.625  16.539  0.1623  0.1573 -0.1077
 4167TIP3   OH233991   6.775   3.920  13.223 -0.0988  0.4892 -0.7638
 4167TIP3    H133992   6.694   3.966  13.246 -0.3681 -0.5079  0.3772
 4167TIP3    H233993   6.758   3.885  13.135 -1.0587 -0.0361 -0.3836
 4168TIP3   OH233994   5.705   5.423   1.135 -0.4548  0.0393 -0.6582
 4168TIP3    H133995   5.763   5.469   1.075 -0.0158  0.5005  0.0960
 4168TIP3    H233996   5.744   5.437   1.222 -1.7537  0.4707 -0.1101
 4169TIP3   OH233997   4.111   4.755   1.242 -0.0218  0.4607  0.5042
 4169TIP3    H133998   4.113   4.704   1.161  1.3359 -0.0792  0.8537
 4169TIP3    H233999   4.160   4.834   1.221  2.1595 -0.5911  1.3381
 4170TIP3   OH234000   1.969   1.853  12.366 -0.4030  0.1125 -0.3820
 4170TIP3    H134001   2.045   1.894  12.406  1.6379 -3.7136  0.1566
 4170TIP3    H234002   2.003   1.810  12.287 -1.9773 -1.6431 -0.1818
 4171TIP3   OH234003   1.282   2.888   4.150 -0.2982  0.0241 -0.4634
 4171TIP3    H134004   1.258   2.940   4.227  0.1469 -0.4165 -0.0175
 4171TIP3    H234005   1.250   2.800   4.170  1.2657 -0.4807 -0.0377
 4172TIP3   OH234006   1.814   2.918  14.455  0.0659 -0.3547 -0.0187
 4172TIP3    H134007   1.771   3.003  14.465  0.8198  0.1514 -0.8928
 4172TIP3    H234008   1.881   2.917  14.523 -0.4056 -0.5539  0.4467
 4173TIP3   OH234009   4.047   3.010   2.331 -0.0942 -0.3230  0.2640
 4173TIP3    H134010   4.084   3.090   2.368 -0.6166 -0.4709  1.1259
 4173TIP3    H234011   3.953   3.028   2.322 -0.0844 -0.5329 -0.3644
 4174TIP3   OH234012   4.695   4.962   2.794  0.6872  0.5228 -1.4054
 4174TIP3    H134013   4.754   4.891   2.769  0.8924 -0.3903  1.3612
 4174TIP3    H234014   4.630   4.965   2.724  1.0791 -1.9208 -1.9501
 4175TIP3   OH234015   0.106   4.278   2.790  0.2901 -0.2792  0.1848
 4175TIP3    H134016   0.070   4.341   2.728 -0.4991 -1.4361 -0.5671
 4175TIP3    H234017   0.194   4.259   2.756  1.1665  1.4882  1.2525
 4176TIP3   OH234018   6.174   1.746   1.637  0.3939 -0.3345  0.5144
 4176TIP3    H134019   6.101   1.771   1.581  0.6361 -0.3502  0.1935
 4176TIP3    H234020   6.154   1.656   1.664 -0.6070  0.2623  1.8717
 4177TIP3   OH234021   2.814   1.813  11.951  0.2819 -0.4207 -0.1092
 4177TIP3    H134022   2.822   1.719  11.969  0.9008 -0.1458  1.1214
 4177TIP3    H234023   2.876   1.855  12.010  1.0605  0.6840 -1.6533
 4178TIP3   OH234024   4.478   4.071   0.316  0.9789 -0.0117 -0.5720
 4178TIP3    H134025   4.556   4.035   0.272  0.6349 -0.2982 -0.9572
 4178TIP3    H234026   4.436   4.125   0.249  0.6091 -0.2144 -0.5068
 4179TIP3   OH234027   4.554   6.208   2.695  0.7237  0.7161  0.0798
 4179TIP3    H134028   4.465   6.207   2.730  0.3986 -0.4550 -0.7311
 4179TIP3    H234029   4.583   6.299   2.708 -0.3337  0.9628  0.9453
 4180TIP3   OH234030   3.495   0.905   5.847  0.3285  0.0808 -0.0699
 4180TIP3    H134031   3.446   0.856   5.781  1.6170  0.1287 -1.0899
 4180TIP3    H234032   3.427   0.942   5.904 -0.7457 -1.2100 -0.4593
 4181TIP3   OH234033   1.846   2.176   6.589 -0.2321 -0.2593  0.4029
 4181TIP3    H134034   1.920   2.128   6.552 -1.0706 -0.7630 -0.6843
 4181TIP3    H234035   1.807   2.116   6.652  1.6828  0.8927  2.8728
 4182TIP3   OH234036   1.090   4.827  13.678 -0.4490  0.3095  0.3016
 4182TIP3    H134037   1.044   4.804  13.759 -0.4823  0.6374  0.3775
 4182TIP3    H234038   1.021   4.862  13.622 -0.8275 -1.7925 -0.6468
 4183TIP3   OH234039   1.567   5.816  15.542 -0.6144  0.2713  0.3050
 4183TIP3    H134040   1.623   5.853  15.611 -1.4076  1.7807  0.1858
 4183TIP3    H234041   1.578   5.875  15.468 -1.4571 -0.0727 -0.1104
 4184TIP3   OH234042   2.517   5.098   2.629 -0.3863  0.3229  0.2930
 4184TIP3    H134043   2.507   5.048   2.710  0.8200  1.1494  0.9863
 4184TIP3    H234044   2.558   5.180   2.657  1.3573  0.0574 -1.3263
 4185TIP3   OH234045   5.956   6.628   3.437 -0.6380 -0.5347 -0.1642
 4185TIP3    H134046   6.011   6.646   3.513  0.7277 -1.9438 -0.7709
 4185TIP3    H234047   5.885   6.692   3.443 -0.0629 -0.0130  1.7754
 4186TIP3   OH234048   5.768   4.369   2.916  0.2133 -0.0755  0.0490
 4186TIP3    H134049   5.750   4.395   2.826 -1.5984  0.3622  0.4932
 4186TIP3    H234050   5.863   4.371   2.923  0.3325  2.2242 -1.2054
 4187TIP3   OH234051   5.636   3.277  16.296  0.2351  0.3365  0.0248
 4187TIP3    H134052   5.636   3.369  16.323  1.1090 -0.2606  2.2808
 4187TIP3    H234053   5.564   3.270  16.234 -1.3175  2.0894  1.5306
 4188TIP3   OH234054   4.748   1.580  14.079  0.1714  0.3283  0.7662
 4188TIP3    H134055   4.825   1.628  14.048  0.1159 -0.2447 -0.3105
 4188TIP3    H234056   4.713   1.538  14.000 -1.9754  1.5708  0.9611
 4189TIP3   OH234057   1.328   2.350  12.415 -0.3290 -1.0003  0.1954
 4189TIP3    H134058   1.292   2.392  12.338  0.4895  1.8862  1.2606
 4189TIP3    H234059   1.400   2.296  12.382 -1.3303 -1.4911 -1.2385
 4190TIP3   OH234060   0.489   1.479  15.881 -0.1639 -0.0502 -0.4177
 4190TIP3    H134061   0.439   1.536  15.940 -0.8683 -0.7174 -0.3488
 4190TIP3    H234062   0.472   1.514  15.794  0.4555  0.6221 -0.2767
 4191TIP3   OH234063   2.543   1.716   1.208  0.0423  0.0555  0.4635
 4191TIP3    H134064   2.519   1.687   1.120  0.6985 -0.3362  0.4128
 4191TIP3    H234065   2.625   1.671   1.227  0.4156  0.8987  0.8881
 4192TIP3   OH234066   4.211   0.243  12.670 -0.1855  0.6856 -0.3405
 4192TIP3    H134067   4.134   0.203  12.710 -1.6836  3.2136 -0.5121
 4192TIP3    H234068   4.265   0.168  12.644 -1.9652 -1.1587  0.9019
 4193TIP3   OH234069   5.560   2.837  13.852  0.8806  0.2590  0.0966
 4193TIP3    H134070   5.549   2.932  13.852  0.0826  0.1799 -1.1032
 4193TIP3    H234071   5.586   2.816  13.763 -2.4400 -1.0011 -0.6961
 4194TIP3   OH234072   1.305   2.537  14.715 -0.7931 -0.4071 -0.3269
 4194TIP3    H134073   1.252   2.508  14.790  1.8278 -2.2372  0.9639
 4194TIP3    H234074   1.351   2.615  14.746  0.6020 -1.3958  0.1928
 4195TIP3   OH234075   5.246   2.598  16.674 -0.0581 -0.0938  0.3356
 4195TIP3    H134076   5.218   2.595  16.765  0.8828 -0.4824  0.6298
 4195TIP3    H234077   5.213   2.518  16.635 -2.9915  1.3780 -0.4842
 4196TIP3   OH234078   3.487   1.999  12.939 -0.1700  0.2435  0.0802
 4196TIP3    H134079   3.569   1.997  12.988 -0.0065 -0.8899 -0.2155
 4196TIP3    H234080   3.473   1.908  12.911 -0.6435  0.7082 -1.3091
 4197TIP3   OH234081   0.650   6.742  15.937 -0.3465  0.0852  0.0076
 4197TIP3    H134082   0.620   6.747  16.028 -1.7097 -0.0230 -0.4046
 4197TIP3    H234083   0.569   6.731  15.887  0.0913  2.9962 -1.4895
 4198TIP3   OH234084   5.780   4.709   0.175  0.0175  0.3595 -0.5965
 4198TIP3    H134085   5.778   4.778   0.109  0.6017 -0.3836 -1.4160
 4198TIP3    H234086   5.718   4.644   0.143  0.9618 -0.4174 -0.9008
 4199TIP3   OH234087   5.763   2.654   0.294 -0.2461 -0.6231 -0.3162
 4199TIP3    H134088   5.704   2.699   0.234 -1.2375  0.6638  1.4923
 4199TIP3    H234089   5.845   2.704   0.289 -1.0083  0.8440  0.9043
 4200TIP3   OH234090   5.661   0.329   2.900  0.0844  0.0862 -0.3801
 4200TIP3    H134091   5.583   0.274   2.893 -0.1479  0.0440  1.7375
 4200TIP3    H234092   5.733   0.267   2.914  0.5141  0.1345 -2.1560
 4201TIP3   OH234093   1.798   3.602   4.044  0.0107  0.6192  0.4121
 4201TIP3    H134094   1.814   3.525   4.099  3.8939  1.4878  0.8178
 4201TIP3    H234095   1.783   3.673   4.105  0.2360  0.8408  0.2142
 4202TIP3   OH234096   3.919   5.801   6.036 -0.4292  0.1579  0.0391
 4202TIP3    H134097   3.952   5.886   6.009 -0.0902  0.2905  0.8505
 4202TIP3    H234098   3.969   5.738   5.984  3.0234  0.2025  2.9554
 4203TIP3   OH234099   2.180   1.619  11.807  0.6362 -0.2961  0.6015
 4203TIP3    H134100   2.227   1.656  11.882  1.7565  2.0078 -1.1037
 4203TIP3    H234101   2.249   1.589  11.748  0.0823  2.3655 -1.5723
 4204TIP3   OH234102   0.200   1.564  13.032  0.9107 -0.2679  0.3396
 4204TIP3    H134103   0.155   1.551  12.948 -0.0321  1.8281  0.4636
 4204TIP3    H234104   0.289   1.591  13.008  1.0247 -0.8905  0.0473
 4205TIP3   OH234105   5.766   3.335   4.669 -0.1949  0.2263  0.5810
 4205TIP3    H134106   5.792   3.278   4.597 -0.9329 -0.9682  1.2152
 4205TIP3    H234107   5.848   3.368   4.705  0.2381 -0.2685  0.0633
 4206TIP3   OH234108   1.616   4.552  13.598 -0.2562  0.1024  0.1944
 4206TIP3    H134109   1.566   4.504  13.664  0.5287 -0.7292  0.2176
 4206TIP3    H234110   1.621   4.492  13.524  0.8421  0.0795  0.2655
 4207TIP3   OH234111   2.249   6.414  11.257 -0.2876  0.3942  0.6413
 4207TIP3    H134112   2.191   6.395  11.330 -0.9480 -0.8441 -0.1665
 4207TIP3    H234113   2.191   6.417  11.181  0.7389 -1.6637 -0.3110
 4208TIP3   OH234114   6.362   6.612   5.127 -0.3586 -0.1594 -0.0850
 4208TIP3    H134115   6.349   6.697   5.084  1.6113 -0.3777 -1.2315
 4208TIP3    H234116   6.455   6.611   5.149 -0.4432 -1.8570  0.2791
 4209TIP3   OH234117   3.830   4.430   6.745 -0.2897  0.1871 -0.0990
 4209TIP3    H134118   3.851   4.392   6.660  0.2476  0.8947 -0.2964
 4209TIP3    H234119   3.757   4.378   6.778 -1.9072  1.1602 -1.9307
 4210TIP3   OH234120   3.970   2.248  13.140 -0.2436  0.0463 -0.8156
 4210TIP3    H134121   3.878   2.266  13.161 -0.2838  1.0133 -1.7494
 4210TIP3    H234122   4.019   2.287  13.213 -0.5115  0.8108 -1.0397
 4211TIP3   OH234123   4.196   6.705   0.432  0.2889  0.1882 -0.4262
 4211TIP3    H134124   4.165   6.772   0.372  0.1745 -1.0512 -1.8235
 4211TIP3    H234125   4.117   6.668   0.471  0.2095 -0.4016 -1.1149
 4212TIP3   OH234126   6.485   4.450   3.031 -0.0928 -0.1634  0.7677
 4212TIP3    H134127   6.414   4.402   3.075  2.3332 -1.7270  3.2884
 4212TIP3    H234128   6.524   4.386   2.972  1.1406 -0.3336  1.7370
 4213TIP3   OH234129   1.856   5.284  17.203  0.2983  0.0044 -0.3456
 4213TIP3    H134130   1.768   5.319  17.218  0.7396  0.3083  2.0573
 4213TIP3    H234131   1.905   5.357  17.165 -0.0084  0.4973  0.1801
 4214TIP3   OH234132   0.673   0.668   3.354 -0.1866 -0.8108  0.3104
 4214TIP3    H134133   0.635   0.633   3.434  1.1674 -1.0253  0.8809
 4214TIP3    H234134   0.663   0.763   3.361  0.4488 -0.7930  1.0097
 4215TIP3   OH234135   5.909   0.421   3.110 -0.8543 -0.6034  0.1344
 4215TIP3    H134136   5.864   0.498   3.075 -0.3166 -0.4582 -0.2526
 4215TIP3    H234137   5.967   0.393   3.040  0.0578 -0.4633  0.8151
 4216TIP3   OH234138   3.000   4.159   3.626  0.3525  0.1644  0.1706
 4216TIP3    H134139   3.022   4.252   3.625  0.1666  0.2291  0.9608
 4216TIP3    H234140   3.062   4.118   3.566 -0.9124  1.0761 -1.8600
 4217TIP3   OH234141   2.055   2.393   2.462  0.0490  0.5131  0.2720
 4217TIP3    H134142   1.988   2.456   2.435  0.2081  1.0808  1.1771
 4217TIP3    H234143   2.009   2.329   2.516  0.1697  0.6986  0.5944
 4218TIP3   OH234144   5.006   1.894  14.656 -0.0121  0.0989  0.3590
 4218TIP3    H134145   4.947   1.952  14.705  1.3047 -0.2653  2.5504
 4218TIP3    H234146   5.073   1.869  14.720  0.8133 -1.9257 -1.1790
 4219TIP3   OH234147   2.366   1.031   4.767 -0.2116 -0.0456 -0.0698
 4219TIP3    H134148   2.438   0.989   4.815 -0.5768 -0.7843 -0.1446
 4219TIP3    H234149   2.405   1.061   4.685  0.7452  2.4384  1.1904
 4220TIP3   OH234150   6.653   6.143  16.244  0.1566 -0.1309  0.7361
 4220TIP3    H134151   6.620   6.222  16.287 -1.3878 -0.7964  0.8501
 4220TIP3    H234152   6.677   6.172  16.156 -0.0792  0.5308  0.8846
 4221TIP3   OH234153   2.943   2.475  15.880 -0.0492  0.1602 -0.2922
 4221TIP3    H134154   2.934   2.416  15.805  1.2604  0.0973 -0.4294
 4221TIP3    H234155   2.990   2.422  15.945 -0.2990  0.5376  0.2004
 4222TIP3   OH234156   3.639   4.622   6.017 -0.2048  0.6169  0.5650
 4222TIP3    H134157   3.555   4.647   6.055 -0.1073  1.8580 -0.0092
 4222TIP3    H234158   3.688   4.584   6.090 -1.3271 -0.3314  0.8588
 4223TIP3   OH234159   2.258   3.539  15.990 -0.2694 -0.3899 -0.7114
 4223TIP3    H134160   2.309   3.535  15.909 -0.3443 -0.5064 -0.7540
 4223TIP3    H234161   2.313   3.496  16.056 -0.9573 -1.9505 -1.1027
 4224TIP3   OH234162   0.935   3.970   3.343 -0.3508 -0.6822 -0.0146
 4224TIP3    H134163   0.913   4.031   3.272 -0.9801  0.1373  0.8698
 4224TIP3    H234164   0.975   4.025   3.410 -1.7647 -1.0751  1.1905
 4225TIP3   OH234165   1.038   6.238   4.797  0.0575  0.5976  0.5952
 4225TIP3    H134166   1.112   6.231   4.736 -0.5963  0.1809 -0.1817
 4225TIP3    H234167   1.065   6.305   4.860  0.3819  1.7603 -0.7138
 4226TIP3   OH234168   3.231   0.581   2.759  0.6818 -0.1035  0.2569
 4226TIP3    H134169   3.150   0.540   2.729  2.2304 -3.2064 -0.0437
 4226TIP3    H234170   3.281   0.510   2.799  3.5803  1.4877 -0.2548
 4227TIP3   OH234171   4.432   5.442   0.007 -0.5099  0.1649  0.7224
 4227TIP3    H134172   4.426   5.377   0.077 -2.7428 -0.4136  0.0797
 4227TIP3    H234173   4.482   5.514   0.046 -0.4254 -0.7498  2.4088
 4228TIP3   OH234174   1.489   5.367   3.684  0.1485  0.7893 -0.0092
 4228TIP3    H134175   1.413   5.423   3.699  0.1835  0.7726  0.2239
 4228TIP3    H234176   1.514   5.336   3.771 -1.3330 -1.5326 -0.3175
 4229TIP3   OH234177   0.959   3.686   3.413 -0.6272  0.1416 -0.0810
 4229TIP3    H134178   1.029   3.697   3.478 -1.7704  1.7115  0.9780
 4229TIP3    H234179   0.944   3.774   3.378  0.8453 -0.8435 -3.5609
 4230TIP3   OH234180   5.773   0.126   2.289  0.5194  0.1779  0.2042
 4230TIP3    H134181   5.778   0.030   2.290 -1.1613  0.0471  1.6305
 4230TIP3    H234182   5.781   0.150   2.197 -0.1240 -1.4268 -0.3085
 4231TIP3   OH234183   1.025   6.376   0.337 -0.0355  0.1617  0.3656
 4231TIP3    H134184   0.971   6.315   0.387  0.4344 -0.0858  0.5695
 4231TIP3    H234185   0.975   6.390   0.256 -0.4449 -0.0027  0.5850
 4232TIP3   OH234186   2.700   3.354   3.205  0.5697 -0.6235  0.2145
 4232TIP3    H134187   2.731   3.444   3.199 -0.2641 -0.3919 -0.7582
 4232TIP3    H234188   2.709   3.319   3.117  0.7783 -1.4648  0.5575
 4233TIP3   OH234189   0.954   0.204  11.202 -0.5542  0.0323 -0.3003
 4233TIP3    H134190   0.989   0.116  11.187 -0.1393  0.3443 -1.2929
 4233TIP3    H234191   1.024   0.250  11.249 -0.5297  0.0031 -0.3081
 4234TIP3   OH234192   1.178   3.452   4.672  0.0800 -0.0209 -0.7965
 4234TIP3    H134193   1.088   3.484   4.679  0.9395  2.3319  0.7295
 4234TIP3    H234194   1.178   3.370   4.722 -1.3088 -0.3358 -1.2718
 4235TIP3   OH234195   6.531   3.584   3.380 -0.4329 -0.2649 -1.0155
 4235TIP3    H134196   6.470   3.581   3.306 -1.7403  0.6700 -0.0205
 4235TIP3    H234197   6.569   3.672   3.376 -1.5802  0.3341  0.1865
 4236TIP3   OH234198   3.594   0.974   4.178  0.2850  0.2361  0.1711
 4236TIP3    H134199   3.599   0.933   4.264  0.4583 -1.9772 -0.8272
 4236TIP3    H234200   3.671   1.031   4.174  0.4806  0.0748  1.3204
 4237TIP3   OH234201   6.298   2.355  16.529 -0.3925 -0.1429 -0.8057
 4237TIP3    H134202   6.237   2.290  16.564 -0.6116  0.2865 -0.3767
 4237TIP3    H234203   6.306   2.333  16.437  1.6334 -2.4427 -0.1821
 4238TIP3   OH234204   6.069   2.141  14.402  0.5743  0.2508 -0.3051
 4238TIP3    H134205   6.045   2.048  14.407 -0.0813  0.4184 -0.1981
 4238TIP3    H234206   6.112   2.149  14.317  2.3823 -0.5241  0.4866
 4239TIP3   OH234207   5.049   1.053   5.846 -0.1097  0.3993  0.3489
 4239TIP3    H134208   5.041   1.086   5.936 -1.3276  0.6322  0.1736
 4239TIP3    H234209   5.084   1.127   5.796  0.7921  0.1986  0.6550
 4240TIP3   OH234210   1.180   1.892   0.976 -0.1702 -0.0188  0.0278
 4240TIP3    H134211   1.271   1.878   1.004 -0.1074  1.1859  0.4969
 4240TIP3    H234212   1.183   1.886   0.880  1.2037  3.7456 -0.3285
 4241TIP3   OH234213   2.441   1.676   3.896 -0.0607 -0.2763  0.1122
 4241TIP3    H134214   2.435   1.722   3.812  0.0388 -1.4800 -0.5867
 4241TIP3    H234215   2.496   1.732   3.950  0.0996  0.3980 -0.7169
 4242TIP3   OH234216   6.761   5.214  15.860 -0.1423  0.5558  0.1018
 4242TIP3    H134217   6.830   5.177  15.804  0.2732 -0.4048  1.2040
 4242TIP3    H234218   6.806   5.276  15.917 -0.1759 -0.0608  0.8146
 4243TIP3   OH234219   4.527   1.888  11.565  0.6642  0.2027 -0.4664
 4243TIP3    H134220   4.513   1.908  11.657 -0.0769 -1.8381 -0.0764
 4243TIP3    H234221   4.597   1.822  11.566 -2.1966 -3.1014 -0.9101
 4244TIP3   OH234222   0.669   5.553   5.187 -0.0151  0.3246  0.1708
 4244TIP3    H134223   0.600   5.618   5.200 -2.0458 -1.1699 -2.0191
 4244TIP3    H234224   0.741   5.601   5.148 -0.3509  1.7171  1.2092
 4245TIP3   OH234225   2.237   0.673   6.471  0.6262 -0.1106 -0.3647
 4245TIP3    H134226   2.153   0.628   6.464  0.9978 -1.0636  1.0654
 4245TIP3    H234227   2.293   0.628   6.408  0.8414 -1.3578  0.6724
 4246TIP3   OH234228   3.793   2.471   5.627 -0.0672  0.2302 -0.3503
 4246TIP3    H134229   3.804   2.465   5.722 -0.7410 -0.1903 -0.2863
 4246TIP3    H234230   3.714   2.419   5.609  0.7179 -0.6712 -1.2835
 4247TIP3   OH234231   5.937   0.833   1.545 -0.6451 -0.5787 -0.2838
 4247TIP3    H134232   5.873   0.865   1.607  0.3831  0.0999  0.4676
 4247TIP3    H234233   6.017   0.823   1.596  0.4652  0.8165 -1.6297
 4248TIP3   OH234234   4.250   1.390  12.515 -0.5527  0.6493  0.0290
 4248TIP3    H134235   4.175   1.396  12.575 -0.4295 -1.6831  0.5177
 4248TIP3    H234236   4.324   1.367  12.571  0.4703  2.3381 -0.5375
 4249TIP3   OH234237   5.398   0.723  15.776 -0.1134  0.7209  0.0462
 4249TIP3    H134238   5.465   0.792  15.774  1.6852 -0.8177  2.1214
 4249TIP3    H234239   5.429   0.659  15.711 -0.1504  0.5013  0.2447
 4250TIP3   OH234240   5.592   3.712  14.273  0.6049  0.3407  0.0918
 4250TIP3    H134241   5.652   3.759  14.216  2.0344 -0.1152  1.1488
 4250TIP3    H234242   5.507   3.754  14.259  1.4872  2.1001 -0.2466
 4251TIP3   OH234243   1.207   0.377   1.118 -0.0976 -0.1369 -0.0663
 4251TIP3    H134244   1.278   0.318   1.140  0.7212  0.1218 -1.8708
 4251TIP3    H234245   1.152   0.378   1.197  0.7381 -1.9808  0.6062
 4252TIP3   OH234246   2.526   0.130   3.447  0.2669  0.2003 -0.9474
 4252TIP3    H134247   2.524   0.214   3.400  3.0918  0.4880 -0.6920
 4252TIP3    H234248   2.531   0.154   3.539 -1.0186 -0.3322 -0.7091
 4253TIP3   OH234249   4.509   6.767   3.611 -0.2359 -0.5475 -0.2862
 4253TIP3    H134250   4.527   6.691   3.556  1.2961  0.9563 -1.9962
 4253TIP3    H234251   4.524   6.736   3.701 -0.4466 -2.4311 -0.8582
 4254TIP3   OH234252   0.453   4.673   5.280 -0.0687 -0.1911  0.3520
 4254TIP3    H134253   0.507   4.666   5.202  0.0376 -1.1690  0.5005
 4254TIP3    H234254   0.379   4.729   5.253 -0.1942 -0.7628 -0.5352
 4255TIP3   OH234255   6.492   4.820  11.261 -0.1672  0.4444 -0.0033
 4255TIP3    H134256   6.554   4.816  11.188 -0.9631 -2.2164 -0.6622
 4255TIP3    H234257   6.406   4.824  11.219 -0.5572  1.0623  0.8369
 4256TIP3   OH234258   2.159   2.607   4.947 -0.0739 -0.5139  0.3214
 4256TIP3    H134259   2.091   2.559   4.900 -0.4366 -0.9785  1.2905
 4256TIP3    H234260   2.117   2.635   5.028  0.1363  1.4714 -0.2222
 4257TIP3   OH234261   5.356   3.956  11.649  0.0462 -0.0854  0.2201
 4257TIP3    H134262   5.360   3.881  11.707 -0.1491 -0.2130  0.0674
 4257TIP3    H234263   5.314   3.924  11.569  1.0195 -0.1130 -0.3021
 4258TIP3   OH234264   6.235   5.232   3.559  0.1880  0.3320 -0.4591
 4258TIP3    H134265   6.190   5.235   3.475 -1.0756  1.8222  0.2131
 4258TIP3    H234266   6.304   5.166   3.548 -1.6326 -1.4457 -1.8043
 4259TIP3   OH234267   5.460   2.900  13.554  0.4328  0.3446  0.3813
 4259TIP3    H134268   5.484   2.808  13.548  0.5960  0.3590  0.8034
 4259TIP3    H234269   5.536   2.947  13.521 -0.2527  0.2908 -1.4366
 4260TIP3   OH234270   5.389   1.970   0.705  0.4106  0.0710  0.2538
 4260TIP3    H134271   5.470   1.977   0.756 -0.2927  0.2154  1.3815
 4260TIP3    H234272   5.354   2.059   0.704 -0.1238 -0.1374  0.4362
 4261TIP3   OH234273   6.366   6.466  13.195  0.0291 -0.3372  0.4693
 4261TIP3    H134274   6.346   6.482  13.287  2.9282  0.4655  1.0590
 4261TIP3    H234275   6.294   6.507  13.148 -1.0900 -0.0119  2.3330
 4262TIP3   OH234276   1.834   4.976   4.927 -0.3861 -0.3555 -0.2975
 4262TIP3    H134277   1.859   4.958   4.836 -1.4073 -0.6139 -0.5409
 4262TIP3    H234278   1.767   5.044   4.920  0.1890  0.2892  0.3286
 4263TIP3   OH234279   6.677   2.727  13.718  0.8137 -0.1329  0.3466
 4263TIP3    H134280   6.677   2.820  13.739 -2.7317 -0.0329  0.3908
 4263TIP3    H234281   6.721   2.721  13.633  1.2426  1.5315  0.4266
 4264TIP3   OH234282   0.053   1.884   5.995  0.1310 -0.0901 -0.1993
 4264TIP3    H134283   0.148   1.873   5.989  0.0646 -1.0234  0.3726
 4264TIP3    H234284   0.025   1.900   5.905  0.4766 -2.7458 -0.8357
 4265TIP3   OH234285   4.970   2.517   0.994 -0.0155 -0.5374 -0.0703
 4265TIP3    H134286   4.968   2.602   0.952  0.7140 -0.5976 -0.2284
 4265TIP3    H234287   4.894   2.471   0.958 -1.7163  0.7723  1.6049
 4266TIP3   OH234288   0.805   1.015  15.784 -0.6349 -0.6917 -0.7721
 4266TIP3    H134289   0.770   0.949  15.844  2.0098 -2.3000 -0.8184
 4266TIP3    H234290   0.837   1.085  15.840 -1.5157 -0.4421 -0.5723
 4267TIP3   OH234291   1.024   2.927  14.354  0.0476 -0.2972  0.1928
 4267TIP3    H134292   0.943   2.876  14.343 -0.0160 -0.2166  0.2846
 4267TIP3    H234293   1.077   2.877  14.416 -0.1027 -0.1484  0.4445
 4268TIP3   OH234294   0.493   0.043  14.117 -0.3425  0.4646 -0.3421
 4268TIP3    H134295   0.484   0.130  14.153  2.8502  0.7861 -0.0367
 4268TIP3    H234296   0.588   0.027  14.115 -0.7994 -3.1757  0.0701
 4269TIP3   OH234297   6.765   3.742   0.801  0.0145  0.2923 -0.3452
 4269TIP3    H134298   6.802   3.677   0.861 -0.5746  0.8381  0.6240
 4269TIP3    H234299   6.822   3.737   0.723  1.2626  0.1120  0.5462
 4270TIP3   OH234300   6.047   3.423   1.583 -0.1247 -0.6914  0.3607
 4270TIP3    H134301   5.962   3.414   1.539  0.2780 -0.0040 -0.5864
 4270TIP3    H234302   6.064   3.336   1.620 -1.5301 -0.6823  1.1243
 4271TIP3   OH234303   4.696   6.165   2.019 -0.0337  0.1746 -0.1946
 4271TIP3    H134304   4.645   6.094   1.980 -0.5861  1.2724 -1.5319
 4271TIP3    H234305   4.649   6.186   2.100 -1.1017  0.4128 -0.8470
 4272TIP3   OH234306   3.489   0.202   4.684 -0.2411  0.4476 -0.4293
 4272TIP3    H134307   3.575   0.232   4.654 -0.0003  1.5783  1.2900
 4272TIP3    H234308   3.505   0.113   4.716  0.2054  0.4922 -0.5132
 4273TIP3   OH234309   6.595   1.745   1.754  0.2484 -0.1319  0.0176
 4273TIP3    H134310   6.649   1.787   1.687 -0.1781 -0.0052 -0.2556
 4273TIP3    H234311   6.522   1.805   1.767  0.1578 -0.3149  0.3590
 4274TIP3   OH234312   5.910   3.808  16.661 -0.6101 -0.5485  0.2116
 4274TIP3    H134313   5.859   3.889  16.655 -1.5025 -1.1184  0.0071
 4274TIP3    H234314   5.948   3.810  16.749 -0.5086  0.1570  0.1538
 4275TIP3   OH234315   2.945   1.942  12.491 -0.1408 -0.3024  0.6275
 4275TIP3    H134316   2.984   1.999  12.556 -0.4028 -0.3151  0.7971
 4275TIP3    H234317   2.911   1.867  12.541 -1.8075  0.4567  0.6964
 4276TIP3   OH234318   0.291   2.798   6.586  0.0462  0.2975  0.3039
 4276TIP3    H134319   0.361   2.859   6.567  1.8349 -1.7787 -0.1656
 4276TIP3    H234320   0.335   2.715   6.603 -2.2322 -0.7970  1.3243
 4277TIP3   OH234321   6.622   1.246  13.895 -0.2176  0.0392 -0.0207
 4277TIP3    H134322   6.605   1.330  13.853  0.9360  1.4592  2.1576
 4277TIP3    H234323   6.677   1.199  13.832 -0.8166  0.9110 -1.2451
 4278TIP3   OH234324   5.416   5.784   0.403 -0.3484 -0.7167  0.4565
 4278TIP3    H134325   5.413   5.726   0.479 -2.4839  1.4587  2.2041
 4278TIP3    H234326   5.328   5.822   0.399 -0.7154 -1.5507 -3.8748
 4279TIP3   OH234327   1.413   2.424   2.039  0.6046  0.6239  0.1073
 4279TIP3    H134328   1.379   2.496   1.986 -0.3087 -0.0728 -0.2844
 4279TIP3    H234329   1.481   2.464   2.094  0.5431  1.6473 -0.5397
 4280TIP3   OH234330   2.652   5.687   5.757  0.1599 -0.1071 -0.3991
 4280TIP3    H134331   2.620   5.661   5.670 -0.6634 -0.8775  0.1147
 4280TIP3    H234332   2.678   5.604   5.798  0.9749  0.3007 -0.0671
 4281TIP3   OH234333   1.225   2.935  16.751 -0.1139  0.1810 -0.0734
 4281TIP3    H134334   1.267   2.951  16.835 -0.1517  0.5773 -0.1315
 4281TIP3    H234335   1.131   2.944  16.769 -0.0495  2.3267 -0.5864
 4282TIP3   OH234336   4.708   0.198   4.832 -0.6376  0.5782  0.5448
 4282TIP3    H134337   4.758   0.275   4.805 -2.6056  2.5601  2.2055
 4282TIP3    H234338   4.753   0.167   4.910  1.2598 -1.2379 -1.1343
 4283TIP3   OH234339   3.552   2.408  16.482  0.1768  0.2725 -0.2389
 4283TIP3    H134340   3.638   2.452  16.487  1.0622 -1.4651  0.8182
 4283TIP3    H234341   3.496   2.460  16.540  1.4825 -0.4841  1.8021
 4284TIP3   OH234342   2.909   6.339   1.105  0.2326 -0.1107  0.0532
 4284TIP3    H134343   2.979   6.289   1.148 -1.0314 -1.1098  1.0641
 4284TIP3    H234344   2.954   6.397   1.045  1.9012 -1.0887  0.2925
 4285TIP3   OH234345   4.870   3.257  14.878  0.0282  0.0585  0.3265
 4285TIP3    H134346   4.807   3.326  14.900 -0.1399 -0.4736  1.5846
 4285TIP3    H234347   4.901   3.280  14.790 -2.3857 -0.0336 -0.6080
 4286TIP3   OH234348   2.568   6.550   4.046  0.5775  0.5539  0.1881
 4286TIP3    H134349   2.615   6.627   4.015  0.6901  0.7760  0.8935
 4286TIP3    H234350   2.504   6.584   4.108  0.5552  0.0908  0.4249
 4287TIP3   OH234351   0.467   6.360  13.351 -0.2964 -0.4897  0.8770
 4287TIP3    H134352   0.543   6.414  13.329  0.2092 -1.4723  0.1495
 4287TIP3    H234353   0.394   6.423  13.356  0.4767  0.4126  1.2366
 4288TIP3   OH234354   5.447   4.750  17.191  0.3660 -0.5772  0.1221
 4288TIP3    H134355   5.449   4.727  17.284  0.3394 -1.9597 -0.2032
 4288TIP3    H234356   5.454   4.666  17.145 -2.1815 -0.1848 -1.1404
 4289TIP3   OH234357   6.720   1.652   5.345  0.0819 -0.6467  0.6847
 4289TIP3    H134358   6.763   1.582   5.393 -0.5361 -2.2522 -1.0067
 4289TIP3    H234359   6.683   1.610   5.268 -2.0515  1.1744  0.6087
 4290TIP3   OH234360   2.914   1.671   2.485  0.2441  0.0276  0.5638
 4290TIP3    H134361   2.904   1.713   2.400  0.7053  1.1252  1.0298
 4290TIP3    H234362   2.825   1.666   2.521  0.1556  0.3640  0.3870
 4291TIP3   OH234363   3.646   4.139  12.443  0.1949 -0.0839  0.3349
 4291TIP3    H134364   3.576   4.084  12.409  1.7393 -1.5537 -0.6695
 4291TIP3    H234365   3.602   4.207  12.493 -1.9777 -0.4009 -1.0293
 4292TIP3   OH234366   4.068   4.056   5.088  0.1431 -0.3909 -0.2914
 4292TIP3    H134367   4.150   4.095   5.056 -0.0651 -0.0951 -0.4717
 4292TIP3    H234368   4.084   3.962   5.086 -0.4990 -0.5344 -3.1012
 4293TIP3   OH234369   1.201   6.484  14.627 -0.2258  0.3606 -0.4648
 4293TIP3    H134370   1.237   6.409  14.580 -0.0325  1.0105 -1.3663
 4293TIP3    H234371   1.248   6.560  14.593 -0.6904  0.9422  0.1499
 4294TIP3   OH234372   0.312   6.255   5.787 -0.3122 -0.2769  0.2150
 4294TIP3    H134373   0.280   6.216   5.706 -1.3077 -1.2890  1.0565
 4294TIP3    H234374   0.376   6.320   5.759 -2.8231  1.6255 -1.5643
 4295TIP3   OH234375   2.877   5.155  13.965  0.0089 -0.4844 -0.0856
 4295TIP3    H134376   2.838   5.067  13.960 -0.7034 -0.1639 -0.3551
 4295TIP3    H234377   2.901   5.165  14.056  0.4377 -1.1070 -0.1259
 4296TIP3   OH234378   5.627   5.576   1.864 -0.3875 -0.8192  0.3735
 4296TIP3    H134379   5.544   5.612   1.831 -0.0379  0.0096  0.3563
 4296TIP3    H234380   5.693   5.613   1.806  0.1090 -0.4313  1.1708
 4297TIP3   OH234381   4.057   0.149   0.272  0.3179  0.1347  0.6642
 4297TIP3    H134382   4.116   0.223   0.289 -1.3823  1.9216 -0.7105
 4297TIP3    H234383   3.972   0.189   0.257 -0.5573 -2.0765 -0.8086
 4298TIP3   OH234384   5.094   5.366   3.453 -0.1842 -0.2528  0.0758
 4298TIP3    H134385   5.169   5.368   3.394  0.6760 -1.2701  1.0956
 4298TIP3    H234386   5.075   5.458   3.471  2.0415  0.0334  1.2784
 4299TIP3   OH234387   4.274   3.047  14.360 -0.0944 -0.2237 -0.5157
 4299TIP3    H134388   4.345   3.002  14.407 -1.2257 -2.6032 -0.9148
 4299TIP3    H234389   4.310   3.132  14.337  1.7722 -0.4215  1.4065
 4300TIP3   OH234390   2.827   6.431  14.282 -0.5101 -0.0909 -0.2546
 4300TIP3    H134391   2.750   6.385  14.316  0.8039 -1.8528  0.5332
 4300TIP3    H234392   2.860   6.482  14.356 -0.3731 -0.1169 -0.2966
 4301TIP3   OH234393   0.136   4.196  13.362  0.5449 -0.4682 -0.1566
 4301TIP3    H134394   0.161   4.288  13.370  0.0091 -0.2432 -0.8977
 4301TIP3    H234395   0.082   4.179  13.440  0.4535 -0.0864 -0.1328
 4302TIP3   OH234396   4.353   6.654   4.160 -0.1690  0.1788  0.0562
 4302TIP3    H134397   4.412   6.727   4.179  0.3327 -0.1554 -0.1852
 4302TIP3    H234398   4.266   6.687   4.181  0.0439  0.8674 -0.1144
 4303TIP3   OH234399   4.951   2.063   4.202 -0.0904  0.6104 -0.4301
 4303TIP3    H134400   4.891   2.032   4.134  0.2628  1.3692 -1.0982
 4303TIP3    H234401   4.907   2.140   4.239 -0.3402  0.1317  0.3083
 4304TIP3   OH234402   3.392   1.466   0.914 -0.2250  0.2916  0.5242
 4304TIP3    H134403   3.300   1.445   0.898  0.1445 -1.8939  0.9611
 4304TIP3    H234404   3.439   1.385   0.895  1.7027  1.5139 -0.2325
 4305TIP3   OH234405   6.014   6.377  14.851 -0.0228 -0.6167  0.0907
 4305TIP3    H134406   5.940   6.346  14.903  0.2694 -0.5698  0.5477
 4305TIP3    H234407   6.084   6.390  14.916 -0.2401  1.3461  0.0043
 4306TIP3   OH234408   2.120   3.613   3.460 -0.4394  0.1012 -0.2065
 4306TIP3    H134409   2.131   3.525   3.495 -1.4158  0.9465  2.5129
 4306TIP3    H234410   2.043   3.607   3.403 -0.3650 -0.8444 -0.2227
 4307TIP3   OH234411   1.794   4.064   2.223  0.0156 -0.3265 -0.1083
 4307TIP3    H134412   1.704   4.097   2.221  0.8554  2.1708 -0.1068
 4307TIP3    H234413   1.817   4.063   2.316 -0.0710 -1.2752 -0.0798
 4308TIP3   OH234414   4.355   5.271   5.921 -0.1600 -0.2251 -0.0615
 4308TIP3    H134415   4.313   5.295   5.839  1.0104  0.8157 -0.3970
 4308TIP3    H234416   4.285   5.237   5.976 -0.7582 -2.2896 -1.9510
 4309TIP3   OH234417   3.768   0.639   4.574 -0.1283  0.4269  0.2452
 4309TIP3    H134418   3.793   0.588   4.651  0.0089  0.6672  0.3609
 4309TIP3    H234419   3.744   0.574   4.508  0.7263  0.2003  0.1556
 4310TIP3   OH234420   2.449   0.883   1.018 -0.1162  0.5313 -0.5527
 4310TIP3    H134421   2.355   0.894   1.036 -0.3844 -0.1077 -1.4875
 4310TIP3    H234422   2.475   0.811   1.074 -0.0971  0.9339 -0.0346
 4311TIP3   OH234423   0.259   2.918   1.833 -0.7678  0.3438  0.1589
 4311TIP3    H134424   0.223   2.966   1.908 -0.5216  1.1042 -0.2079
 4311TIP3    H234425   0.353   2.920   1.846 -0.6955  0.9094 -0.4343
 4312TIP3   OH234426   1.796   5.222  14.345  0.4999 -0.2235  0.4413
 4312TIP3    H134427   1.761   5.160  14.410 -2.1594 -0.2548 -0.8942
 4312TIP3    H234428   1.844   5.166  14.283 -0.2797 -0.7030  0.2624
 4313TIP3   OH234429   4.993   3.266   4.558 -0.2063 -0.0825 -0.8730
 4313TIP3    H134430   5.077   3.228   4.584 -0.3872  0.3152  0.3173
 4313TIP3    H234431   5.012   3.314   4.477  1.3569  2.2946  0.7699
 4314TIP3   OH234432   2.992   3.087  14.464 -0.5011  0.1891 -0.4441
 4314TIP3    H134433   3.059   3.031  14.426 -1.7217 -0.1971 -2.1239
 4314TIP3    H234434   3.033   3.123  14.543  0.4128 -2.8462  0.5856
 4315TIP3   OH234435   2.865   3.103   5.688 -0.1410 -0.1916 -0.2062
 4315TIP3    H134436   2.774   3.087   5.713  0.1673 -2.4232 -0.3472
 4315TIP3    H234437   2.916   3.076   5.764  0.4125  2.9679  0.6952
 4316TIP3   OH234438   0.933   4.266  13.015  1.0915 -0.2302  0.3045
 4316TIP3    H134439   0.932   4.233  13.105  4.2025  0.2939  0.6714
 4316TIP3    H234440   0.905   4.192  12.961  1.2436 -1.2390  1.5639
 4317TIP3   OH234441   6.562   4.175  11.598 -0.0329 -1.0667  0.0328
 4317TIP3    H134442   6.532   4.219  11.678 -1.7682 -1.8323 -0.1602
 4317TIP3    H234443   6.619   4.105  11.630  0.0907 -0.7433  0.5342
 4318TIP3   OH234444   0.769   4.620   2.330 -0.3535  0.3151  0.1467
 4318TIP3    H134445   0.822   4.565   2.387 -0.0152 -0.7620 -1.1751
 4318TIP3    H234446   0.832   4.674   2.284 -0.4743 -0.1917 -0.6242
 4319TIP3   OH234447   2.702   4.459   1.969 -0.2414  0.0443  0.6629
 4319TIP3    H134448   2.608   4.445   1.966 -0.2126 -0.1876  0.7852
 4319TIP3    H234449   2.732   4.402   2.040 -0.1407  0.8457  1.2751
 4320TIP3   OH234450   2.531   5.754  16.419 -0.9751  0.2033  0.2448
 4320TIP3    H134451   2.469   5.692  16.380  1.8604 -0.8823 -3.0881
 4320TIP3    H234452   2.572   5.704  16.491 -0.1929 -1.1570 -1.0767
 4321TIP3   OH234453   0.020   4.261   4.510  0.1049 -0.2250 -0.0999
 4321TIP3    H134454   0.017   4.166   4.521  0.2722 -0.3639 -1.1669
 4321TIP3    H234455   0.107   4.279   4.474  0.5556  0.4761  1.2482
 4322TIP3   OH234456   1.190   2.303   0.758  0.3729 -0.1934  0.5283
 4322TIP3    H134457   1.242   2.365   0.705  2.2777 -1.3074  0.9824
 4322TIP3    H234458   1.240   2.294   0.839 -0.2054 -1.8420  0.7234
 4323TIP3   OH234459   6.318   0.611  10.383  0.0890  0.5758  0.1050
 4323TIP3    H134460   6.250   0.649  10.327 -0.4409 -0.4275  0.0456
 4323TIP3    H234461   6.359   0.686  10.425 -0.9038  1.2126 -0.0276
 4324TIP3   OH234462   1.375   4.951  15.254 -0.2018 -0.3962  0.2381
 4324TIP3    H134463   1.313   4.919  15.188 -0.5058  1.5952 -0.5042
 4324TIP3    H234464   1.322   4.964  15.333 -0.0302 -1.8366  0.6262
 4325TIP3   OH234465   1.885   3.648   2.189  0.5148 -0.1452 -0.3193
 4325TIP3    H134466   1.843   3.567   2.160 -0.6743  0.2156  0.3261
 4325TIP3    H234467   1.846   3.716   2.134  1.6658 -0.0137 -1.0094
 4326TIP3   OH234468   2.749   0.551  17.201  0.8311  0.0833  0.4798
 4326TIP3    H134469   2.726   0.637  17.166 -0.9351 -0.7329 -0.4558
 4326TIP3    H234470   2.827   0.525  17.151  0.5114  0.5088 -0.2546
 4327TIP3   OH234471   6.582   2.786   2.420 -0.4361 -0.1857 -0.3130
 4327TIP3    H134472   6.523   2.854   2.388 -1.4165 -0.9661 -0.2200
 4327TIP3    H234473   6.601   2.811   2.510 -1.5139 -0.4831  0.0136
 4328TIP3   OH234474   6.715   2.518   0.278 -0.1936  0.0944  0.6920
 4328TIP3    H134475   6.694   2.465   0.355  0.4164  1.0459  1.5385
 4328TIP3    H234476   6.732   2.454   0.209  1.2045 -0.8636  1.8527
 4329TIP3   OH234477   4.419   1.861   6.387 -0.3298 -0.1554 -0.6742
 4329TIP3    H134478   4.364   1.801   6.437  1.7381 -1.1858  0.4997
 4329TIP3    H234479   4.494   1.808   6.359  1.4328  1.7519  0.1661
 4330TIP3   OH234480   0.893   3.646   4.446 -0.0844  0.2895 -0.5085
 4330TIP3    H134481   0.813   3.643   4.393 -0.5300 -2.2468  0.1797
 4330TIP3    H234482   0.958   3.600   4.393  0.7508  1.6670 -0.7267
 4331TIP3   OH234483   2.777   4.168  12.600 -0.6505  0.0986  0.1373
 4331TIP3    H134484   2.755   4.119  12.520  0.9759  1.3627 -1.1635
 4331TIP3    H234485   2.872   4.157  12.610 -0.6203  1.0613  1.1352
 4332TIP3   OH234486   0.798   2.130  16.615  0.0776  0.3889 -0.1527
 4332TIP3    H134487   0.723   2.184  16.590  0.1311  0.0714 -1.0310
 4332TIP3    H234488   0.840   2.107  16.532 -0.6227 -1.9826  0.0629
 4333TIP3   OH234489   5.253   4.310  13.459  0.4261 -0.6540  0.1925
 4333TIP3    H134490   5.322   4.244  13.467  0.5752 -0.5502 -0.2031
 4333TIP3    H234491   5.295   4.392  13.485  0.3700 -0.6366  0.2295
 4334TIP3   OH234492   3.617   2.848  16.446 -0.0048 -0.6704  0.4127
 4334TIP3    H134493   3.590   2.934  16.477 -0.6772 -1.0116  0.8120
 4334TIP3    H234494   3.659   2.865  16.361 -1.0555 -0.0435 -0.0092
 4335TIP3   OH234495   1.224   6.646   5.143 -0.0831  0.3532 -0.3898
 4335TIP3    H134496   1.297   6.603   5.187 -0.6394 -0.9200 -0.6792
 4335TIP3    H234497   1.221   6.734   5.181  0.0263 -0.4127  1.4541
 4336TIP3   OH234498   0.112   3.535   3.996  0.7335 -0.3291 -0.0168
 4336TIP3    H134499   0.037   3.563   4.049 -0.6466 -2.2969 -0.8060
 4336TIP3    H234500   0.112   3.440   4.004  0.8719 -0.6446 -2.9975
 4337TIP3   OH234501   4.659   3.470  11.737 -0.0342  0.5024  0.2853
 4337TIP3    H134502   4.595   3.447  11.669  0.2476  1.5915 -0.3820
 4337TIP3    H234503   4.608   3.514  11.804 -0.6115 -2.0980  1.6695
 4338TIP3   OH234504   2.168   4.495   1.400  0.1038 -0.4142 -0.3681
 4338TIP3    H134505   2.109   4.499   1.325  1.0410  1.0319 -1.0711
 4338TIP3    H234506   2.186   4.401   1.411  0.1818 -0.6426 -2.1429
 4339TIP3   OH234507   3.918   6.141  14.427 -0.1763 -0.4625 -0.0498
 4339TIP3    H134508   3.984   6.163  14.361 -0.6056  2.0600  0.2707
 4339TIP3    H234509   3.840   6.188  14.398 -0.8349 -0.6335  1.4048
 4340TIP3   OH234510   0.718   2.648   3.946  0.0839 -0.0685  0.3288
 4340TIP3    H134511   0.755   2.698   4.019  0.6526 -2.0044  1.4360
 4340TIP3    H234512   0.640   2.607   3.983 -0.5909  0.2828 -0.6744
 4341TIP3   OH234513   0.974   4.155  16.130  0.0958  0.8781 -0.1435
 4341TIP3    H134514   0.934   4.231  16.172 -0.5298  0.0311  0.8535
 4341TIP3    H234515   1.014   4.107  16.203  1.3154  0.7311 -0.8834
 4342TIP3   OH234516   1.421   2.277  11.612  0.1169  1.1631 -0.1141
 4342TIP3    H134517   1.386   2.223  11.542  0.1852  2.5068 -1.2104
 4342TIP3    H234518   1.345   2.299  11.666  0.2486 -1.0137  1.1326
 4343TIP3   OH234519   5.768   5.460  14.877  0.0964  0.5032  0.5228
 4343TIP3    H134520   5.845   5.451  14.821  0.3287 -0.4649  0.9825
 4343TIP3    H234521   5.795   5.423  14.961 -0.6772  0.7123  0.8688
 4344TIP3   OH234522   0.850   3.666   0.610 -0.5789  0.4638 -0.1073
 4344TIP3    H134523   0.767   3.619   0.608 -1.3085  1.6938 -2.2003
 4344TIP3    H234524   0.916   3.597   0.620 -1.7940 -0.5683  1.2928
 4345TIP3   OH234525   3.657   6.513  16.892 -0.5478  0.4466  0.3145
 4345TIP3    H134526   3.579   6.495  16.945  0.2577 -1.7363  0.8627
 4345TIP3    H234527   3.706   6.577  16.943 -1.3195  0.8206  0.6133
 4346TIP3   OH234528   6.493   3.786  16.947  0.1056 -0.3131 -0.3187
 4346TIP3    H134529   6.573   3.792  16.999  0.0616  0.3505 -0.3087
 4346TIP3    H234530   6.523   3.768  16.859  0.2894  0.1715 -0.3596
 4347TIP3   OH234531   4.375   3.315  13.386  0.2065  0.9760  0.3792
 4347TIP3    H134532   4.367   3.403  13.424 -0.9940  0.8872  0.3763
 4347TIP3    H234533   4.288   3.276  13.398  0.8893 -0.4255  0.8928
 4348TIP3   OH234534   4.417   6.410  13.042 -0.3865 -0.2747  0.7106
 4348TIP3    H134535   4.507   6.409  13.011 -0.4384 -1.3810  0.5460
 4348TIP3    H234536   4.424   6.421  13.137 -0.1593  1.3349  0.5272
 4349TIP3   OH234537   3.953   1.748   6.115  0.1261 -0.1243 -0.4610
 4349TIP3    H134538   3.872   1.763   6.066 -0.2357  1.3383  0.5063
 4349TIP3    H234539   4.014   1.712   6.051 -0.4787  1.2274 -1.8813
 4350TIP3   OH234540   0.366   5.819  12.628 -0.5391  0.2945 -0.0500
 4350TIP3    H134541   0.421   5.783  12.558 -0.0491  1.7065 -0.4249
 4350TIP3    H234542   0.286   5.767  12.624  0.3613 -1.1527 -0.1536
 4351TIP3   OH234543   5.144   6.775   5.829  0.3323 -0.0373  0.2996
 4351TIP3    H134544   5.072   6.770   5.767 -0.1779  0.7567  0.8097
 4351TIP3    H234545   5.118   6.718   5.902 -0.2740  1.0327  0.9499
 4352TIP3   OH234546   1.541   5.935  12.213  0.0095  0.6273 -0.1810
 4352TIP3    H134547   1.578   6.015  12.250  1.9277  0.9624 -2.5452
 4352TIP3    H234548   1.466   5.965  12.161 -1.2268  0.4405  1.4292
 4353TIP3   OH234549   1.595   2.467   0.463  0.0352  0.1535  0.1264
 4353TIP3    H134550   1.624   2.556   0.447 -0.6222  0.1919 -0.9592
 4353TIP3    H234551   1.621   2.418   0.385 -0.1418 -0.4689  0.4460
 4354TIP3   OH234552   4.402   0.969  15.169 -0.4487 -0.0684 -0.5911
 4354TIP3    H134553   4.490   0.965  15.206 -0.2750 -0.9128 -1.0567
 4354TIP3    H234554   4.401   1.048  15.117  0.5318 -0.8010 -1.7676
 4355TIP3   OH234555   4.965   6.056   4.306 -0.0233  0.3975  0.1108
 4355TIP3    H134556   4.891   6.118   4.302  0.7421  1.3650  0.5131
 4355TIP3    H234557   5.042   6.110   4.287  0.7614 -0.2378  1.3317
 4356TIP3   OH234558   3.096   0.463  11.698 -0.3926  0.6139 -0.4801
 4356TIP3    H134559   3.172   0.518  11.677  0.5667 -1.2869 -2.2837
 4356TIP3    H234560   3.088   0.403  11.624 -1.8791 -1.1816  1.0259
 4357TIP3   OH234561   3.853   0.478   4.799  0.0786 -0.2199  0.1587
 4357TIP3    H134562   3.941   0.455   4.829  1.0326  1.0018 -1.5295
 4357TIP3    H234563   3.831   0.411   4.735 -0.3401 -0.6759  0.7763
 4358TIP3   OH234564   0.022   6.800  16.171 -0.4956 -0.0937 -0.3799
 4358TIP3    H134565  -0.060   6.843  16.197 -0.8366 -1.6070  1.2444
 4358TIP3    H234566   0.089   6.868  16.179 -1.3935  0.8277 -0.4720
 4359TIP3   OH234567   5.477   1.586  15.679  0.4970 -0.0698 -0.0709
 4359TIP3    H134568   5.467   1.533  15.758  0.2520  0.4166  0.2282
 4359TIP3    H234569   5.399   1.567  15.627 -1.3989  2.5541  1.5667
 4360TIP3   OH234570   4.462   6.651  14.363  0.6721 -0.0111 -0.3503
 4360TIP3    H134571   4.492   6.704  14.289  0.7954  0.4449  0.0185
 4360TIP3    H234572   4.376   6.688  14.384  0.9387  0.3105  0.1714
 4361TIP3   OH234573   6.642   1.332   4.673  0.7125  0.1423  0.1177
 4361TIP3    H134574   6.726   1.297   4.646  0.0471 -1.5333  0.0765
 4361TIP3    H234575   6.642   1.326   4.768 -0.3434 -2.4762  0.0380
 4362TIP3   OH234576   2.462   5.767   4.578 -0.2058 -0.4580 -0.1254
 4362TIP3    H134577   2.546   5.811   4.566 -0.7712  1.0429  1.1943
 4362TIP3    H234578   2.443   5.775   4.671 -0.2375 -3.8000  0.2798
 4363TIP3   OH234579   1.764   0.612  14.050 -0.0165 -0.3022 -0.5119
 4363TIP3    H134580   1.684   0.633  14.099  0.7342  0.0950  0.5856
 4363TIP3    H234581   1.811   0.550  14.106 -0.1412 -1.5324 -1.7377
 4364TIP3   OH234582   4.953   4.224   4.424 -0.1779  0.3775 -0.4477
 4364TIP3    H134583   4.977   4.316   4.432  0.2650  0.3683 -1.5847
 4364TIP3    H234584   4.974   4.187   4.510 -2.4801  1.7814  0.8371
 4365TIP3   OH234585   5.359   1.187  15.079 -0.4913  0.0272 -0.0572
 4365TIP3    H134586   5.299   1.133  15.132 -2.6366  3.9378  1.9081
 4365TIP3    H234587   5.304   1.222  15.009 -0.2018  2.4152  0.8306
 4366TIP3   OH234588   6.184   2.328  17.009  0.1685  0.5224  0.3621
 4366TIP3    H134589   6.110   2.296  16.957 -0.9092  2.5811  0.5386
 4366TIP3    H234590   6.187   2.268  17.084 -0.6274 -0.2313 -0.1795
 4367TIP3   OH234591   5.390   4.127  14.954  0.3030  0.1854  0.0834
 4367TIP3    H134592   5.303   4.166  14.945  1.7913  4.1959  0.9521
 4367TIP3    H234593   5.411   4.136  15.047  2.3744  1.1592 -0.4135
 4368TIP3   OH234594   4.218   0.477  13.742 -0.3394  0.4422 -0.4580
 4368TIP3    H134595   4.241   0.541  13.675 -1.0733  0.5861 -0.5789
 4368TIP3    H234596   4.152   0.520  13.795 -0.2114  0.0978 -0.0142
 4369TIP3   OH234597   6.460   4.460  15.911  0.6631 -0.0852  0.2346
 4369TIP3    H134598   6.540   4.419  15.878  0.4888 -0.3830  0.1844
 4369TIP3    H234599   6.389   4.415  15.866  0.4448 -0.1627  0.6507
 4370TIP3   OH234600   2.294   5.295   3.690 -0.4798 -0.8314  0.0568
 4370TIP3    H134601   2.337   5.340   3.617  1.1055  0.0386  1.4625
 4370TIP3    H234602   2.354   5.225   3.714 -1.6713 -2.0461 -0.3551
 4371TIP3   OH234603   1.058   1.272  12.295 -0.6216  0.0210  0.2704
 4371TIP3    H134604   1.000   1.215  12.245 -0.3151  0.4171 -0.5673
 4371TIP3    H234605   1.111   1.316  12.228  0.0934  0.2556  0.9722
 4372TIP3   OH234606   1.210   1.400  12.118 -0.0106  0.4402  0.0410
 4372TIP3    H134607   1.216   1.488  12.157  2.2737 -0.4404  1.9222
 4372TIP3    H234608   1.300   1.377  12.098 -0.4126 -1.9008  0.6541
 4373TIP3   OH234609   0.597   4.412   1.468  0.1634  0.2480  0.2052
 4373TIP3    H134610   0.631   4.425   1.557 -0.1800 -0.8337  0.5163
 4373TIP3    H234611   0.534   4.341   1.477  0.0662  0.1748 -0.8992
 4374TIP3   OH234612   6.185   6.029   1.483  0.4376 -0.1601 -0.9449
 4374TIP3    H134613   6.213   5.947   1.524  1.3350  0.7009  0.2445
 4374TIP3    H234614   6.264   6.083   1.481 -0.2629  0.8947 -1.1520
 4375TIP3   OH234615   4.309   1.979  12.763 -0.1056 -0.2045 -0.1794
 4375TIP3    H134616   4.367   1.951  12.834 -1.2585 -2.4332 -0.0219
 4375TIP3    H234617   4.279   2.066  12.790  1.3335  0.0109  0.8616
 4376TIP3   OH234618   5.686   2.383  15.118  0.6812 -0.4812  0.0486
 4376TIP3    H134619   5.611   2.373  15.059  0.6239  1.7106 -0.3481
 4376TIP3    H234620   5.686   2.304  15.171 -1.3172 -0.9911 -0.6250
 4377TIP3   OH234621   6.528   4.878  16.499 -0.2156  0.1531 -0.3133
 4377TIP3    H134622   6.475   4.801  16.517 -3.3756  2.1147 -0.4091
 4377TIP3    H234623   6.500   4.907  16.412  1.2707  1.1440 -0.5115
 4378TIP3   OH234624   4.552   2.275   5.199 -0.4495 -0.0969 -0.0518
 4378TIP3    H134625   4.633   2.223   5.193 -0.7125 -0.3924 -1.7082
 4378TIP3    H234626   4.488   2.216   5.237 -0.0947 -0.1259  0.5101
 4379TIP3   OH234627   0.097   6.479  12.206  0.4781  0.2346 -0.0352
 4379TIP3    H134628   0.141   6.418  12.147  2.7412  0.2343  1.5620
 4379TIP3    H234629   0.020   6.431  12.237 -0.0220 -0.2452 -1.8710
 4380TIP3   OH234630   2.419   1.306   3.667  0.3506  0.1139  0.0325
 4380TIP3    H134631   2.373   1.224   3.652 -0.8169  0.5506  1.0206
 4380TIP3    H234632   2.433   1.343   3.580 -1.3321  0.0367 -0.2964
 4381TIP3   OH234633   3.106   4.554   1.636  0.3345 -0.1852  0.3564
 4381TIP3    H134634   3.040   4.519   1.696 -0.3754 -1.2297 -0.9428
 4381TIP3    H234635   3.161   4.478   1.614  0.5236  0.1485 -0.3553
 4382TIP3   OH234636   4.832   0.590   1.358  0.0897 -0.0848 -0.4017
 4382TIP3    H134637   4.856   0.649   1.429  0.6532 -0.7819 -0.0006
 4382TIP3    H234638   4.780   0.521   1.400  1.0311 -0.8909 -0.5166
 4383TIP3   OH234639   1.639   6.214  14.429 -0.4831 -0.2039 -0.0716
 4383TIP3    H134640   1.655   6.224  14.522 -0.6177  1.7480 -0.2282
 4383TIP3    H234641   1.709   6.264  14.387  0.3444 -2.0805 -1.1042
 4384TIP3   OH234642   2.097   4.559   5.883 -0.8778  0.5916  0.2534
 4384TIP3    H134643   2.026   4.568   5.946  1.0201 -0.6435  2.7346
 4384TIP3    H234644   2.136   4.647   5.879 -2.5662  1.3605 -1.3538
 4385TIP3   OH234645   1.248   5.033  16.630 -0.0700 -0.0271  0.0868
 4385TIP3    H134646   1.207   4.947  16.634 -1.0175  0.3036 -1.3986
 4385TIP3    H234647   1.320   5.023  16.568 -1.0678  0.5279 -1.2253
 4386TIP3   OH234648   4.940   1.974  13.810 -0.0750  0.1515  0.1602
 4386TIP3    H134649   4.925   2.049  13.753 -0.2903  1.3606  1.7292
 4386TIP3    H234650   4.947   2.012  13.898  1.6463 -1.4848  0.7884
 4387TIP3   OH234651   1.044   6.121  11.530 -0.0631  0.1613  0.2049
 4387TIP3    H134652   0.976   6.135  11.595 -0.2927 -0.0837  0.0208
 4387TIP3    H234653   1.109   6.189  11.548 -2.6304  3.7954 -2.7069
 4388TIP3   OH234654   1.619   4.480   0.579 -0.2312 -0.5215  0.9693
 4388TIP3    H134655   1.647   4.524   0.499  0.8010  0.4858  1.8462
 4388TIP3    H234656   1.557   4.542   0.620 -0.0945 -0.6454  1.3688
 4389TIP3   OH234657   2.508   2.751  16.845 -0.2829  0.1805  0.0356
 4389TIP3    H134658   2.586   2.708  16.879 -1.0512  0.2850  2.1040
 4389TIP3    H234659   2.435   2.699  16.879 -1.1445  0.5138 -1.2301
 4390TIP3   OH234660   0.009   2.874   6.048  0.2924  0.6051  0.8322
 4390TIP3    H134661   0.071   2.816   6.005 -0.2896  1.0576 -0.6927
 4390TIP3    H234662  -0.018   2.827   6.126  5.1471  1.7665  3.6681
 4391TIP3   OH234663   5.697   0.340   1.061 -0.6298  0.1829  0.8728
 4391TIP3    H134664   5.633   0.295   1.006  0.6203  0.1157 -0.6181
 4391TIP3    H234665   5.709   0.425   1.018 -1.0624  0.9410  2.1892
 4392TIP3   OH234666   0.382   5.636   2.029  0.1986  0.2629 -0.0463
 4392TIP3    H134667   0.290   5.610   2.018  0.2658  0.1974 -0.4375
 4392TIP3    H234668   0.409   5.668   1.944 -0.1547  2.5087  0.6313
 4393TIP3   OH234669   5.694   4.468  11.542  0.5760 -0.4925 -0.7195
 4393TIP3    H134670   5.772   4.514  11.573  0.8174 -1.1064 -0.4085
 4393TIP3    H234671   5.700   4.381  11.581 -0.4857 -0.4082 -0.3446
 4394TIP3   OH234672   0.627   1.472  13.347  0.1755 -0.2198 -0.8824
 4394TIP3    H134673   0.544   1.517  13.360  0.4131 -0.1053  0.4166
 4394TIP3    H234674   0.620   1.392  13.399  1.1783  0.2085 -0.0551
 4395TIP3   OH234675   5.209   2.978  12.259 -0.3282  0.0688  0.2008
 4395TIP3    H134676   5.296   2.962  12.295  0.1784 -0.9424 -1.3709
 4395TIP3    H234677   5.206   3.073  12.245 -0.4535  0.4715  2.5245
 4396TIP3   OH234678   4.397   4.725  15.904  0.2791  0.2335 -0.4834
 4396TIP3    H134679   4.443   4.802  15.938 -1.9476  1.3878  0.1465
 4396TIP3    H234680   4.381   4.746  15.812  2.2237 -0.8402 -1.1266
 4397TIP3   OH234681   6.004   0.218   2.433 -0.2650  0.7024 -0.0515
 4397TIP3    H134682   5.930   0.204   2.374  0.3885  0.3694 -0.8001
 4397TIP3    H234683   6.004   0.313   2.449 -0.9051  0.6946  0.0387
 4398TIP3   OH234684   0.424   5.118  14.405  0.3340 -0.6705 -0.6510
 4398TIP3    H134685   0.329   5.108  14.408  0.3212 -0.8590 -1.3540
 4398TIP3    H234686   0.444   5.183  14.473 -0.5085  0.8187 -1.7544
 4399TIP3   OH234687   3.787   2.110   2.715  0.0546  0.1860 -0.1047
 4399TIP3    H134688   3.760   2.097   2.806  1.1807  0.4017  0.2783
 4399TIP3    H234689   3.860   2.172   2.721  0.0228  0.3379 -1.1737
 4400TIP3   OH234690   5.514   5.295   5.701  0.2237  0.2879 -0.0726
 4400TIP3    H134691   5.490   5.368   5.644 -0.1724 -0.3789 -0.7756
 4400TIP3    H234692   5.436   5.239   5.702 -0.2218  0.8434  2.0537
 4401TIP3   OH234693   1.726   0.023  12.407 -0.1999  0.6049  0.2006
 4401TIP3    H134694   1.649   0.076  12.428 -0.7243 -0.2280  0.4076
 4401TIP3    H234695   1.784   0.083  12.360 -1.1594  1.1234 -0.3480
 4402TIP3   OH234696   0.483   1.539  10.865 -0.6763  0.7696  0.0981
 4402TIP3    H134697   0.453   1.450  10.847 -0.5848  0.9121 -0.7943
 4402TIP3    H234698   0.578   1.532  10.873 -0.7449  0.6493  0.9287
 4403TIP3   OH234699   5.290   6.141   0.530 -0.1762  0.1367 -0.3564
 4403TIP3    H134700   5.376   6.140   0.488 -0.1926 -0.5643 -0.3970
 4403TIP3    H234701   5.257   6.052   0.516 -0.3297 -0.0051  0.8500
 4404TIP3   OH234702   5.209   1.688   5.706 -0.4076 -0.2654 -0.3631
 4404TIP3    H134703   5.177   1.696   5.616 -2.3596 -2.0306  0.0969
 4404TIP3    H234704   5.238   1.598   5.714  0.7395  0.1570  0.5068
 4405TIP3   OH234705   4.946   5.972  10.917 -0.0972 -0.2851  0.0171
 4405TIP3    H134706   5.040   5.958  10.904  0.0539  1.2678 -0.7748
 4405TIP3    H234707   4.904   5.925  10.846  0.1491 -0.1551 -0.2161
 4406TIP3   OH234708   2.105   2.542  11.714 -0.1830  0.2477  1.0191
 4406TIP3    H134709   2.063   2.458  11.695 -0.0440 -0.4273  3.3537
 4406TIP3    H234710   2.034   2.606  11.706 -0.2689 -0.0370 -0.8729
 4407TIP3   OH234711   0.501   4.750   1.511  0.3248 -0.4036 -0.5552
 4407TIP3    H134712   0.508   4.730   1.604 -0.4802  1.0680 -0.1532
 4407TIP3    H234713   0.413   4.725   1.487  0.4262 -0.4881 -0.8443
 4408TIP3   OH234714   6.006   5.703   3.969  0.4022 -0.2881  1.0547
 4408TIP3    H134715   5.939   5.759   4.008 -0.0215  0.3289 -0.4880
 4408TIP3    H234716   6.076   5.700   4.034  0.0340  1.2859  1.5503
 4409TIP3   OH234717   3.389   1.436  12.033  0.1678  0.5762  0.3684
 4409TIP3    H134718   3.400   1.529  12.016  1.1354  0.0565 -2.2982
 4409TIP3    H234719   3.450   1.417  12.104  0.1647  1.8978  0.7463
 4410TIP3   OH234720   3.173   4.818  11.142  0.2709 -0.2776  0.1156
 4410TIP3    H134721   3.144   4.879  11.210 -1.0410 -1.1627  0.3819
 4410TIP3    H234722   3.094   4.773  11.114  1.1454 -1.5963 -0.3430
 4411TIP3   OH234723   0.326   2.712  15.867  0.3235  0.0374  0.3425
 4411TIP3    H134724   0.320   2.641  15.931  1.5389 -2.0363 -1.6667
 4411TIP3    H234725   0.411   2.753  15.883  1.4225 -1.6024 -0.8875
 4412TIP3   OH234726   1.594   4.137   3.834 -0.2180  0.2702  0.3867
 4412TIP3    H134727   1.589   4.188   3.754  2.2115 -0.0212 -0.0324
 4412TIP3    H234728   1.506   4.102   3.846 -0.4646 -0.4174 -2.6521
 4413TIP3   OH234729   1.044   5.686   0.581  0.1813  0.1978 -0.2215
 4413TIP3    H134730   1.005   5.726   0.659  2.2976 -0.7458  1.3982
 4413TIP3    H234731   1.064   5.760   0.524 -0.6462  0.9736  0.4610
 4414TIP3   OH234732   3.903   2.490   3.596 -0.0368  0.1155 -0.0405
 4414TIP3    H134733   3.869   2.406   3.626 -3.8123  2.0216  1.7028
 4414TIP3    H234734   3.942   2.471   3.511 -2.6692 -3.1083 -0.7293
 4415TIP3   OH234735   1.970   5.642  11.899  0.1034 -0.1320  0.0132
 4415TIP3    H134736   1.985   5.663  11.991 -0.6146 -1.2569  0.4105
 4415TIP3    H234737   1.989   5.723  11.852  0.2598  0.5180  1.1741
 4416TIP3   OH234738   1.235   4.858   3.331  0.2664 -0.2971  0.3219
 4416TIP3    H134739   1.300   4.830   3.266  0.0012  0.0872 -0.1144
 4416TIP3    H234740   1.254   4.805   3.408  2.1704  0.9145  0.7770
 4417TIP3   OH234741   3.308   0.360   0.981 -0.0599  0.0515 -0.0556
 4417TIP3    H134742   3.347   0.446   0.992 -0.6512 -0.0339  3.8420
 4417TIP3    H234743   3.224   0.365   1.027 -0.2902 -2.5071 -0.0427
 4418TIP3   OH234744   1.740   1.492   1.916  0.5544  0.1522  0.2582
 4418TIP3    H134745   1.729   1.531   2.002  0.0021  0.2336  0.1541
 4418TIP3    H234746   1.680   1.417   1.916 -0.0338  0.6201 -0.3362
 4419TIP3   OH234747   3.593   0.481  11.216 -0.2939  0.1247 -0.2583
 4419TIP3    H134748   3.646   0.550  11.256  0.3513  0.7542 -2.1070
 4419TIP3    H234749   3.504   0.516  11.214 -0.4119 -0.0523  0.8521
 4420TIP3   OH234750   1.841   3.245   3.053  0.0832  0.3303 -0.0154
 4420TIP3    H134751   1.789   3.179   3.007 -1.2672 -0.5370  2.5577
 4420TIP3    H234752   1.932   3.227   3.026 -0.3795 -1.7674 -0.3416
 4421TIP3   OH234753   6.787   0.821  15.537  0.4786  0.2969 -0.5488
 4421TIP3    H134754   6.790   0.902  15.485  1.0438  2.0800  2.0777
 4421TIP3    H234755   6.778   0.752  15.472 -0.8214  2.4907 -2.9073
 4422TIP3   OH234756   1.692   3.872  13.393  0.0953 -0.8339 -0.1225
 4422TIP3    H134757   1.608   3.849  13.431  0.1076 -2.9719 -1.2498
 4422TIP3    H234758   1.682   3.853  13.299  1.5484 -0.2699 -0.4171
 4423TIP3   OH234759   2.098   5.966  12.135 -0.1670 -0.1269 -0.4812
 4423TIP3    H134760   2.110   6.052  12.176 -2.2717  1.0886 -2.2490
 4423TIP3    H234761   2.033   5.922  12.190  4.0069 -2.6643  3.1420
 4424TIP3   OH234762   4.657   0.766  13.320  0.3820  0.4086  0.0658
 4424TIP3    H134763   4.749   0.770  13.344  0.4586  0.1565 -0.1787
 4424TIP3    H234764   4.635   0.673  13.326  0.6780  0.1765 -1.8296
 4425TIP3   OH234765   4.603   3.443   3.548 -0.4775 -0.1981 -0.2630
 4425TIP3    H134766   4.526   3.442   3.604 -2.2602  1.6280 -2.4879
 4425TIP3    H234767   4.570   3.462   3.461  2.4098 -0.4407 -1.5468
 4426TIP3   OH234768   2.105   0.253   3.182 -0.2865  0.5709 -0.5796
 4426TIP3    H134769   2.124   0.340   3.148 -0.5692  0.7020 -0.4088
 4426TIP3    H234770   2.183   0.201   3.161  0.4257  1.1894  0.4351
 4427TIP3   OH234771   4.178   5.457   0.898 -0.0673 -0.4154 -0.5054
 4427TIP3    H134772   4.267   5.460   0.862  0.5247 -0.1264  0.8703
 4427TIP3    H234773   4.124   5.502   0.834  0.7897 -0.5649 -1.3565
 4428TIP3   OH234774   5.487   3.318  13.466  0.3024  0.4789 -0.4613
 4428TIP3    H134775   5.489   3.338  13.560  0.8682 -1.0287 -0.1149
 4428TIP3    H234776   5.394   3.311  13.445  0.1701  0.6251  0.0494
 4429TIP3   OH234777   6.652   4.855  15.867  0.1987  0.1580  0.1373
 4429TIP3    H134778   6.632   4.929  15.924  3.1898  0.6512  0.7164
 4429TIP3    H234779   6.729   4.814  15.908 -1.0241 -2.9944 -0.4497
 4430TIP3   OH234780   5.724   5.663  12.425  0.1841 -0.4879  0.5487
 4430TIP3    H134781   5.810   5.652  12.464  0.6338 -2.7218 -0.9064
 4430TIP3    H234782   5.741   5.685  12.334 -0.8335  0.7117  0.6150
 4431TIP3   OH234783   3.298   5.181  13.757 -0.0769 -0.1639  0.3572
 4431TIP3    H134784   3.381   5.133  13.747 -1.1214 -1.7981 -1.0273
 4431TIP3    H234785   3.325   5.268  13.786  1.9904 -1.2338  1.9933
 4432TIP3   OH234786   1.898   3.133  11.812  0.0904  0.2499 -0.0076
 4432TIP3    H134787   1.838   3.058  11.811 -0.2353  0.5155 -1.3424
 4432TIP3    H234788   1.843   3.208  11.833  0.2790  0.2529  0.5119
 4433TIP3   OH234789   6.447   5.980   2.734  0.4968 -0.4297 -0.1576
 4433TIP3    H134790   6.403   6.061   2.708  0.2331  0.6690  3.1568
 4433TIP3    H234791   6.405   5.911   2.683  0.5156  1.4213 -2.8520
 4434TIP3   OH234792   2.450   6.434   0.862 -0.8378 -0.0544  0.7983
 4434TIP3    H134793   2.423   6.350   0.826 -0.2551  0.1640 -0.1729
 4434TIP3    H234794   2.375   6.463   0.915 -1.7114 -0.3922 -0.2297
 4435TIP3   OH234795   0.248   0.889  11.197  0.2139  0.2570 -0.0474
 4435TIP3    H134796   0.175   0.890  11.136  0.2033 -1.6133 -0.1296
 4435TIP3    H234797   0.322   0.922  11.146 -0.4715  1.8427 -0.0593
 4436TIP3   OH234798   2.004   4.683  14.044  0.2635  0.2438  0.7269
 4436TIP3    H134799   1.988   4.608  13.986  0.1880  1.2567 -0.6197
 4436TIP3    H234800   1.939   4.674  14.114  0.7287 -1.3250  0.9797
 4437TIP3   OH234801   5.263   3.110   3.330  0.6301  0.3911  0.0690
 4437TIP3    H134802   5.257   3.039   3.395 -1.3952 -0.2552 -0.7242
 4437TIP3    H234803   5.322   3.174   3.370  0.8329 -0.7623  1.7638
 4438TIP3   OH234804   3.398   5.693   1.591  0.1922  0.4183 -0.3447
 4438TIP3    H134805   3.421   5.626   1.526  0.4101  0.3218 -0.1688
 4438TIP3    H234806   3.332   5.651   1.646  1.3631 -0.1667  0.6513
 4439TIP3   OH234807   5.693   0.514   3.371  0.3156  0.4370  0.4160
 4439TIP3    H134808   5.784   0.543   3.365  0.6168 -0.2986  1.2489
 4439TIP3    H234809   5.693   0.425   3.336 -0.3203  0.8603 -0.7044
 4440TIP3   OH234810   5.899   2.843   5.163 -0.1264  0.2355  0.1902
 4440TIP3    H134811   5.901   2.819   5.070  1.2363 -1.1269  0.5356
 4440TIP3    H234812   5.902   2.939   5.163  1.4701  0.2285 -1.1665
 4441TIP3   OH234813   2.890   3.737   4.556  0.2743  0.6824 -0.0738
 4441TIP3    H134814   2.804   3.770   4.581  0.4004  0.6295  0.4429
 4441TIP3    H234815   2.920   3.687   4.632 -0.7366 -2.3155 -1.4709
 4442TIP3   OH234816   1.527   2.277   6.301 -0.5812 -1.2125  0.5143
 4442TIP3    H134817   1.441   2.238   6.289 -0.0445 -1.9493 -1.1594
 4442TIP3    H234818   1.530   2.301   6.394 -2.0830 -2.3418  0.8803
 4443TIP3   OH234819   3.891   0.748  14.968  0.5245 -0.0593 -0.1304
 4443TIP3    H134820   3.908   0.764  14.875  1.4457 -1.2285 -0.1770
 4443TIP3    H234821   3.918   0.829  15.011  0.4460  0.3528 -0.8400
 4444TIP3   OH234822   3.474   1.271   2.213 -0.2152 -0.0019 -0.6190
 4444TIP3    H134823   3.521   1.298   2.291  0.7429 -0.1630 -1.1347
 4444TIP3    H234824   3.453   1.179   2.228  0.9410 -0.3455 -1.0068
 4445TIP3   OH234825   5.929   2.612   4.282 -0.0254  0.5677 -0.4164
 4445TIP3    H134826   5.949   2.590   4.191  1.1832 -0.3273  0.0410
 4445TIP3    H234827   5.847   2.567   4.300 -1.1785  2.0808 -1.5190
 4446TIP3   OH234828   2.596   2.195   3.090  0.4323  0.4734  0.2578
 4446TIP3    H134829   2.579   2.289   3.091  1.7026  0.7322 -0.6528
 4446TIP3    H234830   2.652   2.180   3.167  1.3395  0.7096 -0.3374
 4447TIP3   OH234831   5.014   1.734  12.043  0.2018 -0.1210 -0.0141
 4447TIP3    H134832   4.938   1.738  11.985  0.1873 -1.5794 -0.1439
 4447TIP3    H234833   5.056   1.651  12.021 -0.0595 -0.9737  2.3750
 4448TIP3   OH234834   1.086   6.399  16.830  0.0395 -0.1355  0.5711
 4448TIP3    H134835   1.131   6.476  16.793 -1.6549  0.7760  0.2856
 4448TIP3    H234836   0.997   6.404  16.794 -0.3452 -1.7965  1.1977
 4449TIP3   OH234837   6.404   0.508  14.986  0.2160 -0.0978  0.2416
 4449TIP3    H134838   6.336   0.575  14.983 -0.0073 -0.3419 -0.7620
 4449TIP3    H234839   6.481   0.550  14.948 -0.0263 -0.4917 -0.7345
 4450TIP3   OH234840   4.068   0.762  11.405  0.2946  0.3391  0.2115
 4450TIP3    H134841   4.070   0.794  11.315  0.7085 -1.6850 -0.5419
 4450TIP3    H234842   4.131   0.690  11.407 -1.4966 -1.2854  1.4626
 4451TIP3   OH234843   1.389   5.229  12.323 -0.5723 -0.6964 -0.0445
 4451TIP3    H134844   1.410   5.219  12.230  1.3952 -1.8371  0.4750
 4451TIP3    H234845   1.426   5.314  12.347  0.8432 -1.3553  0.1646
 4452TIP3   OH234846   6.238   1.373  15.306 -0.4346  0.4829 -0.2512
 4452TIP3    H134847   6.226   1.293  15.357 -0.5654  1.4912  1.4041
 4452TIP3    H234848   6.333   1.379  15.292  0.0377  1.6141  2.5217
 4453TIP3   OH234849   3.043   5.095  10.936 -0.2906  0.3971  0.3986
 4453TIP3    H134850   3.111   5.132  10.992  0.0585 -0.8982  0.8583
 4453TIP3    H234851   3.056   5.139  10.852 -0.7814  2.3091  1.2789
 4454TIP3   OH234852   6.705   0.654  16.870  0.4031 -0.1041  0.0542
 4454TIP3    H134853   6.647   0.714  16.917 -0.8081 -1.6783  0.6799
 4454TIP3    H234854   6.735   0.592  16.937  0.2210 -1.2130 -0.8469
 4455TIP3   OH234855   1.796   2.997   1.912  0.5528 -0.1169  0.9429
 4455TIP3    H134856   1.867   3.027   1.855 -0.6817 -0.3868 -0.8345
 4455TIP3    H234857   1.802   2.901   1.909  1.6609 -0.1425  2.8771
 4456TIP3   OH234858   2.708   3.352  10.867 -0.4591  0.3910  0.2479
 4456TIP3    H134859   2.754   3.268  10.859 -0.2020  0.6047 -0.5842
 4456TIP3    H234860   2.679   3.354  10.958  0.4280 -0.1404  0.5621
 4457TIP3   OH234861   6.226   1.042  13.261  0.0509 -0.1008  0.1460
 4457TIP3    H134862   6.240   0.984  13.186 -3.3439 -1.1972  0.1828
 4457TIP3    H234863   6.279   1.119  13.242  1.4169 -1.4617 -2.0167
 4458TIP3   OH234864   5.929   2.809  12.128  0.4432 -0.4622  0.2746
 4458TIP3    H134865   5.991   2.814  12.201  0.6378  0.9654  0.0395
 4458TIP3    H234866   5.854   2.861  12.157  0.1455 -0.6286 -0.1891
 4459TIP3   OH234867   0.607   4.777  11.827 -0.1309 -0.1580 -0.4231
 4459TIP3    H134868   0.682   4.717  11.826  1.3730  1.4813  1.8979
 4459TIP3    H234869   0.556   4.750  11.904 -0.1540  0.7073 -0.1258
 4460TIP3   OH234870   6.729   1.703   6.118 -0.5151  0.5839 -0.1486
 4460TIP3    H134871   6.762   1.777   6.067 -1.0386 -0.1346 -1.5864
 4460TIP3    H234872   6.709   1.739   6.204 -0.5253  2.0589 -0.7533
 4461TIP3   OH234873   2.012   4.335  15.717  0.4861  0.2050 -0.2037
 4461TIP3    H134874   2.056   4.250  15.710 -0.8700 -0.4506 -1.0526
 4461TIP3    H234875   1.962   4.329  15.799 -0.2868 -0.1456 -0.6993
 4462TIP3   OH234876   4.304   3.136  10.988 -0.0806  0.1931  0.3717
 4462TIP3    H134877   4.396   3.156  11.005 -0.0386 -1.4687  2.5541
 4462TIP3    H234878   4.303   3.100  10.899  1.0389  1.9078 -0.3928
 4463TIP3   OH234879   1.097   3.298   1.620  0.4286 -0.1507 -0.1385
 4463TIP3    H134880   1.017   3.263   1.657 -0.4206  3.2926  1.6816
 4463TIP3    H234881   1.091   3.277   1.526 -0.5007 -3.4780  0.5392
 4464TIP3   OH234882   3.362   4.955  15.834  0.2798  0.9504 -0.3457
 4464TIP3    H134883   3.330   4.898  15.904  2.3700 -0.0971 -0.1772
 4464TIP3    H234884   3.353   5.043  15.869  0.0371  0.5261  0.7034
 4465TIP3   OH234885   2.035   2.656  15.224 -0.0108 -0.4718  0.7204
 4465TIP3    H134886   1.976   2.641  15.150  1.1501  1.4650 -0.6762
 4465TIP3    H234887   2.107   2.594  15.210 -0.8260 -1.6555  1.5090
 4466TIP3   OH234888   6.269   1.024  10.916  0.3121 -0.4897 -0.2365
 4466TIP3    H134889   6.191   1.060  10.873 -0.4233 -1.9589 -0.1880
 4466TIP3    H234890   6.324   0.995  10.844  0.0691 -0.9429 -0.2441
 4467TIP3   OH234891   5.215   1.633   2.368  1.0717 -0.6951 -0.0741
 4467TIP3    H134892   5.123   1.654   2.382  1.4092  0.1328  1.1108
 4467TIP3    H234893   5.221   1.539   2.388  0.6895 -0.4927  1.1126
 4468TIP3   OH234894   4.480   4.559   4.713  0.6319 -0.5404  0.8063
 4468TIP3    H134895   4.512   4.649   4.714 -1.3924  0.2648 -0.4369
 4468TIP3    H234896   4.402   4.560   4.768  0.4721 -1.4714  0.6107
 4469TIP3   OH234897   5.618   6.299  12.061 -0.4187 -0.4005 -0.3846
 4469TIP3    H134898   5.573   6.277  12.143 -1.6923 -0.7946 -1.1620
 4469TIP3    H234899   5.548   6.324  12.001  0.4465 -0.6158 -1.5209
 4470TIP3   OH234900   2.890   6.142  15.598 -0.2832 -0.6241 -0.4758
 4470TIP3    H134901   2.812   6.195  15.583 -0.3422 -0.8815 -1.1063
 4470TIP3    H234902   2.920   6.167  15.686 -1.0431 -0.4947 -0.2494
 4471TIP3   OH234903   5.149   1.540  15.745 -0.4208 -0.2259  0.4120
 4471TIP3    H134904   5.207   1.534  15.821 -0.2098 -0.6398  0.2163
 4471TIP3    H234905   5.074   1.590  15.778  0.6531  1.5438  0.2745
 4472TIP3   OH234906   6.245   3.366   4.538  0.1036  0.3675  0.1497
 4472TIP3    H134907   6.336   3.355   4.563  0.0622  0.2473  0.2484
 4472TIP3    H234908   6.245   3.439   4.476  0.2912  0.2414  0.0011
 4473TIP3   OH234909   6.330   5.204   2.325 -0.6645  0.3459 -0.6549
 4473TIP3    H134910   6.291   5.290   2.308 -1.1992  0.5957  1.5807
 4473TIP3    H234911   6.367   5.211   2.413  0.7573 -1.2190 -1.0764
 4474TIP3   OH234912   6.298   2.837  12.521 -0.0844  0.3898  0.5141
 4474TIP3    H134913   6.346   2.765  12.562 -2.1200 -0.4000  1.6447
 4474TIP3    H234914   6.261   2.886  12.594  0.9306  2.4094 -0.2444
 4475TIP3   OH234915   3.704   1.066  12.863 -0.4463 -0.0620 -0.3111
 4475TIP3    H134916   3.656   1.147  12.883  1.7356  0.9181  1.2696
 4475TIP3    H234917   3.685   1.009  12.937  1.2959  0.5922  0.6821
 4476TIP3   OH234918   1.793   4.556   2.537  0.1039 -0.4474 -0.5435
 4476TIP3    H134919   1.763   4.543   2.627 -0.3100  0.3448 -0.5540
 4476TIP3    H234920   1.784   4.470   2.496 -1.2851 -0.4584 -0.2778
 4477TIP3   OH234921   0.883   2.469  16.892 -0.3241  0.1690 -0.2805
 4477TIP3    H134922   0.904   2.375  16.887  0.3331  0.2816  0.2013
 4477TIP3    H234923   0.896   2.491  16.984 -1.3986  0.5331 -0.2100
 4478TIP3   OH234924   2.678   2.433  13.897  0.4821  0.0203 -0.0610
 4478TIP3    H134925   2.769   2.458  13.913  0.3218 -0.4967  1.8683
 4478TIP3    H234926   2.682   2.372  13.823  1.6467  0.2677 -0.2172
 4479TIP3   OH234927   5.562   6.755   4.687  0.4147  0.0305 -0.5075
 4479TIP3    H134928   5.548   6.849   4.674 -0.9609 -0.0226  0.4051
 4479TIP3    H234929   5.656   6.747   4.706  0.3697  1.3418  0.4031
 4480TIP3   OH234930   1.284   4.523  14.195  0.3199 -0.1973  0.4015
 4480TIP3    H134931   1.333   4.603  14.177 -0.3909  0.2390  0.3543
 4480TIP3    H234932   1.349   4.462  14.230  1.3027 -0.3365 -1.5519
 4481TIP3   OH234933   5.900   5.615  10.996 -0.4274 -0.3789  0.1010
 4481TIP3    H134934   5.882   5.624  10.903  1.4592 -0.6432 -0.3401
 4481TIP3    H234935   5.966   5.545  11.001 -0.6438 -0.5106  1.6545
 4482TIP3   OH234936   4.432   5.510   1.310  0.4370  0.2607 -0.4902
 4482TIP3    H134937   4.393   5.490   1.396  1.0647  0.1364 -0.2331
 4482TIP3    H234938   4.502   5.446   1.300  0.3051  0.2211 -1.1422
 4483TIP3   OH234939   2.464   6.289  14.156  0.0946  0.4565 -0.4645
 4483TIP3    H134940   2.519   6.272  14.080  0.1690  0.5962 -0.4425
 4483TIP3    H234941   2.406   6.360  14.129  0.5324  0.9304 -0.1914
 4484TIP3   OH234942   5.707   5.071  14.770 -0.1945 -0.8429 -0.0553
 4484TIP3    H134943   5.661   5.003  14.721 -1.2919 -1.1714  1.3517
 4484TIP3    H234944   5.655   5.150  14.755 -1.0484 -1.1363  1.2504
 4485TIP3   OH234945   1.008   6.317  13.308  0.2123 -0.5068  0.4663
 4485TIP3    H134946   0.955   6.393  13.331 -0.8867 -0.4980 -1.8085
 4485TIP3    H234947   0.957   6.242  13.338 -2.8796 -0.6930 -4.2680
 4486TIP3   OH234948   3.811   6.438  13.658  0.4306  0.0162  0.2764
 4486TIP3    H134949   3.774   6.526  13.653  1.3871  0.3861 -0.9152
 4486TIP3    H234950   3.894   6.450  13.705  0.9125 -0.1013 -0.5217
 4487TIP3   OH234951   2.543   0.040   6.438 -0.3214 -0.2966  0.2215
 4487TIP3    H134952   2.540  -0.033   6.377 -2.2500 -0.5747  0.5895
 4487TIP3    H234953   2.476   0.020   6.503 -1.7380  2.3117 -0.3057
 4488TIP3   OH234954   4.257   3.984  12.927  0.0965 -0.1672 -0.3181
 4488TIP3    H134955   4.347   3.976  12.959 -0.1770 -0.5254  0.3554
 4488TIP3    H234956   4.252   3.921  12.855  0.4718  0.0811 -0.5720
 4489TIP3   OH234957   6.653   6.810   4.170 -0.2064  0.2930  0.2395
 4489TIP3    H134958   6.590   6.859   4.116  0.8532  0.0130 -1.3233
 4489TIP3    H234959   6.695   6.877   4.223  1.1405  1.1591 -1.7826
 4490TIP3   OH234960   2.992   3.153   0.147  0.1288 -0.7892 -0.8497
 4490TIP3    H134961   3.024   3.074   0.190 -0.7674 -1.1104 -0.7392
 4490TIP3    H234962   2.953   3.204   0.218 -0.7188 -0.9920 -1.1613
 4491TIP3   OH234963   5.468   2.090   1.475 -0.4382  0.3106  0.1368
 4491TIP3    H134964   5.518   2.086   1.556 -0.7345  0.1277  0.3117
 4491TIP3    H234965   5.534   2.106   1.407 -0.3473  1.9689  0.5741
 4492TIP3   OH234966   0.880   0.085   0.344 -0.3355  0.3054  0.1338
 4492TIP3    H134967   0.950   0.151   0.342  0.0221 -0.0671 -1.4117
 4492TIP3    H234968   0.854   0.075   0.252 -1.5224 -0.5180  0.5348
 4493TIP3   OH234969   2.490   6.673   0.729  0.6243  0.1368 -0.4354
 4493TIP3    H134970   2.480   6.581   0.753  0.5529  0.0040 -0.9437
 4493TIP3    H234971   2.414   6.691   0.673  0.7093  0.4667 -0.4469
 4494TIP3   OH234972   0.248   3.852   1.132  0.2208 -0.0298  0.2951
 4494TIP3    H134973   0.164   3.893   1.151  0.2235 -0.2223  0.7266
 4494TIP3    H234974   0.226   3.761   1.111  0.2421  0.1184 -0.3900
 4495TIP3   OH234975   0.941   4.482  17.142 -0.0299 -0.3615  0.1653
 4495TIP3    H134976   1.009   4.484  17.075  0.8773  0.1505  1.0696
 4495TIP3    H234977   0.964   4.553  17.202  0.2672 -1.9466  2.0444
 4496TIP3   OH234978   4.165   1.994  12.269 -0.0330  0.1516 -0.7982
 4496TIP3    H134979   4.100   1.990  12.338  0.4096 -0.4058 -0.4003
 4496TIP3    H234980   4.220   1.917  12.283  0.6118  0.5189 -1.2184
 4497TIP3   OH234981   1.011   4.850  11.797  0.3097 -0.4748 -0.1475
 4497TIP3    H134982   0.942   4.784  11.809 -0.1828  0.2231  0.9645
 4497TIP3    H234983   1.075   4.830  11.866  0.1598  0.2062  0.1901
 4498TIP3   OH234984   0.725   4.625   1.359  0.0030  0.4664  0.3769
 4498TIP3    H134985   0.689   4.544   1.395  0.7106  0.1957  0.4897
 4498TIP3    H234986   0.668   4.694   1.393  0.4906  0.1958  1.8102
 4499TIP3   OH234987   3.026   6.167   3.252 -0.2828  0.1506 -0.1178
 4499TIP3    H134988   3.034   6.178   3.346  0.5847 -0.2202 -0.1434
 4499TIP3    H234989   3.058   6.249   3.215  1.6799 -0.5838 -0.1521
 4500TIP3   OH234990   0.235   6.239   0.151  0.0319 -0.0928  0.3421
 4500TIP3    H134991   0.326   6.249   0.122  0.3725  0.4837  1.5191
 4500TIP3    H234992   0.212   6.325   0.187 -0.9708 -0.2506  0.1130
 4501TIP3   OH234993   1.048   2.965   0.922 -0.6956  0.2331  0.0216
 4501TIP3    H134994   0.997   2.906   0.978 -1.7248 -0.5294 -1.6492
 4501TIP3    H234995   0.982   3.009   0.868  0.2965  0.5993 -0.9128
 4502TIP3   OH234996   3.492   5.434   1.732 -0.1427  0.0922  0.1482
 4502TIP3    H134997   3.401   5.464   1.740 -0.2341  0.8874 -2.7885
 4502TIP3    H234998   3.485   5.347   1.694  0.2621  0.7377 -1.5220
 4503TIP3   OH234999   2.796   6.730  12.540 -0.5773 -0.0460  0.0382
 4503TIP3    H135000   2.884   6.748  12.576 -1.4997  0.6597  2.1275
 4503TIP3    H235001   2.778   6.640  12.565 -0.2988 -0.3361 -0.7754
 4504TIP3   OH235002   0.869   0.995  17.133  0.3843  0.5508  0.0786
 4504TIP3    H135003   0.957   0.959  17.122  0.2141  0.2096 -0.1705
 4504TIP3    H235004   0.847   1.032  17.047 -0.1470 -0.3325 -0.1750
 4505TIP3   OH235005   4.181   2.063  11.662  0.0485  0.6818  0.3110
 4505TIP3    H135006   4.177   2.043  11.755 -1.0928 -1.7331 -0.1606
 4505TIP3    H235007   4.168   1.978  11.619  2.0414  1.4560 -2.0603
 4506TIP3   OH235008   4.840   1.375   0.337  0.3540 -0.4130 -0.4498
 4506TIP3    H135009   4.917   1.424   0.309 -0.5357  0.6670 -1.0610
 4506TIP3    H235010   4.810   1.419   0.417 -1.2225  0.9265 -1.7248
 4507TIP3   OH235011   3.532   2.903   0.808  0.2463 -0.2579 -0.0401
 4507TIP3    H135012   3.598   2.893   0.877  0.6021 -1.5445 -0.5255
 4507TIP3    H235013   3.583   2.917   0.728 -0.0974 -0.3139 -0.2697
 4508TIP3   OH235014   1.528   0.660  14.188 -0.3365 -0.3569  0.3321
 4508TIP3    H135015   1.508   0.754  14.178 -1.5606 -0.7462 -1.5224
 4508TIP3    H235016   1.449   0.616  14.157  0.2356 -2.0265  1.1466
 4509TIP3   OH235017   1.272   0.339  16.926  0.3973  0.0079 -0.6174
 4509TIP3    H135018   1.330   0.389  16.983 -0.4428  0.1837  0.1118
 4509TIP3    H235019   1.196   0.320  16.981  0.4788 -1.6522 -1.0258
 4510TIP3   OH235020   2.771   4.199  14.162  0.2315 -0.2762  0.0124
 4510TIP3    H135021   2.828   4.269  14.129 -0.0897 -0.4501 -0.9385
 4510TIP3    H235022   2.822   4.119  14.149 -0.4809 -0.5115 -1.5033
 4511TIP3   OH235023   1.449   4.330  15.755  0.2403 -1.0449  0.4293
 4511TIP3    H135024   1.413   4.253  15.800  0.2557 -1.2795  0.0526
 4511TIP3    H235025   1.403   4.404  15.793 -1.4930 -1.4121 -0.8168
 4512TIP3   OH235026   5.978   5.093   1.448  0.3612  0.0336 -0.0166
 4512TIP3    H135027   6.070   5.116   1.432  0.8646 -2.2062 -0.5682
 4512TIP3    H235028   5.980   5.039   1.527 -0.4402 -0.3040 -0.2159
 4513TIP3   OH235029   3.762   2.760  13.889  0.3313 -0.0880  0.0001
 4513TIP3    H135030   3.718   2.740  13.971  2.3510  0.1387  1.2138
 4513TIP3    H235031   3.792   2.676  13.855  0.3358 -0.0865 -0.0000
 4514TIP3   OH235032   6.419   1.573  16.937 -0.1720 -0.5304 -0.2682
 4514TIP3    H135033   6.510   1.600  16.945 -0.3138 -0.0456 -0.2949
 4514TIP3    H235034   6.414   1.532  16.850 -0.0637 -0.2199 -0.4240
 4515TIP3   OH235035   5.632   2.070  12.228 -0.4912 -0.1338  0.2662
 4515TIP3    H135036   5.641   1.976  12.214 -1.7262 -0.4543  1.4657
 4515TIP3    H235037   5.573   2.099  12.159  0.8633  0.0287 -0.8832
 4516TIP3   OH235038   6.253   2.455   2.287 -0.2115 -0.8534  0.2637
 4516TIP3    H135039   6.283   2.393   2.221 -0.7910 -1.6218  0.7018
 4516TIP3    H235040   6.263   2.541   2.246 -1.3502 -1.3569 -1.1476
 4517TIP3   OH235041   6.222   0.918   6.363  0.3961  0.2144 -0.1001
 4517TIP3    H135042   6.298   0.975   6.347  0.6907 -0.2614 -0.4256
 4517TIP3    H235043   6.254   0.855   6.427 -0.4742  1.4975  1.6835
 4518TIP3   OH235044   3.069   5.323   3.574  0.1742 -0.1994  0.4311
 4518TIP3    H135045   3.090   5.240   3.530  2.8260  1.0233 -0.8328
 4518TIP3    H235046   3.032   5.378   3.506  3.1658  1.2912 -0.1545
 4519TIP3   OH235047   3.005   3.545  16.483 -0.0878  0.0132  0.5731
 4519TIP3    H135048   2.970   3.613  16.425  1.8076 -0.4132 -1.2188
 4519TIP3    H235049   2.986   3.463  16.438 -2.3268 -0.7315  2.7075
 4520TIP3   OH235050   3.146   0.806   5.422  0.5631  0.5618 -0.2449
 4520TIP3    H135051   3.172   0.717   5.447  1.8463  0.2536 -2.4422
 4520TIP3    H235052   3.058   0.816   5.459 -1.0164 -2.8391 -2.5444
 4521TIP3   OH235053   4.324   2.453  14.103 -0.2344 -0.2281  0.4625
 4521TIP3    H135054   4.229   2.460  14.088 -0.0963  2.9839  0.3418
 4521TIP3    H235055   4.360   2.429  14.018 -0.7710  1.3844 -0.2648
 4522TIP3   OH235056   3.080   5.122   0.647  0.3133 -0.2069  0.6816
 4522TIP3    H135057   3.168   5.150   0.673 -0.2728  2.1600  0.3710
 4522TIP3    H235058   3.021   5.180   0.696 -0.9375  0.6924 -1.7079
 4523TIP3   OH235059   0.426   5.752  15.979  0.9904 -0.5931 -0.3098
 4523TIP3    H135060   0.496   5.743  16.043  0.4115  0.0904  0.4372
 4523TIP3    H235061   0.363   5.684  16.002  0.7749 -0.3385 -0.1379
 4524TIP3   OH235062   0.067   3.331  13.131 -0.8017  0.1479  0.3710
 4524TIP3    H135063   0.063   3.345  13.036 -1.5240 -0.3702  0.3163
 4524TIP3    H235064   0.154   3.361  13.156  0.0250 -1.2468 -0.7189
 4525TIP3   OH235065   2.206   6.497   5.012 -0.0836  0.1407 -0.4043
 4525TIP3    H135066   2.298   6.476   4.998 -0.1040  0.5436 -1.2234
 4525TIP3    H235067   2.158   6.429   4.965 -0.1712  0.7465 -1.2296
 4526TIP3   OH235068   5.780   1.038  15.143 -0.0023  0.2406 -0.8630
 4526TIP3    H135069   5.832   1.097  15.198  0.1938 -1.0088  0.3558
 4526TIP3    H235070   5.732   1.096  15.084  0.9584  1.5500 -0.4057
 4527TIP3   OH235071   0.859   1.235   4.125 -0.1843 -0.2994 -0.3079
 4527TIP3    H135072   0.894   1.323   4.114  0.2211  0.1416  3.3926
 4527TIP3    H235073   0.904   1.183   4.059  0.6930  1.9493 -1.5933
 4528TIP3   OH235074   4.397   0.317  15.837 -0.3663  0.2272  0.1309
 4528TIP3    H135075   4.418   0.410  15.845  0.5201  0.0474  0.0781
 4528TIP3    H235076   4.455   0.285  15.768 -0.4145 -0.4301  0.3838
 4529TIP3   OH235077   3.689   2.379   1.152  0.3441  0.0818  0.2603
 4529TIP3    H135078   3.605   2.423   1.149 -0.2175 -0.9939 -0.5449
 4529TIP3    H235079   3.673   2.294   1.111  1.7482 -0.2614  0.3724
 4530TIP3   OH235080   0.346   5.747   3.736 -0.1965  0.1993  0.3698
 4530TIP3    H135081   0.407   5.752   3.663 -0.6417  0.2921  0.0045
 4530TIP3    H235082   0.263   5.779   3.701 -0.7188 -0.8652  0.5912
 4531TIP3   OH235083   6.149   3.920  16.527  0.7290 -0.4491  0.7229
 4531TIP3    H135084   6.121   3.848  16.584  0.7557 -1.7611 -0.8412
 4531TIP3    H235085   6.083   3.988  16.540 -0.6500 -1.6894  0.5176
 4532TIP3   OH235086   6.179   4.283   4.908 -0.5351  0.4429  0.1848
 4532TIP3    H135087   6.197   4.376   4.920  0.3553  0.3450 -0.2729
 4532TIP3    H235088   6.152   4.275   4.817  3.9221 -0.2857 -1.3467
 4533TIP3   OH235089   5.019   4.328   7.136  0.2345  0.1706 -0.2935
 4533TIP3    H135090   5.077   4.269   7.087 -0.6487  0.3479 -1.6163
 4533TIP3    H235091   4.936   4.325   7.088 -0.4181  1.0027  0.7424
 4534TIP3   OH235092   3.324   0.189  12.145  0.1834  0.1712  0.1731
 4534TIP3    H135093   3.247   0.215  12.196  0.0997 -1.2157  0.7786
 4534TIP3    H235094   3.304   0.218  12.056 -1.1583 -0.3644  0.2751
 4535TIP3   OH235095   6.774   5.940   3.070  0.0337  0.3960 -0.8190
 4535TIP3    H135096   6.709   5.875   3.041  0.3218  0.3169 -1.3025
 4535TIP3    H235097   6.729   6.024   3.063 -0.5278  0.2005  0.3545
 4536TIP3   OH235098   2.737   1.552  14.304  0.3667  0.3734  0.2529
 4536TIP3    H135099   2.732   1.605  14.224 -0.7974 -0.1395 -0.0425
 4536TIP3    H235100   2.781   1.472  14.278  1.8952  1.0502  0.6405
 4537TIP3   OH235101   1.530   2.340   4.916  0.1566 -0.1623  0.6380
 4537TIP3    H135102   1.453   2.388   4.884  0.7656  0.6970  0.4332
 4537TIP3    H235103   1.574   2.309   4.837  0.7743  0.5612  0.6848
 4538TIP3   OH235104   6.681   0.424   0.555 -0.2599  0.1367 -0.2833
 4538TIP3    H135105   6.633   0.371   0.492 -0.3309  0.7710 -0.7681
 4538TIP3    H235106   6.619   0.439   0.626 -0.4808  0.1955 -0.4892
 4539TIP3   OH235107   1.231   5.475   5.101 -0.0954 -0.0969  0.3560
 4539TIP3    H135108   1.162   5.468   5.167  0.9552 -2.3834  1.3402
 4539TIP3    H235109   1.312   5.482   5.153  0.7140 -1.3935 -0.6918
 4540TIP3   OH235110   1.002   1.367  14.912  0.1238 -0.3944  0.5907
 4540TIP3    H135111   1.028   1.452  14.876  0.9942 -0.4869  0.9828
 4540TIP3    H235112   0.938   1.333  14.849 -0.7190  0.8230  0.7553
 4541TIP3   OH235113   6.187   1.598   6.143  0.4172 -0.3192 -0.0748
 4541TIP3    H135114   6.110   1.541   6.138 -0.0256  0.0153  2.0416
 4541TIP3    H235115   6.167   1.658   6.214  2.4585  0.0643  0.2182
 4542TIP3   OH235116   3.827   0.147   4.046  0.2469  0.7896  0.0249
 4542TIP3    H135117   3.745   0.102   4.028  0.3768  0.6130 -0.1300
 4542TIP3    H235118   3.839   0.139   4.140 -0.5657  1.9389  0.2575
 4543TIP3   OH235119   0.174   6.302  14.970 -0.2386 -0.4313  0.3604
 4543TIP3    H135120   0.249   6.300  14.911  0.8653 -1.2982  1.7254
 4543TIP3    H235121   0.212   6.306  15.057 -1.8187  0.6900  1.0482
 4544TIP3   OH235122   3.127   6.069  14.301  0.0487 -0.2527  0.0287
 4544TIP3    H135123   3.052   6.036  14.253 -0.3827 -0.8654  1.0801
 4544TIP3    H235124   3.115   6.036  14.390  1.7036 -0.6041  0.1630
 4545TIP3   OH235125   1.666   3.470   3.114  0.3484 -0.2550  0.1296
 4545TIP3    H135126   1.622   3.462   3.029  1.6726 -1.1150 -0.5173
 4545TIP3    H235127   1.729   3.397   3.115  0.3056 -0.2985  1.8866
 4546TIP3   OH235128   5.223   3.162  15.496 -0.2362  0.2762  0.2940
 4546TIP3    H135129   5.191   3.122  15.416 -0.7214 -2.5548  1.7675
 4546TIP3    H235130   5.318   3.146  15.495 -0.3349 -0.3425  0.5720
 4547TIP3   OH235131   0.634   3.627   4.376 -0.7797 -0.1769 -0.4160
 4547TIP3    H135132   0.612   3.541   4.413 -0.2546 -0.3252 -0.4349
 4547TIP3    H235133   0.634   3.686   4.451 -2.1627  0.0221 -0.5507
 4548TIP3   OH235134   4.262   5.912  10.987 -0.1720  0.3331 -0.0635
 4548TIP3    H135135   4.229   5.831  10.947  0.7688 -0.3343  0.4651
 4548TIP3    H235136   4.186   5.969  10.993 -0.7215 -0.2695 -1.0470
 4549TIP3   OH235137   1.371   0.425  13.584 -0.3934 -0.0997  0.4098
 4549TIP3    H135138   1.462   0.406  13.608 -0.4956  0.1675  1.0245
 4549TIP3    H235139   1.337   0.341  13.553  0.1401 -0.1394 -0.0906
 4550TIP3   OH235140   0.529   3.231  11.123 -0.2296 -0.4362 -0.6053
 4550TIP3    H135141   0.597   3.252  11.186 -1.0469 -1.0627  0.5454
 4550TIP3    H235142   0.490   3.315  11.100 -1.2255 -0.3219  1.2994
 4551TIP3   OH235143   0.622   0.415   3.258 -0.1663  0.5360 -0.1542
 4551TIP3    H135144   0.528   0.406   3.244  0.0268 -1.7257 -0.3219
 4551TIP3    H235145   0.634   0.506   3.287 -2.3052  1.0290 -0.7011
 4552TIP3   OH235146   3.609   3.154  13.109  0.2595 -0.4310  0.3027
 4552TIP3    H135147   3.644   3.209  13.039 -0.2842 -0.8121 -0.2931
 4552TIP3    H235148   3.601   3.067  13.068 -1.0934 -0.4149  0.4885
 4553TIP3   OH235149   5.718   3.696  17.086  0.3940 -0.1663  0.2292
 4553TIP3    H135150   5.642   3.742  17.052  0.6674 -0.6763 -1.1112
 4553TIP3    H235151   5.683   3.632  17.148 -0.2776 -0.5416 -0.5411
 4554TIP3   OH235152   1.442   3.501  10.916 -0.6862 -0.0645  0.4427
 4554TIP3    H135153   1.401   3.580  10.953 -0.7773 -0.9356  2.2967
 4554TIP3    H235154   1.369   3.441  10.900 -0.3409 -1.4096  3.2385
 4555TIP3   OH235155   5.421   3.970   4.771  0.1388  0.2979 -0.1897
 4555TIP3    H135156   5.493   3.910   4.789 -0.0226 -0.0510 -0.6870
 4555TIP3    H235157   5.448   4.016   4.691 -0.6190 -0.5469 -0.9567
 4556TIP3   OH235158   4.969   4.490   0.503  0.6757 -0.5437 -0.3960
 4556TIP3    H135159   4.905   4.559   0.484 -1.3628 -2.0297  0.6820
 4556TIP3    H235160   4.981   4.494   0.598  0.6210 -1.5700 -0.3360
 4557TIP3   OH235161   0.861   0.510   2.690  0.5829 -0.0091 -0.3820
 4557TIP3    H135162   0.864   0.558   2.773  0.9544 -1.0360  0.2137
 4557TIP3    H235163   0.878   0.577   2.624  2.3678  0.4917  0.5083
 4558TIP3   OH235164   1.675   1.175   4.834  0.4171  0.2183  0.2510
 4558TIP3    H135165   1.716   1.168   4.748  0.2818  1.2402  0.0913
 4558TIP3    H235166   1.721   1.246   4.877 -0.9325  1.1686  0.1982
 4559TIP3   OH235167   4.190   2.034   2.343 -0.0558 -0.0834 -0.0010
 4559TIP3    H135168   4.116   1.978   2.321 -1.2068  1.6581 -0.7078
 4559TIP3    H235169   4.151   2.109   2.387  1.3136  0.7875 -0.2165
 4560TIP3   OH235170   0.933   6.779  15.427 -0.0825 -0.2811  0.4783
 4560TIP3    H135171   0.946   6.770  15.332  1.8719 -0.4567  0.7217
 4560TIP3    H235172   0.838   6.773  15.439 -0.3351 -0.6950 -1.4126
 4561TIP3   OH235173   5.386   4.230   4.432  0.3260  0.0711  0.5813
 4561TIP3    H135174   5.365   4.244   4.525 -1.7701  0.4627  0.1129
 4561TIP3    H235175   5.364   4.313   4.390  0.0137 -0.5043 -0.4336
 4562TIP3   OH235176   0.928   3.651   6.234 -0.2829  0.1850 -0.1253
 4562TIP3    H135177   0.988   3.577   6.230  0.4092  0.7485 -0.2799
 4562TIP3    H235178   0.919   3.680   6.143 -0.7443  0.1457 -0.0967
 4563TIP3   OH235179   5.048   4.221   5.031  0.1252  0.3800  0.3597
 4563TIP3    H135180   4.971   4.277   5.019 -0.4329 -0.0819  1.5946
 4563TIP3    H235181   5.107   4.245   4.959 -0.4376  1.9686  0.3850
 4564TIP3   OH235182   1.472   1.030  11.081  0.0351 -0.1076  0.3174
 4564TIP3    H135183   1.418   1.073  11.015  1.5474  2.4741  0.6161
 4564TIP3    H235184   1.518   0.961  11.034 -1.9965 -1.0881 -0.3416
 4565TIP3   OH235185   2.463   4.244   5.428 -0.3192  0.1370  0.2815
 4565TIP3    H135186   2.536   4.184   5.411 -1.5801 -1.8902  1.6214
 4565TIP3    H235187   2.386   4.187   5.434 -1.9460  2.1370 -0.4282
 4566TIP3   OH235188   1.586   5.554  14.861 -0.5598 -0.2702  0.4969
 4566TIP3    H135189   1.499   5.513  14.863 -0.6950 -0.2536 -2.0277
 4566TIP3    H235190   1.647   5.481  14.862 -0.5945 -0.3019  1.6155
 4567TIP3   OH235191   1.649   4.354  14.744 -0.3061 -0.3873 -0.1978
 4567TIP3    H135192   1.562   4.316  14.740 -0.7229  0.5395 -0.3626
 4567TIP3    H235193   1.658   4.386  14.834 -0.3012 -0.1240 -0.2895
 4568TIP3   OH235194   0.721   1.952   2.723 -0.3231  0.2303 -0.0955
 4568TIP3    H135195   0.641   1.996   2.753 -2.0860 -1.7763 -1.6084
 4568TIP3    H235196   0.763   1.921   2.804 -1.8286  0.0625  0.6508
 4569TIP3   OH235197   3.565   1.602   2.229 -0.4521  0.2348  0.1289
 4569TIP3    H135198   3.635   1.540   2.248 -1.2789 -1.1107 -1.0357
 4569TIP3    H235199   3.607   1.688   2.235  0.8432 -0.4310  1.2637
 4570TIP3   OH235200   0.765   0.521   2.367  0.4891 -0.4355  0.1044
 4570TIP3    H135201   0.703   0.530   2.295  0.3066 -0.1614  0.2922
 4570TIP3    H235202   0.744   0.437   2.408  0.1978 -0.3154  0.2048
 4571TIP3   OH235203   2.219   4.912  15.326  0.1745 -0.8363  0.1548
 4571TIP3    H135204   2.130   4.885  15.303 -0.3888  1.0457 -0.0873
 4571TIP3    H235205   2.230   4.885  15.417 -0.2666 -1.9339 -0.1020
 4572TIP3   OH235206   1.007   0.347  16.220 -0.3244  0.0134  0.1333
 4572TIP3    H135207   1.091   0.343  16.174 -0.7617  0.7510 -0.7685
 4572TIP3    H235208   0.976   0.257  16.223 -0.7423  0.0450 -1.9317
 4573TIP3   OH235209   2.323   5.309  14.538 -0.4011 -0.0401 -0.5256
 4573TIP3    H135210   2.244   5.288  14.488 -0.2088 -0.4961 -0.6429
 4573TIP3    H235211   2.291   5.351  14.617 -0.8457 -1.3413  0.0051
 4574TIP3   OH235212   1.910   4.979  12.728 -0.7205  0.4137  0.2997
 4574TIP3    H135213   1.974   4.908  12.720  0.0940  1.2129 -0.5104
 4574TIP3    H235214   1.900   5.013  12.639 -2.4103  0.2222  0.3740
 4575TIP3   OH235215   1.814   1.835  12.101  0.2125  0.2994  0.2720
 4575TIP3    H135216   1.909   1.830  12.107  0.1425 -1.3637  0.2671
 4575TIP3    H235217   1.787   1.752  12.061 -1.2421  0.7387  0.2692
 4576TIP3   OH235218   4.452   5.346   4.631  0.0215 -0.3213  0.4568
 4576TIP3    H135219   4.457   5.272   4.570  0.6733 -0.4884  0.7109
 4576TIP3    H235220   4.541   5.358   4.662  0.0129  0.8543  0.0932
 4577TIP3   OH235221   1.425   1.773  12.791  0.2059  0.8875  0.2358
 4577TIP3    H135222   1.509   1.737  12.762 -0.2769  0.9464 -1.3198
 4577TIP3    H235223   1.438   1.867  12.794  0.1884  0.8982 -0.0281
 4578TIP3   OH235224   4.225   2.237  15.291 -0.0023 -0.2196 -0.4640
 4578TIP3    H135225   4.183   2.153  15.307 -0.9645  0.8048  3.3445
 4578TIP3    H235226   4.205   2.257  15.200 -5.1241 -1.3102  0.1391
 4579TIP3   OH235227   2.829   4.029  13.477  0.6239 -0.2029  0.1066
 4579TIP3    H135228   2.861   4.059  13.562  1.2422  0.4398 -0.3372
 4579TIP3    H235229   2.777   3.951  13.497  0.4211  0.1684  1.1111
 4580TIP3   OH235230   4.591   4.553  16.442  0.2123 -0.4192  0.7953
 4580TIP3    H135231   4.592   4.639  16.484  0.1964 -0.0992  0.1471
 4580TIP3    H235232   4.524   4.560  16.374  1.7109 -0.2362 -0.7230
 4581TIP3   OH235233   4.213   2.191   6.065 -0.2200 -0.9945 -0.1879
 4581TIP3    H135234   4.132   2.240   6.052  0.7844  0.6107 -0.6934
 4581TIP3    H235235   4.279   2.241   6.018  0.9917 -2.5404 -0.2178
 4582TIP3   OH235236   2.787   6.709  14.101  0.5840  0.3761  0.2048
 4582TIP3    H135237   2.831   6.738  14.181  0.0563  0.1690  0.5763
 4582TIP3    H235238   2.832   6.628  14.078 -0.5858 -0.6692  1.4535
 4583TIP3   OH235239   3.021   2.997  16.607 -0.1925 -0.7078 -0.0363
 4583TIP3    H135240   2.972   2.981  16.527  1.8254 -3.0959 -0.9084
 4583TIP3    H235241   3.105   3.031  16.578 -0.6080  1.7893  1.3520
 4584TIP3   OH235242   4.655   2.216  14.811  0.4627 -0.7415 -0.2120
 4584TIP3    H135243   4.585   2.260  14.860 -0.8296 -0.9164 -1.8217
 4584TIP3    H235244   4.708   2.288  14.776 -0.4063 -0.4874 -1.0641
 4585TIP3   OH235245   5.417   4.491   2.221 -0.2481  0.3160 -0.0101
 4585TIP3    H135246   5.420   4.395   2.218  0.1422  0.3280 -0.2094
 4585TIP3    H235247   5.494   4.518   2.170 -0.6324  0.7382 -0.3785
 4586TIP3   OH235248   0.068   4.949   0.375  0.1289  0.2406 -0.5292
 4586TIP3    H135249   0.117   4.936   0.456  0.4821 -0.2311 -0.8147
 4586TIP3    H235250   0.132   4.984   0.313  0.3601 -1.2360 -1.1795
 4587TIP3   OH235251   1.649   6.318   5.654 -0.3732 -0.3159 -0.1354
 4587TIP3    H135252   1.580   6.257   5.680 -0.8489  0.1278 -0.3401
 4587TIP3    H235253   1.672   6.293   5.565 -0.7986  0.0086 -0.3372
 4588TIP3   OH235254   1.020   0.930  15.624 -0.5375 -0.0435 -0.8838
 4588TIP3    H135255   1.089   0.896  15.682 -0.3360  1.5261 -0.1511
 4588TIP3    H235256   0.949   0.954  15.684  0.2388  2.9954 -1.0289
 4589TIP3   OH235257   1.207   6.180  15.049 -0.0198 -0.1968  0.0924
 4589TIP3    H135258   1.249   6.226  14.977  1.3008  0.1681  1.0586
 4589TIP3    H235259   1.229   6.088  15.035  3.7343  0.2220  2.1254
 4590TIP3   OH235260   6.163   1.742  13.557 -0.1071  0.1336  0.4273
 4590TIP3    H135261   6.257   1.728  13.568 -0.1356  0.2501  0.8356
 4590TIP3    H235262   6.155   1.829  13.518 -0.0929  0.6746  1.5878
 4591TIP3   OH235263   1.398   3.443  11.398 -0.3003  0.1549  0.2617
 4591TIP3    H135264   1.366   3.426  11.487  0.0599 -2.7885 -0.0781
 4591TIP3    H235265   1.363   3.530  11.376  0.8650  1.7079  3.7952
 4592TIP3   OH235266   5.890   5.877  16.296 -0.3803 -0.0691  0.0775
 4592TIP3    H135267   5.852   5.945  16.242  0.2039 -0.8285 -1.3251
 4592TIP3    H235268   5.926   5.923  16.372 -0.3534  1.1302 -0.6516
 4593TIP3   OH235269   3.801   5.160   5.830  0.6773  0.0205  0.6849
 4593TIP3    H135270   3.747   5.133   5.905  0.3408  0.1022  0.4742
 4593TIP3    H235271   3.849   5.081   5.806 -0.6593 -0.5508 -0.2310
 4594TIP3   OH235272   0.941   1.014  11.440  0.0538  0.0330 -0.2357
 4594TIP3    H135273   1.008   0.947  11.454  0.3505  0.3521 -0.1121
 4594TIP3    H235274   0.865   0.983  11.489  0.4444  0.1694  0.4663
 4595TIP3   OH235275   4.389   3.674  16.339 -0.1335  0.1026 -0.1418
 4595TIP3    H135276   4.465   3.626  16.304 -1.1944 -1.1770 -0.7480
 4595TIP3    H235277   4.328   3.679  16.265 -0.7218  0.9664  0.3897
 4596TIP3   OH235278   2.317   0.925   1.944  0.4050  0.1170  0.4263
 4596TIP3    H135279   2.367   0.857   1.900 -0.7575  0.9877 -2.5177
 4596TIP3    H235280   2.233   0.884   1.965  0.6010 -0.0248  0.9419
 4597TIP3   OH235281   6.339   1.424   4.049 -0.6312 -0.4974  0.3595
 4597TIP3    H135282   6.427   1.459   4.035 -0.1121 -0.3816  3.2622
 4597TIP3    H235283   6.285   1.502   4.063 -0.0074 -0.5678  4.0898
 4598TIP3   OH235284   5.282   2.185   2.985  0.2831  0.4324  0.3196
 4598TIP3    H135285   5.266   2.278   2.999  0.7306  0.5461  0.0631
 4598TIP3    H235286   5.223   2.142   3.048  0.9342  0.9056  1.2886
 4599TIP3   OH235287   3.051   1.714   2.948 -0.8737  0.2338 -0.4216
 4599TIP3    H135288   3.031   1.718   3.041 -0.7599  0.1972 -0.3958
 4599TIP3    H235289   2.971   1.745   2.905 -1.3666 -0.9276 -0.3609
 4600TIP3   OH235290   3.613   1.620  16.449  0.4338 -0.2316  0.2473
 4600TIP3    H135291   3.689   1.596  16.502  0.8446 -3.3260 -1.5077
 4600TIP3    H235292   3.644   1.615  16.359 -1.4638 -0.1212 -0.4633
 4601TIP3   OH235293   0.943   5.393  16.595  0.2918 -0.5647  0.2514
 4601TIP3    H135294   0.917   5.328  16.661 -1.7515 -1.1581 -1.0527
 4601TIP3    H235295   1.017   5.352  16.549  0.7377 -0.7952  1.1436
 4602TIP3   OH235296   5.523   5.479  16.952 -0.0945 -0.0539 -0.7623
 4602TIP3    H135297   5.489   5.403  17.000 -0.9656  0.6483 -0.2355
 4602TIP3    H235298   5.561   5.442  16.873  1.5676 -1.2659  0.5360
 4603TIP3   OH235299   2.063   5.444  10.840  0.1817 -0.2247  0.1120
 4603TIP3    H135300   2.003   5.516  10.821  0.2160 -0.4121 -0.7455
 4603TIP3    H235301   2.108   5.470  10.920 -2.6089 -1.0428  2.1122
 4604TIP3   OH235302   5.384   0.375   1.205  0.1903  0.0040  0.6157
 4604TIP3    H135303   5.427   0.325   1.274 -0.1300  0.0868  0.8743
 4604TIP3    H235304   5.306   0.324   1.183  0.2806 -0.0118  0.3278
 4605TIP3   OH235305   3.285   0.776   4.533  0.4377  0.3285  0.1656
 4605TIP3    H135306   3.311   0.699   4.584 -0.1445  0.5770  0.8524
 4605TIP3    H235307   3.367   0.818   4.509  0.7395 -0.1383  0.3582
 4606TIP3   OH235308   4.480   5.021   0.702  0.1478  0.2211  0.1373
 4606TIP3    H135309   4.475   4.982   0.790  0.7682 -0.4446 -0.1233
 4606TIP3    H235310   4.563   5.067   0.701  0.0571  0.3817 -0.0416
 4607TIP3   OH235311   2.982   1.100   5.537 -0.2509  0.0393  0.1379
 4607TIP3    H135312   2.969   1.107   5.632  0.3667  1.7405  0.1255
 4607TIP3    H235313   2.935   1.175   5.500  1.5857  0.8775 -0.6616
 4608TIP3   OH235314   1.327   5.287   1.923  0.2779 -0.9576 -0.2200
 4608TIP3    H135315   1.349   5.378   1.901  1.6777 -1.3802 -0.6948
 4608TIP3    H235316   1.320   5.287   2.019  1.9031 -0.6474 -0.0693
 4609TIP3   OH235317   5.461   4.660   3.316 -0.1130  0.2113 -0.0724
 4609TIP3    H135318   5.489   4.637   3.228  1.4804 -0.1055  0.4853
 4609TIP3    H235319   5.413   4.583   3.347  3.6527 -1.9485  1.1213
 4610TIP3   OH235320   1.852   2.525   5.374  0.2843 -0.3776  0.9305
 4610TIP3    H135321   1.834   2.619   5.376 -1.9472 -0.7514  1.1608
 4610TIP3    H235322   1.934   2.515   5.423  1.2224  1.5315 -0.1250
 4611TIP3   OH235323   3.186   0.101   3.765 -0.1333  0.7099 -0.4142
 4611TIP3    H135324   3.253   0.152   3.811 -0.7961  1.3611 -0.1603
 4611TIP3    H235325   3.133   0.063   3.836  0.6528 -0.7750 -0.5760
 4612TIP3   OH235326   5.079   3.512   3.821 -0.2997 -0.2876 -0.3819
 4612TIP3    H135327   5.034   3.593   3.844  0.8618 -0.1488  1.6950
 4612TIP3    H235328   5.034   3.481   3.742 -1.1534  2.0475 -0.9122
 4613TIP3   OH235329   4.738   5.221  11.272  0.0124  0.3976 -0.3721
 4613TIP3    H135330   4.660   5.229  11.217  0.5675  1.6305 -1.0405
 4613TIP3    H235331   4.757   5.311  11.299  1.2118  0.1274 -0.2511
 4614TIP3   OH235332   0.500   6.471   3.048  0.0924 -0.2298 -0.3034
 4614TIP3    H135333   0.506   6.500   3.139  0.0593  0.6029 -0.5587
 4614TIP3    H235334   0.423   6.415   3.046 -3.4209  4.0678 -0.8942
 4615TIP3   OH235335   1.525   1.339  12.121  0.3439  0.8575 -0.2273
 4615TIP3    H135336   1.538   1.257  12.168  1.9472  1.2479  0.0854
 4615TIP3    H235337   1.578   1.330  12.042 -0.4089  1.1358 -0.7684
 4616TIP3   OH235338   6.476   0.333   0.008 -0.1143 -0.2646  0.0798
 4616TIP3    H135339   6.416   0.314   0.080  1.2179 -0.3832  1.2114
 4616TIP3    H235340   6.515   0.248  -0.014 -1.8027 -0.5716 -2.0687
 4617TIP3   OH235341   3.485   5.507   0.654  0.3640 -0.2457 -0.1114
 4617TIP3    H135342   3.460   5.426   0.698  1.0571 -1.2614 -1.5113
 4617TIP3    H235343   3.569   5.531   0.693  0.0560 -0.0710  0.4554
 4618TIP3   OH235344   4.957   6.062   5.859 -0.2135  0.0941  0.1486
 4618TIP3    H135345   4.902   6.025   5.928  0.5156  0.4171  0.9138
 4618TIP3    H235346   5.025   6.111   5.905 -0.6334  1.6725 -0.8157
 4619TIP3   OH235347   5.830   2.755  16.593 -0.5157 -0.3495 -0.2100
 4619TIP3    H135348   5.785   2.776  16.675 -1.3482  0.0292 -0.7448
 4619TIP3    H235349   5.845   2.661  16.597 -1.7084 -0.5535 -0.1682
 4620TIP3   OH235350   5.236   4.906  14.984  0.0028 -0.7506 -0.3119
 4620TIP3    H135351   5.242   4.850  14.907  3.0656  1.9172 -2.2930
 4620TIP3    H235352   5.216   4.993  14.949  2.0029  0.6640  1.7549
 4621TIP3   OH235353   5.031   3.360  12.901 -0.0817  0.4196 -0.2559
 4621TIP3    H135354   4.945   3.385  12.936 -0.1736 -0.4509  0.1706
 4621TIP3    H235355   5.065   3.441  12.862 -1.1378  0.7542 -0.5343
 4622TIP3   OH235356   4.860   0.954   0.287 -0.3735  0.3084 -0.6211
 4622TIP3    H135357   4.776   0.960   0.331 -0.8658  0.4967 -1.5774
 4622TIP3    H235358   4.877   0.859   0.282 -0.3218  0.2825 -0.0670
 4623TIP3   OH235359   5.176   1.142   1.775  0.3245 -0.3183  0.7655
 4623TIP3    H135360   5.194   1.125   1.683 -0.9129 -0.4434  0.5371
 4623TIP3    H235361   5.260   1.173   1.810  0.3657  1.5311 -0.8213
 4624TIP3   OH235362   6.193   6.003  16.628  0.1884  0.3447  0.7276
 4624TIP3    H135363   6.220   6.016  16.537 -0.6034 -0.5970  0.3415
 4624TIP3    H235364   6.275   6.001  16.677  0.5499  2.6113  0.3085
 4625TIP3   OH235365   0.200   0.052   4.132  0.1217  0.0749 -0.1312
 4625TIP3    H135366   0.220   0.106   4.209 -1.3350  1.5633 -0.7381
 4625TIP3    H235367   0.285   0.037   4.091  0.8179  0.0268  1.2555
 4626TIP3   OH235368   4.546   2.784   4.891  0.5216 -0.4188 -0.1823
 4626TIP3    H135369   4.557   2.696   4.855  1.3619 -1.0305  1.4422
 4626TIP3    H235370   4.633   2.824   4.884  0.3689 -0.0566 -0.0463
 4627TIP3   OH235371   2.135   2.385   5.823  0.1688 -0.0235  0.1305
 4627TIP3    H135372   2.215   2.396   5.771  1.2677 -0.7231  1.5934
 4627TIP3    H235373   2.137   2.458   5.886 -2.1712  2.0099 -1.9284
 4628TIP3   OH235374   4.135   5.768   2.941  0.3830 -0.2455 -0.0573
 4628TIP3    H135375   4.091   5.721   3.013 -0.3186  1.0695  0.4045
 4628TIP3    H235376   4.226   5.777   2.971  0.1730  0.0048  0.5239
 4629TIP3   OH235377   1.366   3.561  11.682  0.3676  0.3032  0.2123
 4629TIP3    H135378   1.393   3.602  11.764 -2.1342 -1.2401  1.9354
 4629TIP3    H235379   1.308   3.626  11.641 -0.3354  0.1186  0.9032
 4630TIP3   OH235380   2.089   6.752   3.922  0.3174  0.5497  0.3955
 4630TIP3    H135381   2.076   6.663   3.891  0.0707  0.7837 -0.1813
 4630TIP3    H235382   2.141   6.795   3.854 -0.2115  1.0578  0.2989
 4631TIP3   OH235383   3.092   6.214   3.513  0.0673  0.3323  0.0246
 4631TIP3    H135384   3.099   6.307   3.532 -4.7046  1.1547 -1.0388
 4631TIP3    H235385   3.029   6.181   3.577 -0.9182 -1.3544 -1.7018
 4632TIP3   OH235386   3.812   4.529  11.265  0.0447  0.6060  1.3255
 4632TIP3    H135387   3.892   4.504  11.219 -0.2703  1.9619 -0.0431
 4632TIP3    H235388   3.798   4.620  11.241 -3.8456 -0.4708 -1.5310
 4633TIP3   OH235389   0.141   4.864  11.601  0.0073 -0.1247 -0.2362
 4633TIP3    H135390   0.193   4.890  11.525  0.3911 -2.1866 -0.7491
 4633TIP3    H235391   0.169   4.923  11.671  1.0187  0.5935 -1.2204
 4634TIP3   OH235392   1.934   3.311  16.825  0.4872 -0.1211  0.0825
 4634TIP3    H135393   1.969   3.337  16.910 -0.7845  1.3636  0.1970
 4634TIP3    H235394   2.007   3.323  16.764  1.2489 -0.6927  0.8688
 4635TIP3   OH235395   3.032   2.571   0.004  0.2105 -0.2806  0.0304
 4635TIP3    H135396   3.081   2.575   0.086 -1.2783 -0.4414  0.9800
 4635TIP3    H235397   2.947   2.611   0.025  0.3709  1.1902 -1.8936
 4636TIP3   OH235398   4.598   4.828  17.004  0.1961 -0.0654  0.0284
 4636TIP3    H135399   4.526   4.765  17.006  0.5959 -0.6288 -1.9768
 4636TIP3    H235400   4.578   4.886  16.931 -0.2146  2.2774  1.8763
 4637TIP3   OH235401   0.046   6.807   2.044  0.2543 -0.4321 -0.3686
 4637TIP3    H135402   0.045   6.739   1.977 -0.4580 -1.6483  0.8280
 4637TIP3    H235403   0.108   6.872   2.011 -1.7269  0.1746 -3.3019
 4638TIP3   OH235404   5.904   4.377   3.725 -0.5978  0.2021  0.1293
 4638TIP3    H135405   5.828   4.364   3.668  0.0601  0.3346 -0.8073
 4638TIP3    H235406   5.912   4.295   3.773 -0.4046 -0.4268 -0.9310
 4639TIP3   OH235407   4.157   0.926   0.634  0.6419 -0.3705 -0.4475
 4639TIP3    H135408   4.220   0.928   0.562  1.2135  0.8962  0.0482
 4639TIP3    H235409   4.210   0.917   0.713  0.2229  0.5648 -0.0313
 4640TIP3   OH235410   0.412   3.657  14.773 -0.3401  0.1037  0.2857
 4640TIP3    H135411   0.474   3.597  14.732 -0.6898 -0.4025  0.4916
 4640TIP3    H235412   0.413   3.633  14.865 -1.4025 -0.4230  0.1766
 4641TIP3   OH235413   2.104   2.992   3.280 -0.1384 -0.1020 -0.2262
 4641TIP3    H135414   2.008   2.992   3.288 -0.1251  1.3275  0.2401
 4641TIP3    H235415   2.135   3.016   3.367  0.5384  1.8596 -0.9604
 4642TIP3   OH235416   1.227   4.435   4.723 -0.2625  0.1901  0.0430
 4642TIP3    H135417   1.194   4.352   4.756 -0.4485  0.9613  1.8990
 4642TIP3    H235418   1.247   4.418   4.631 -0.8706 -1.7230  0.2270
 4643TIP3   OH235419   5.532   5.771  16.847  0.2318 -0.0330  0.4937
 4643TIP3    H135420   5.436   5.772  16.856  0.2936  0.9458  1.1580
 4643TIP3    H235421   5.563   5.721  16.922  0.2137 -1.0669 -0.1683
 4644TIP3   OH235422   0.013   1.130  15.913 -0.1925  0.5133  0.0121
 4644TIP3    H135423   0.105   1.154  15.903 -0.3435  0.9291 -0.4342
 4644TIP3    H235424   0.005   1.046  15.869  0.5348 -0.8944  2.3438
 4645TIP3   OH235425   2.387   3.875  12.128 -0.0569  0.0560  0.4260
 4645TIP3    H135426   2.427   3.907  12.047  1.6243  1.8426  1.8693
 4645TIP3    H235427   2.440   3.799  12.152  0.4862  0.4977  0.6592
 4646TIP3   OH235428   3.041   5.919  11.113  0.0094  0.6809  0.2884
 4646TIP3    H135429   3.072   6.001  11.074  0.2426  0.5633  0.2203
 4646TIP3    H235430   2.994   5.875  11.042 -0.6474  1.0352  0.5020
 4647TIP3   OH235431   1.749   1.561   4.842  0.4131  0.1456  0.0474
 4647TIP3    H135432   1.787   1.480   4.806  0.3546  0.0421  0.2171
 4647TIP3    H235433   1.675   1.531   4.894  0.8236  0.2494  0.7005
 4648TIP3   OH235434   5.223   5.726   3.457 -0.1494  0.2030  0.2307
 4648TIP3    H135435   5.240   5.645   3.409 -0.7370 -1.3186  2.3962
 4648TIP3    H235436   5.192   5.787   3.391 -0.4960 -1.6006 -1.3800
 4649TIP3   OH235437   0.475   0.871  13.345  0.3723 -0.3171 -0.7314
 4649TIP3    H135438   0.437   0.785  13.364 -0.1312  0.0228 -0.1782
 4649TIP3    H235439   0.541   0.853  13.278 -0.2663 -1.0224 -1.1993
 4650TIP3   OH235440   3.425   4.709   4.268 -0.6703 -0.5401  0.0242
 4650TIP3    H135441   3.393   4.683   4.181  0.5973 -1.3519 -0.2347
 4650TIP3    H235442   3.435   4.626   4.315  1.6924 -0.4315 -0.1645
 4651TIP3   OH235443   4.394   6.397   2.426 -0.2967  0.0208  0.3188
 4651TIP3    H135444   4.400   6.389   2.521 -1.7070 -0.3628  0.4071
 4651TIP3    H235445   4.319   6.342   2.402  0.0792  0.0526 -1.0267
 4652TIP3   OH235446   1.218   1.184   1.449  0.0301  0.2493 -0.2971
 4652TIP3    H135447   1.304   1.150   1.473  0.2568 -1.2638 -2.9088
 4652TIP3    H235448   1.232   1.230   1.366 -1.4532  1.2526 -0.0492
 4653TIP3   OH235449   0.615   5.058  11.027  0.2523  0.1584 -0.0744
 4653TIP3    H135450   0.610   5.057  10.931 -0.7316  2.3417 -0.1023
 4653TIP3    H235451   0.694   5.107  11.047  1.0766 -1.2534  0.2817
 4654TIP3   OH235452   1.304   2.496   1.672 -0.4979  0.1312 -0.3841
 4654TIP3    H135453   1.267   2.519   1.587 -2.1458  2.5133  0.8590
 4654TIP3    H235454   1.228   2.467   1.723  0.1958  0.2905  0.7543
 4655TIP3   OH235455   4.828   5.599   1.214 -0.2361 -0.5555 -0.0809
 4655TIP3    H135456   4.893   5.529   1.223  0.7617  0.4489  0.8116
 4655TIP3    H235457   4.765   5.581   1.284  1.2423  0.6531  1.6640
 4656TIP3   OH235458   6.651   1.099   0.019  0.2710 -0.2366 -0.0011
 4656TIP3    H135459   6.680   1.117  -0.070 -0.3252  1.5071  0.1241
 4656TIP3    H235460   6.582   1.034   0.009 -0.1613  0.3376 -0.8749
 4657TIP3   OH235461   2.856   4.999   3.425 -0.0514 -0.1022  0.3666
 4657TIP3    H135462   2.924   5.063   3.441 -0.4369  0.0027  1.7907
 4657TIP3    H235463   2.893   4.916   3.456  0.1820 -0.4363 -0.7909
 4658TIP3   OH235464   1.378   6.169  12.159  0.6410 -0.3120 -0.2968
 4658TIP3    H135465   1.385   6.265  12.161 -2.4542  0.0080  0.9145
 4658TIP3    H235466   1.355   6.145  12.248  2.6862 -2.4249 -0.2432
 4659TIP3   OH235467   1.907   1.863  11.497  0.4231  0.3477 -0.3497
 4659TIP3    H135468   1.857   1.795  11.451 -0.4981  0.3089  0.6652
 4659TIP3    H235469   1.872   1.945  11.463 -1.8488  0.3842  1.7432
 4660TIP3   OH235470   5.183   5.944   2.271  0.2495  0.0578 -0.0705
 4660TIP3    H135471   5.096   5.982   2.261  0.0264 -0.3081  0.3871
 4660TIP3    H235472   5.193   5.933   2.366 -0.4065 -2.5663 -0.2319
 4661TIP3   OH235473   4.576   4.781  16.582  0.5441  0.1012  0.3366
 4661TIP3    H135474   4.487   4.777  16.617  0.2939  0.1936 -0.2917
 4661TIP3    H235475   4.579   4.862  16.532  1.4057  0.8121  1.4816
 4662TIP3   OH235476   3.763   6.069  15.825 -0.0154 -0.0236  0.2950
 4662TIP3    H135477   3.735   6.026  15.745  2.1013 -0.0860 -0.4827
 4662TIP3    H235478   3.762   6.162  15.804 -0.2875  0.0149  0.4808
 4663TIP3   OH235479   2.804   0.715   4.118 -0.2463  0.5664 -0.1406
 4663TIP3    H135480   2.803   0.808   4.139 -0.1429  0.6802 -0.6307
 4663TIP3    H235481   2.856   0.675   4.188 -0.0270  0.9184 -0.1030
 4664TIP3   OH235482   2.520   0.296  12.912  0.0752 -0.0740 -0.3697
 4664TIP3    H135483   2.434   0.322  12.946 -0.1138 -0.0435 -0.8594
 4664TIP3    H235484   2.544   0.219  12.964 -0.1231  0.0785 -0.0460
 4665TIP3   OH235485   2.831   0.974  15.253 -0.7242  0.4550  0.2527
 4665TIP3    H135486   2.873   0.890  15.271  0.9863  0.3585 -3.3265
 4665TIP3    H235487   2.884   1.038  15.300  2.6429  0.1434 -2.7304
 4666TIP3   OH235488   6.686   1.119  15.038  0.6024 -0.3155 -0.1328
 4666TIP3    H135489   6.593   1.099  15.025  0.7068 -0.6389 -0.4088
 4666TIP3    H235490   6.688   1.212  15.061  0.4494  0.5615 -3.2601
 4667TIP3   OH235491   2.217   3.397  12.733 -0.1823  0.4842  0.1401
 4667TIP3    H135492   2.181   3.456  12.800  1.2392 -0.3779  1.7423
 4667TIP3    H235493   2.143   3.344  12.705 -0.9278  1.2722  0.5659
 4668TIP3   OH235494   0.235   1.343  16.668 -0.3288  0.0532 -0.4361
 4668TIP3    H135495   0.292   1.355  16.593  0.1189  1.1394  0.0532
 4668TIP3    H235496   0.150   1.320  16.631 -0.8962  3.3519 -1.4946
 4669TIP3   OH235497   4.841   4.319  10.738 -0.4712 -0.0775  0.4722
 4669TIP3    H135498   4.837   4.277  10.652 -0.8951 -0.4648  0.6749
 4669TIP3    H235499   4.851   4.412  10.719 -0.3028 -0.1908  0.0061
 4670TIP3   OH235500   5.343   1.753   1.105  0.3197 -0.5083  0.1210
 4670TIP3    H135501   5.277   1.724   1.042 -0.8197  1.6427  0.2408
 4670TIP3    H235502   5.294   1.800   1.171  1.7543 -0.8216  1.4713
 4671TIP3   OH235503   1.795   5.254  13.167  0.1012  0.0214 -0.0034
 4671TIP3    H135504   1.700   5.242  13.175  0.1919 -0.6551  0.0932
 4671TIP3    H235505   1.812   5.250  13.073  0.1036 -0.4297  0.0142
 4672TIP3   OH235506   0.487   5.331  14.974  0.5359 -0.7213 -0.1330
 4672TIP3    H135507   0.466   5.412  15.020  1.4044 -0.4078 -0.2771
 4672TIP3    H235508   0.433   5.264  15.018  0.3997 -0.2095  0.4970
 4673TIP3   OH235509   4.944   2.753   0.811 -0.2409 -0.4274 -0.3457
 4673TIP3    H135510   5.009   2.773   0.744  1.0291 -0.8200  0.7120
 4673TIP3    H235511   4.933   2.835   0.859  0.3085 -0.6452  0.1575
 4674TIP3   OH235512   0.958   6.376  15.751 -0.1327 -0.5623  0.4744
 4674TIP3    H135513   0.944   6.457  15.703  3.5107  0.5887  1.0391
 4674TIP3    H235514   0.907   6.386  15.831 -1.4301  0.1650 -0.4057
 4675TIP3   OH235515   5.883   0.070  11.219 -0.7667  0.0237  0.5872
 4675TIP3    H135516   5.927   0.102  11.140  1.6905 -0.9176  1.4699
 4675TIP3    H235517   5.896  -0.025  11.217 -0.8676 -0.0396  1.9925
 4676TIP3   OH235518   4.709   5.772  10.786 -0.5843  0.4232  0.2447
 4676TIP3    H135519   4.765   5.787  10.711 -1.0368  2.1225  0.2159
 4676TIP3    H235520   4.725   5.680  10.810 -0.1094 -0.0206 -1.6277
 4677TIP3   OH235521   6.816   4.188   4.829 -0.0091 -0.4428 -0.4474
 4677TIP3    H135522   6.747   4.254   4.838  0.2535 -0.3369  1.0231
 4677TIP3    H235523   6.898   4.238   4.829  0.0957 -0.5791 -2.0322
 4678TIP3   OH235524   0.641   0.422  14.979  0.5958  0.2055 -0.4018
 4678TIP3    H135525   0.715   0.465  14.937  0.5501 -0.2682 -0.9819
 4678TIP3    H235526   0.567   0.440  14.921  0.6464 -0.9389 -0.8347
 4679TIP3   OH235527   2.608   5.231   6.675 -0.5768 -0.3092 -0.1009
 4679TIP3    H135528   2.558   5.244   6.594  1.7502  1.1754 -1.3868
 4679TIP3    H235529   2.606   5.316   6.719  1.7715  0.1820 -0.8162
 4680TIP3   OH235530   4.269   4.145   3.847  0.3325  0.5576  0.0784
 4680TIP3    H135531   4.328   4.150   3.923  1.0521  1.7121 -0.5191
 4680TIP3    H235532   4.321   4.180   3.775 -0.4863 -0.1307 -0.8713
 4681TIP3   OH235533   2.975   0.180  16.479  0.6189 -0.2489  0.4406
 4681TIP3    H135534   3.016   0.267  16.481  1.8768 -0.7414 -1.0283
 4681TIP3    H235535   3.049   0.119  16.475 -0.2448 -1.3181  0.2315
 4682TIP3   OH235536   5.755   1.505  12.830 -0.3938 -0.4739  0.1217
 4682TIP3    H135537   5.711   1.533  12.910 -0.8774  0.1122 -0.3370
 4682TIP3    H235538   5.707   1.550  12.760  1.1791  0.5079 -0.3666
 4683TIP3   OH235539   1.257   0.195  13.470 -0.2934  0.0338 -0.1097
 4683TIP3    H135540   1.279   0.219  13.379  0.5632  2.3409  0.6271
 4683TIP3    H235541   1.162   0.179  13.468 -0.8829  3.0381 -0.9034
 4684TIP3   OH235542   6.675   5.880   3.774 -0.2735  0.2500  0.6197
 4684TIP3    H135543   6.637   5.966   3.758  1.0763  0.5084 -1.8185
 4684TIP3    H235544   6.745   5.873   3.709  1.7861 -1.4261  2.8319
 4685TIP3   OH235545   5.442   2.417  12.271 -0.2453  0.1541  0.3592
 4685TIP3    H135546   5.457   2.377  12.357 -3.3198 -3.3350 -0.4873
 4685TIP3    H235547   5.371   2.480  12.286 -1.2076 -0.8989  0.3343
 4686TIP3   OH235548   0.350   6.005  15.908  0.0407 -0.2193  0.7772
 4686TIP3    H135549   0.269   6.014  15.958 -0.7734 -2.0905 -0.1184
 4686TIP3    H235550   0.383   5.918  15.931  0.8152 -0.2164 -0.2660
 4687TIP3   OH235551   0.063   5.614   5.023 -0.1738  0.2153  0.2925
 4687TIP3    H135552  -0.032   5.605   5.016  0.0846 -2.0754 -2.0981
 4687TIP3    H235553   0.085   5.685   4.963 -0.3186  0.0897  0.0883
 4688TIP3   OH235554   1.234   3.440   0.283  0.4470 -0.2324  0.3135
 4688TIP3    H135555   1.173   3.469   0.215  1.0318  1.0515  0.3105
 4688TIP3    H235556   1.243   3.516   0.341  0.5619 -1.0436  1.3986
 4689TIP3   OH235557   6.626   1.498   1.614 -0.2497 -0.5707 -0.4194
 4689TIP3    H135558   6.617   1.581   1.661  1.7555  0.1208 -1.1551
 4689TIP3    H235559   6.568   1.508   1.538 -1.0635 -0.4187  0.2055
 4690TIP3   OH235560   2.448   4.281   1.566 -0.6716 -0.4604  0.2941
 4690TIP3    H135561   2.510   4.228   1.515 -0.6588 -0.8434  0.7030
 4690TIP3    H235562   2.499   4.357   1.595 -0.1740 -1.1361  1.2488
 4691TIP3   OH235563   4.813   2.028   5.457  0.1872 -0.2095 -0.0875
 4691TIP3    H135564   4.762   1.959   5.414 -1.7198  1.3715 -0.5272
 4691TIP3    H235565   4.820   2.097   5.390 -1.5266  1.6812  1.5357
 4692TIP3   OH235566   5.094   3.184  16.086 -1.2796  0.0150  0.5604
 4692TIP3    H135567   5.121   3.215  16.000  0.8861 -1.8420  0.4731
 4692TIP3    H235568   5.066   3.263  16.132 -1.0846  1.2544 -1.3542
 4693TIP3   OH235569   2.286   4.740  17.132  0.0762  0.3145  0.4419
 4693TIP3    H135570   2.203   4.782  17.156  0.2846  0.5880  0.7011
 4693TIP3    H235571   2.277   4.720  17.039  0.0643  1.1844  0.2409
 4694TIP3   OH235572   5.301   5.809   4.482 -0.3140 -0.1081  0.3790
 4694TIP3    H135573   5.239   5.851   4.541 -0.5352 -0.3044  0.2861
 4694TIP3    H235574   5.333   5.880   4.427 -2.9071 -0.4874 -1.8065
 4695TIP3   OH235575   1.440   5.686   5.563  0.0735 -0.3835  0.0666
 4695TIP3    H135576   1.382   5.737   5.506 -1.2508 -0.8186  0.9844
 4695TIP3    H235577   1.449   5.740   5.642  1.8702  0.2038 -0.4913
 4696TIP3   OH235578   4.731   1.282   5.375  0.1735  0.0799  0.1100
 4696TIP3    H135579   4.757   1.272   5.283 -1.3333  1.6346 -0.5356
 4696TIP3    H235580   4.765   1.368   5.400 -1.1238  0.5276  0.3766
 4697TIP3   OH235581   1.430   3.571   1.004 -0.0176 -0.1847  0.0536
 4697TIP3    H135582   1.403   3.663   1.002  0.5660 -0.0171 -0.4750
 4697TIP3    H235583   1.448   3.549   0.913 -0.5199 -0.9418  0.1292
 4698TIP3   OH235584   0.887   0.551  14.936 -0.2351  0.1291 -0.2439
 4698TIP3    H135585   0.877   0.638  14.899  2.5050  0.4227 -0.5144
 4698TIP3    H235586   0.935   0.502  14.870  0.8809 -0.6580  1.0932
 4699TIP3   OH235587   1.479   5.593  15.726 -0.1484  0.0559 -0.2409
 4699TIP3    H135588   1.384   5.609  15.728 -0.4774 -1.5077 -1.3366
 4699TIP3    H235589   1.509   5.638  15.648  0.1590  1.1380  0.4822
 4700TIP3   OH235590   3.010   5.745  15.236  0.5189 -0.5877 -0.0055
 4700TIP3    H135591   2.924   5.704  15.241  1.2051 -2.1489 -0.4738
 4700TIP3    H235592   2.997   5.832  15.274 -1.7011  0.0009 -1.9045
 4701TIP3   OH235593   0.354   0.817  15.157  0.7231 -0.0379 -0.0235
 4701TIP3    H135594   0.423   0.858  15.208 -0.9887  2.3860  0.5384
 4701TIP3    H235595   0.391   0.807  15.069  1.7039  1.5055  0.1813
 4702TIP3   OH235596   0.030   3.655   3.390 -0.1761 -0.2687 -0.5876
 4702TIP3    H135597   0.117   3.691   3.372 -0.6007  0.4015 -1.3669
 4702TIP3    H235598  -0.015   3.724   3.439 -0.5689 -0.2203 -0.9990
 4703TIP3   OH235599   4.741   2.627   2.790  0.6284 -0.2820 -0.3506
 4703TIP3    H135600   4.650   2.622   2.820  0.8328  0.6166  0.4598
 4703TIP3    H235601   4.766   2.536   2.774 -0.1507 -0.6107  0.2523
 4704TIP3   OH235602   0.265   6.206   1.040 -0.0409  0.9654  0.3926
 4704TIP3    H135603   0.182   6.243   1.009  1.3466  3.7289 -0.3071
 4704TIP3    H235604   0.327   6.225   0.970  2.0516  2.6518  2.5729
 4705TIP3   OH235605   2.286   2.576   2.415  0.1566 -0.4580  0.3919
 4705TIP3    H135606   2.227   2.501   2.406  0.3953 -0.6458  0.3876
 4705TIP3    H235607   2.285   2.617   2.328  3.3450 -2.9214 -1.0061
 4706TIP3   OH235608   6.015   0.496   2.408  0.0456 -0.1482  0.0907
 4706TIP3    H135609   5.926   0.491   2.443  0.9666 -0.1338  2.7243
 4706TIP3    H235610   6.025   0.587   2.380  0.0223  0.6273  2.3604
 4707TIP3   OH235611   6.798   2.495  11.554  0.3165  0.6299 -0.4593
 4707TIP3    H135612   6.731   2.555  11.586 -0.2650 -0.0551 -0.3667
 4707TIP3    H235613   6.876   2.518  11.604 -0.0117  1.0211 -0.1160
 4708TIP3   OH235614   6.536   5.745   1.371 -0.2874 -0.5188 -0.3281
 4708TIP3    H135615   6.561   5.821   1.318 -0.3415 -0.6713 -0.5775
 4708TIP3    H235616   6.608   5.684   1.361 -0.4353 -0.6723 -0.4744
 4709TIP3   OH235617   6.447   4.692   3.180  0.9099 -0.0173  0.4578
 4709TIP3    H135618   6.494   4.668   3.260  1.4273 -0.2426  0.0909
 4709TIP3    H235619   6.451   4.614   3.125  1.8292  0.5969 -0.3813
 4710TIP3   OH235620   3.036   3.374  15.067 -0.2210 -0.0892 -0.3827
 4710TIP3    H135621   3.087   3.373  14.986 -1.8723 -0.4977 -1.4643
 4710TIP3    H235622   3.046   3.464  15.100  1.5385 -0.2720 -0.2747
 4711TIP3   OH235623   0.436   2.159   4.125  0.4349  0.5030 -0.1559
 4711TIP3    H135624   0.442   2.134   4.033 -1.0888  0.6273 -0.3140
 4711TIP3    H235625   0.367   2.104   4.161  2.0631 -0.6809  1.3565
 4712TIP3   OH235626   0.754   5.701   1.867  0.6076  0.1866  0.6008
 4712TIP3    H135627   0.721   5.789   1.850  1.6707  0.5777  0.4553
 4712TIP3    H235628   0.821   5.687   1.801  0.7169 -0.5845  0.8599
 4713TIP3   OH235629   6.760   3.972   3.189  0.0175 -0.1210  0.5348
 4713TIP3    H135630   6.736   3.940   3.102 -0.9766 -0.9216  1.0818
 4713TIP3    H235631   6.853   3.954   3.196 -0.3999 -2.6843  0.6768
 4714TIP3   OH235632   0.012   5.217  11.383  0.0140  0.1064 -0.1737
 4714TIP3    H135633   0.055   5.263  11.311  0.4849  0.5659  0.3917
 4714TIP3    H235634  -0.001   5.128  11.350  0.3993  0.2594 -0.7556
 4715TIP3   OH235635   5.833   2.383  16.853 -0.2093 -0.3126 -0.1231
 4715TIP3    H135636   5.788   2.391  16.769  0.3651 -0.7454 -0.4768
 4715TIP3    H235637   5.881   2.465  16.862  1.2189 -1.0050 -1.1130
 4716TIP3   OH235638   1.987   0.543   3.734 -0.3573  0.1529  0.4137
 4716TIP3    H135639   1.961   0.488   3.660  0.1687 -0.7024  0.8550
 4716TIP3    H235640   1.970   0.489   3.811  1.8495 -0.1002  0.7736
 4717TIP3   OH235641   4.358   5.193  15.490 -0.1653 -0.5964  0.0955
 4717TIP3    H135642   4.323   5.264  15.436 -1.3631 -1.6009 -0.5046
 4717TIP3    H235643   4.280   5.151  15.528  0.5676 -1.0299  1.1753
 4718TIP3   OH235644   3.525   1.779   1.233 -0.0275 -0.0543  0.0497
 4718TIP3    H135645   3.449   1.790   1.290 -0.6253 -0.3788 -0.6556
 4718TIP3    H235646   3.600   1.784   1.291 -0.6016  0.0917  0.7925
 4719TIP3   OH235647   3.721   4.581   5.372 -0.7884 -0.5772  0.6925
 4719TIP3    H135648   3.753   4.520   5.305 -0.9505 -0.2883  0.3521
 4719TIP3    H235649   3.767   4.554   5.452  0.7165  0.1468  0.1134
 4720TIP3   OH235650   3.570   6.264   3.116 -0.9087 -0.2060 -0.6574
 4720TIP3    H135651   3.615   6.348   3.110 -1.1464 -0.0083  0.1849
 4720TIP3    H235652   3.620   6.206   3.059 -0.4794  0.3888 -0.9002
 4721TIP3   OH235653   0.559   2.846  13.031 -0.2346  0.0016 -0.7758
 4721TIP3    H135654   0.635   2.789  13.022 -0.2914  0.1130 -2.2575
 4721TIP3    H235655   0.595   2.932  13.052 -0.0538 -0.2365 -0.0818
 4722TIP3   OH235656   5.574   2.958   1.043  0.0952  0.6450  0.3468
 4722TIP3    H135657   5.580   3.051   1.022 -0.8282  1.0291  1.6904
 4722TIP3    H235658   5.635   2.946   1.116  0.1347  0.2112  0.2456
 4723TIP3   OH235659   2.205   4.769   2.308  0.9976 -0.4302  0.0194
 4723TIP3    H135660   2.175   4.702   2.369  1.1282 -0.4083  0.1066
 4723TIP3    H235661   2.227   4.843   2.363 -2.7646  1.1313 -0.2567
 4724TIP3   OH235662   4.488   1.002  16.139 -0.1009 -0.3862 -0.1533
 4724TIP3    H135663   4.477   0.924  16.085 -0.2486 -0.0987 -0.5460
 4724TIP3    H235664   4.432   1.068  16.097  1.0098  0.3158 -0.5958
 4725TIP3   OH235665   0.508   5.294  17.203  0.1296 -0.2686  0.2036
 4725TIP3    H135666   0.557   5.252  17.132  1.6674  0.2113  0.9414
 4725TIP3    H235667   0.425   5.246  17.206  1.7694 -3.4054  1.0154
 4726TIP3   OH235668   6.810   6.541  16.273  0.0681  0.3749  0.0435
 4726TIP3    H135669   6.754   6.562  16.347  0.2402  1.6440 -0.1604
 4726TIP3    H235670   6.841   6.626  16.241 -0.8424 -0.0310 -2.1345
 4727TIP3   OH235671   6.046   0.360   5.826 -0.0502 -0.6104  0.1960
 4727TIP3    H135672   5.974   0.353   5.764 -0.5211  0.1521  0.6371
 4727TIP3    H235673   6.006   0.343   5.912  0.3188 -0.3433  0.4273
 4728TIP3   OH235674   2.667   2.544   1.371 -0.5806 -0.0850  0.1737
 4728TIP3    H135675   2.695   2.490   1.445 -0.8448  0.1675  0.4599
 4728TIP3    H235676   2.592   2.497   1.334 -0.9604  0.2019  0.5687
 4729TIP3   OH235677   2.981   4.871   4.108 -0.0153 -0.5935  0.7094
 4729TIP3    H135678   2.961   4.804   4.042  0.2583  0.2600 -0.2608
 4729TIP3    H235679   3.061   4.913   4.077  0.5098 -0.6089  1.9502
 4730TIP3   OH235680   4.595   1.340   1.259 -0.0069  0.1978 -0.4883
 4730TIP3    H135681   4.642   1.299   1.332 -1.7322  0.4486  0.8171
 4730TIP3    H235682   4.658   1.401   1.221  1.5320 -1.2654 -0.3996
 4731TIP3   OH235683   6.758   3.654   2.647 -0.5143  0.0004 -0.1706
 4731TIP3    H135684   6.816   3.579   2.642 -0.2634  0.1830 -0.0355
 4731TIP3    H235685   6.692   3.639   2.580 -0.5916 -0.4484  0.0050
 4732TIP3   OH235686   4.192   5.021  13.711 -0.2406  0.4829  0.1012
 4732TIP3    H135687   4.283   4.990  13.718 -0.4176  0.0781  0.6807
 4732TIP3    H235688   4.169   5.045  13.800 -1.4595 -1.6008  0.4176
 4733TIP3   OH235689   5.883   6.241  15.862  0.5166  0.2853 -0.0095
 4733TIP3    H135690   5.974   6.256  15.837  0.5948 -1.3781 -0.8421
 4733TIP3    H235691   5.883   6.154  15.901 -0.5925  0.6041  0.7693
 4734TIP3   OH235692   6.015   6.230   4.279 -0.1301 -0.4228  0.1801
 4734TIP3    H135693   5.937   6.180   4.258 -0.4263  0.0681  0.0954
 4734TIP3    H235694   5.988   6.290   4.348  0.3692 -0.7677  0.6776
 4735TIP3   OH235695   2.552   2.843   5.678  0.3073  0.2561  0.4641
 4735TIP3    H135696   2.574   2.892   5.757 -0.4403 -1.3566  1.7362
 4735TIP3    H235697   2.557   2.751   5.704  0.2197 -0.3295 -1.4278
 4736TIP3   OH235698   6.582   5.838  15.788  0.3400  0.1639  0.5261
 4736TIP3    H135699   6.507   5.894  15.810  0.2550 -0.1920  1.1816
 4736TIP3    H235700   6.570   5.761  15.844 -0.4201 -1.2478 -1.4583
 4737TIP3   OH235701   3.818   4.976  12.657  0.5413  0.1417 -0.2310
 4737TIP3    H135702   3.848   4.887  12.640 -0.6104  0.0139 -1.7703
 4737TIP3    H235703   3.727   4.977  12.626  0.0781  1.4747  1.0541
 4738TIP3   OH235704   1.862   0.876   2.496 -0.1631  0.2212  0.2922
 4738TIP3    H135705   1.920   0.897   2.423 -0.8034  0.1690 -0.2344
 4738TIP3    H235706   1.823   0.792   2.473  0.2317 -0.1827  1.0674
 4739TIP3   OH235707   2.197   0.397   4.861  0.4443 -0.3119 -1.0073
 4739TIP3    H135708   2.128   0.462   4.845  0.7704 -0.3118 -2.5679
 4739TIP3    H235709   2.220   0.409   4.953  0.7022  2.0159 -1.3013
 4740TIP3   OH235710   2.094   1.387  15.364  0.1559  0.3686 -0.6720
 4740TIP3    H135711   2.134   1.307  15.331 -0.8890  0.0069 -1.1155
 4740TIP3    H235712   2.098   1.378  15.460  2.0167  0.8182 -0.6767
 4741TIP3   OH235713   6.469   1.072   1.752 -0.5303  0.0030  0.0675
 4741TIP3    H135714   6.522   1.041   1.826 -0.6597 -3.3209 -1.0456
 4741TIP3    H235715   6.531   1.115   1.694  0.3272 -0.7561  0.3986
 4742TIP3   OH235716   1.689   0.940  12.577  0.6093  0.1200  0.2542
 4742TIP3    H135717   1.762   0.981  12.531  0.4479  1.9007  1.4816
 4742TIP3    H235718   1.671   0.999  12.650 -1.6410 -0.5996  0.3532
 4743TIP3   OH235719   4.628   3.619   5.352  0.8527 -0.4539  0.5296
 4743TIP3    H135720   4.690   3.644   5.284 -0.3854  0.7935 -0.1790
 4743TIP3    H235721   4.572   3.553   5.311  1.3089 -1.1222  0.9678
 4744TIP3   OH235722   3.392   6.042   4.118  0.8200  0.0883  0.3801
 4744TIP3    H135723   3.399   6.137   4.131  2.2153 -0.2413  2.4504
 4744TIP3    H235724   3.462   6.005   4.172 -0.5814 -2.2035  0.7396
 4745TIP3   OH235725   5.699   0.932   2.767  0.1043  0.2418 -0.2594
 4745TIP3    H135726   5.640   0.857   2.767 -0.6063  0.7076 -2.8244
 4745TIP3    H235727   5.759   0.916   2.694  1.9585  0.7015  1.0994
 4746TIP3   OH235728   2.185   2.290   4.940  0.0870 -0.2302 -0.1862
 4746TIP3    H135729   2.106   2.280   4.887 -0.5987  0.1783  0.7224
 4746TIP3    H235730   2.248   2.331   4.881  1.0027 -3.9920 -2.1561
 4747TIP3   OH235731   2.154   5.752   0.098 -0.6219 -0.1866 -0.4061
 4747TIP3    H135732   2.077   5.771   0.044  0.5547  2.2777 -1.3471
 4747TIP3    H235733   2.153   5.818   0.166 -0.6022 -1.6404  1.0775
 4748TIP3   OH235734   6.472   3.226  10.734 -0.1436 -0.5933 -0.2824
 4748TIP3    H135735   6.414   3.198  10.663  0.1605 -1.0244 -0.3615
 4748TIP3    H235736   6.443   3.176  10.810 -0.9823  0.4327  0.1099
 4749TIP3   OH235737   1.727   6.625   4.152 -0.1645  0.8693 -0.2528
 4749TIP3    H135738   1.692   6.538   4.131  0.0811  0.8821 -0.7367
 4749TIP3    H235739   1.734   6.668   4.067  2.2190  0.4288 -0.3441
 4750TIP3   OH235740   5.124   0.461   0.478  0.0518  0.7305 -0.0451
 4750TIP3    H135741   5.129   0.471   0.383  0.2002  2.0454  0.0735
 4750TIP3    H235742   5.149   0.371   0.494  1.2366  0.8239 -1.1742
 4751TIP3   OH235743   1.701   2.549  11.663 -0.3859 -0.4623 -0.2147
 4751TIP3    H135744   1.742   2.466  11.637  0.1167  0.3614 -2.2823
 4751TIP3    H235745   1.630   2.561  11.599 -0.7337  0.4759  0.3369
 4752TIP3   OH235746   6.024   2.141   0.522 -0.2652  0.0786 -0.5269
 4752TIP3    H135747   5.965   2.163   0.594 -0.7157  0.2709 -0.9449
 4752TIP3    H235748   6.111   2.165   0.553 -0.5551  0.9512 -0.3620
 4753TIP3   OH235749   1.343   1.263  15.034 -0.7582  0.5955 -0.0048
 4753TIP3    H135750   1.395   1.284  15.111 -1.8215  1.3583  0.5299
 4753TIP3    H235751   1.366   1.329  14.969 -0.2461  0.2608 -0.1715
 4754TIP3   OH235752   2.248   6.807  11.537  0.3039  0.2398  0.3424
 4754TIP3    H135753   2.301   6.885  11.548  1.5583 -0.5360 -0.0225
 4754TIP3    H235754   2.303   6.747  11.486 -0.5974 -0.9052  0.6681
 4755TIP3   OH235755   0.670   2.829   0.211 -0.2566  0.1792  0.4991
 4755TIP3    H135756   0.613   2.761   0.246 -0.6475 -0.2795 -0.9617
 4755TIP3    H235757   0.655   2.827   0.116  0.6032  1.4995  0.3029
 4756TIP3   OH235758   1.098   4.839   5.732  0.4976 -0.2707  0.2439
 4756TIP3    H135759   1.124   4.748   5.713  0.2246 -0.1969 -0.5417
 4756TIP3    H235760   1.176   4.879   5.770 -0.3318 -1.7362  3.8549
 4757TIP3   OH235761   3.777   4.890   4.303  0.0050 -0.1771  0.8054
 4757TIP3    H135762   3.711   4.946   4.345  1.5156  1.2869  1.3596
 4757TIP3    H235763   3.739   4.867   4.219 -1.2437  0.5903  1.1322
 4758TIP3   OH235764   0.712   3.441  17.173  0.2450 -0.3758  0.7911
 4758TIP3    H135765   0.755   3.367  17.216 -0.2520 -1.0327  0.1819
 4758TIP3    H235766   0.630   3.404  17.139  2.0590 -0.8421 -3.7674
 4759TIP3   OH235767   6.697   5.063  15.067 -0.1794  0.0183  0.2173
 4759TIP3    H135768   6.724   5.066  15.159 -0.1593 -1.3414  0.2765
 4759TIP3    H235769   6.617   5.011  15.067  1.6786 -3.1101 -0.8876
 4760TIP3   OH235770   3.367   0.749   6.668 -0.0966 -0.7235  0.3450
 4760TIP3    H135771   3.343   0.684   6.602  2.1204  0.2026 -1.5036
 4760TIP3    H235772   3.453   0.721   6.698 -0.1479  0.0742  1.2676
 4761TIP3   OH235773   1.127   3.163   1.080 -0.2669  0.4240  0.3311
 4761TIP3    H135774   1.122   3.072   1.049 -1.8464  0.6860 -0.2687
 4761TIP3    H235775   1.202   3.200   1.034  2.6867 -1.4468  3.1407
 4762TIP3   OH235776   2.013   4.645   3.621  0.4463  0.2639  0.0935
 4762TIP3    H135777   1.956   4.706   3.667  1.8359  0.9497  0.9704
 4762TIP3    H235778   2.020   4.682   3.533 -1.1889 -0.3564 -0.3401
 4763TIP3   OH235779   1.629   0.666  13.770 -0.0259 -0.3633 -0.0075
 4763TIP3    H135780   1.617   0.581  13.811  1.0839  0.5500  2.3937
 4763TIP3    H235781   1.714   0.660  13.726  0.5898 -0.1843  1.1210
 4764TIP3   OH235782   5.321   6.544  15.067  0.0259 -0.5196  0.0845
 4764TIP3    H135783   5.376   6.548  15.145  1.9942  1.3499 -1.2930
 4764TIP3    H235784   5.382   6.553  14.994 -2.0459  1.2924 -1.5467
 4765TIP3   OH235785   5.730   0.361   3.712 -0.2869 -0.2285  0.0392
 4765TIP3    H135786   5.740   0.318   3.798  0.2847 -0.2863 -0.0474
 4765TIP3    H235787   5.801   0.425   3.710 -0.2457 -0.2887 -0.4295
 4766TIP3   OH235788   4.136   1.906   3.429 -0.4233  0.5393 -0.9931
 4766TIP3    H135789   4.183   1.963   3.368 -0.2165  1.6545  0.1579
 4766TIP3    H235790   4.063   1.871   3.378 -0.4938  1.7678 -1.7911
 4767TIP3   OH235791   0.075   5.634  11.989  0.0073  0.3306  0.3270
 4767TIP3    H135792   0.035   5.556  11.951  2.0537  0.3705 -2.0846
 4767TIP3    H235793   0.088   5.611  12.081 -1.5003 -1.2604  0.2086
 4768TIP3   OH235794   3.486   1.166  15.479 -0.1197  0.5995 -0.0532
 4768TIP3    H135795   3.489   1.095  15.415 -3.1845  0.5261 -0.2565
 4768TIP3    H235796   3.411   1.146  15.534  0.8586  2.0658  1.9488
 4769TIP3   OH235797   5.051   5.674  11.402  0.4459  0.1885 -0.4998
 4769TIP3    H135798   5.054   5.628  11.485 -1.5858  0.1644 -0.3882
 4769TIP3    H235799   5.073   5.607  11.337  0.6554 -0.1409 -0.0955
 4770TIP3   OH235800   6.790   0.196  11.741  0.3850 -0.8485 -0.8389
 4770TIP3    H135801   6.700   0.189  11.772  1.1021 -3.6797  1.0568
 4770TIP3    H235802   6.787   0.169  11.650 -0.8120  0.3881 -1.1924
 4771TIP3   OH235803   6.075   0.431   5.452 -0.7083  0.1751  0.0600
 4771TIP3    H135804   6.078   0.412   5.358  0.1220  0.5558  0.0030
 4771TIP3    H235805   6.165   0.453   5.475 -0.6659 -1.0810  1.1970
 4772TIP3   OH235806   5.987   3.559   4.641 -0.5908  0.1605 -0.1518
 4772TIP3    H135807   6.008   3.516   4.558 -1.9090  0.2926 -0.5663
 4772TIP3    H235808   5.922   3.625   4.618  0.8097  1.8961  0.5899
 4773TIP3   OH235809   2.921   3.376   3.832 -0.0953  0.6627 -0.1183
 4773TIP3    H135810   2.845   3.431   3.851 -0.6559  0.1081 -0.7117
 4773TIP3    H235811   2.929   3.319   3.909  0.2960  1.3464  0.3578
 4774TIP3   OH235812   6.518   0.375   5.167  0.2449  0.1353  0.2544
 4774TIP3    H135813   6.542   0.467   5.156  0.4210 -0.1013 -1.9181
 4774TIP3    H235814   6.428   0.370   5.136  0.5809 -0.5537 -0.6804
 4775TIP3   OH235815   4.447   5.375   3.607  0.3691 -0.2196  0.8400
 4775TIP3    H135816   4.424   5.413   3.522  1.1900 -0.2021  0.6175
 4775TIP3    H235817   4.540   5.394   3.618  0.8334 -2.1851  0.7096
 4776TIP3   OH235818   5.566   0.586  14.125 -0.6560  0.0373 -0.2466
 4776TIP3    H135819   5.632   0.546  14.069 -0.8372  1.1534 -1.3040
 4776TIP3    H235820   5.521   0.512  14.166 -0.0264 -0.7878 -1.0105
 4777TIP3   OH235821   3.140   1.840  17.132  0.0089 -0.0658  0.1957
 4777TIP3    H135822   3.231   1.863  17.115  0.3920 -2.0123 -0.6162
 4777TIP3    H235823   3.114   1.897  17.205  2.2376 -0.2617  1.2154
 4778TIP3   OH235824   5.984   2.334  14.621 -0.4400  0.4367 -0.4206
 4778TIP3    H135825   6.015   2.306  14.535  2.2248 -0.9714  0.8704
 4778TIP3    H235826   6.019   2.423  14.632  0.0909  0.2262 -0.3987
 4779TIP3   OH235827   2.940   6.734   3.744 -0.4980  0.1785 -0.1681
 4779TIP3    H135828   2.882   6.744   3.669 -0.8679 -2.3104 -0.3157
 4779TIP3    H235829   3.028   6.736   3.708 -0.6848 -1.5042 -0.7995
 4780TIP3   OH235830   4.852   6.806  12.115  0.4365  0.0934 -0.1788
 4780TIP3    H135831   4.905   6.884  12.127 -0.8934  0.7867  1.7140
 4780TIP3    H235832   4.886   6.765  12.036  1.9655  1.9274 -0.5295
 4781TIP3   OH235833   6.827   2.747   0.059 -0.7456  0.1474 -0.7449
 4781TIP3    H135834   6.882   2.707   0.126 -1.9233  1.5452  1.1591
 4781TIP3    H235835   6.861   2.713  -0.024  0.6052 -1.8651  0.5445
 4782TIP3   OH235836   0.686   0.204  12.177  0.1004  0.0176 -0.0433
 4782TIP3    H135837   0.614   0.258  12.213 -0.2222  0.1745 -0.9125
 4782TIP3    H235838   0.754   0.210  12.244 -1.5645 -2.1562  2.0224
 4783TIP3   OH235839   6.231   5.674  14.070 -0.3294 -0.0847  0.1834
 4783TIP3    H135840   6.211   5.675  14.163 -0.1204 -0.9874  0.2432
 4783TIP3    H235841   6.157   5.629  14.029  0.6044 -1.7054  0.1878
 4784TIP3   OH235842   4.156   5.525   0.295 -0.0117 -0.4272 -0.3229
 4784TIP3    H135843   4.061   5.526   0.282  0.0604 -0.4707 -0.8778
 4784TIP3    H235844   4.170   5.580   0.372 -0.4971 -0.5240 -0.1588
 4785TIP3   OH235845   3.391   1.599   4.248 -0.0000 -0.1192 -0.6149
 4785TIP3    H135846   3.466   1.604   4.189  1.5253  1.7633  1.2721
 4785TIP3    H235847   3.382   1.506   4.269  1.8199 -0.4024 -0.9249
 4786TIP3   OH235848   0.645   5.821   4.596 -0.2262 -0.3547 -0.1494
 4786TIP3    H135849   0.623   5.745   4.649 -0.5937  0.3553  0.7268
 4786TIP3    H235850   0.682   5.784   4.516  0.9625 -1.4360  0.8586
 4787TIP3   OH235851   3.531   1.165  13.313 -0.3771  0.2036  0.3796
 4787TIP3    H135852   3.582   1.096  13.272  0.7786  0.5822  1.1257
 4787TIP3    H235853   3.460   1.183  13.252 -0.2828 -1.1401 -0.1434
 4788TIP3   OH235854   1.734   3.633   5.434  0.7346 -1.0662 -0.2053
 4788TIP3    H135855   1.764   3.717   5.400  2.3292 -1.3451  0.4598
 4788TIP3    H235856   1.801   3.570   5.407 -0.4953 -2.1972 -0.8253
 4789TIP3   OH235857   0.744   0.922   4.500 -0.3215  0.1928  0.8969
 4789TIP3    H135858   0.663   0.960   4.467  0.7885  0.1451 -2.2931
 4789TIP3    H235859   0.808   0.993   4.496  0.3474 -0.3876  0.8873
 4790TIP3   OH235860   2.875   1.095   6.520  0.1082 -0.1288 -0.1121
 4790TIP3    H135861   2.941   1.058   6.579  0.6587 -0.7075 -1.0601
 4790TIP3    H235862   2.792   1.058   6.549 -0.0711  1.7346  2.0268
 4791TIP3   OH235863   3.453   0.540  10.899  0.4068 -0.1531 -0.2747
 4791TIP3    H135864   3.417   0.624  10.925  0.0201 -0.0269 -1.1543
 4791TIP3    H235865   3.389   0.505  10.836  0.3774 -1.2654  0.3418
 4792TIP3   OH235866   6.290   0.169   5.267 -0.3612 -0.3769 -0.3756
 4792TIP3    H135867   6.286   0.249   5.215 -0.8376 -0.0777  0.1097
 4792TIP3    H235868   6.203   0.129   5.256  0.2675 -1.4743 -1.6081
 4793TIP3   OH235869   2.161   0.084   2.596 -0.4064  0.0053  0.1474
 4793TIP3    H135870   2.207   0.053   2.518  0.0442  0.6826  0.1366
 4793TIP3    H235871   2.221   0.145   2.637 -0.9757  0.2905  0.5747
 4794TIP3   OH235872   6.794   4.600  15.876 -0.0608  0.1853 -0.1622
 4794TIP3    H135873   6.866   4.649  15.916 -0.7978  2.0488 -0.9835
 4794TIP3    H235874   6.791   4.518  15.925  1.8128  0.5641  0.7015
 4795TIP3   OH235875   0.920   0.666  11.983  0.1249  0.2625  0.0575
 4795TIP3    H135876   0.829   0.687  12.004 -0.0077 -0.7044  0.4888
 4795TIP3    H235877   0.915   0.615  11.902  0.1903 -0.6398  0.6102
 4796TIP3   OH235878   4.483   5.260   1.676 -0.6994  0.0133  0.5225
 4796TIP3    H135879   4.451   5.219   1.756  1.5503  1.6931  2.4002
 4796TIP3    H235880   4.555   5.204   1.648 -1.1148 -0.2514 -0.0493
 4797TIP3   OH235881   6.606   2.054  15.684 -0.1703  0.3780  0.0028
 4797TIP3    H135882   6.579   1.989  15.749 -0.5696 -0.1868 -0.7193
 4797TIP3    H235883   6.525   2.076  15.638  0.2298  0.2677 -0.7554
 4798TIP3   OH235884   4.182   2.186  16.834 -0.1983 -0.0297  0.2748
 4798TIP3    H135885   4.174   2.182  16.738  0.0177  0.1800  0.2471
 4798TIP3    H235886   4.105   2.138  16.866  0.0640 -0.6487 -0.0085
 4799TIP3   OH235887   0.458   0.798   3.774  0.3542 -0.7723 -0.2307
 4799TIP3    H135888   0.512   0.876   3.776  0.2527 -0.6979 -0.3435
 4799TIP3    H235889   0.477   0.757   3.689  1.0431 -1.3271  0.1824
 4800TIP3   OH235890   4.242   3.629   0.941  0.1550 -0.2626  0.0638
 4800TIP3    H135891   4.160   3.622   0.894 -0.9821  2.2088  1.4608
 4800TIP3    H235892   4.231   3.573   1.018  0.2388 -0.7863 -0.3004
 4801TIP3   OH235893   3.277   5.553  16.064  0.1485  0.7812 -0.1644
 4801TIP3    H135894   3.296   5.467  16.100 -2.1092  0.5454  0.6275
 4801TIP3    H235895   3.329   5.614  16.117  0.9700  0.0187 -0.0742
 4802TIP3   OH235896   2.226   1.700   5.499 -0.1961 -0.2619 -0.2371
 4802TIP3    H135897   2.213   1.734   5.411 -1.6163 -1.0158 -0.3603
 4802TIP3    H235898   2.316   1.723   5.521  0.3652 -0.5283 -2.0849
 4803TIP3   OH235899   0.356   4.797  16.862 -1.0546 -0.1723  0.4813
 4803TIP3    H135900   0.270   4.757  16.849 -1.0886  0.0602 -0.0441
 4803TIP3    H235901   0.399   4.741  16.927 -1.7539 -0.0547  1.0578
 4804TIP3   OH235902   4.849   5.920   0.877 -0.8510  0.3820  0.1601
 4804TIP3    H135903   4.770   5.963   0.843 -0.2124 -0.4592 -2.5999
 4804TIP3    H235904   4.822   5.829   0.890 -0.6125  0.3224  0.2316
 4805TIP3   OH235905   6.066   6.821   1.059 -0.3031  0.1901  0.6024
 4805TIP3    H135906   6.006   6.756   1.023 -0.0763 -0.5613  1.5108
 4805TIP3    H235907   6.099   6.780   1.139  0.6499  1.0029  0.6441
 4806TIP3   OH235908   4.624   0.219  14.472  0.7294  0.1016  0.2067
 4806TIP3    H135909   4.598   0.181  14.556  0.4388  1.2274  0.6459
 4806TIP3    H235910   4.675   0.150  14.429 -0.7343 -1.2096  0.4724
 4807TIP3   OH235911   3.205   1.335   0.312 -0.2239 -0.5524  0.0362
 4807TIP3    H135912   3.280   1.277   0.299 -0.5213 -1.1199  0.7626
 4807TIP3    H235913   3.242   1.411   0.358 -0.4433 -1.8360  2.4832
 4808TIP3   OH235914   6.314   0.031   4.974  0.8653  0.2584  0.2773
 4808TIP3    H135915   6.337   0.124   4.979  0.0925  0.5571 -1.1584
 4808TIP3    H235916   6.220   0.031   4.958  0.6364 -0.8289  1.4805
 4809TIP3   OH235917   6.061   1.713   5.817  0.2484  0.5287  0.3482
 4809TIP3    H135918   6.099   1.685   5.733  1.7374  0.6021  0.9669
 4809TIP3    H235919   6.019   1.797   5.797  1.6202  1.1415 -0.1027
 4810TIP3   OH235920   1.461   3.960  11.580  0.5746  0.3514  0.7911
 4810TIP3    H135921   1.384   3.956  11.637  0.4234 -0.2541  0.5555
 4810TIP3    H235922   1.447   3.889  11.517  1.0944  0.5471  0.4554
 4811TIP3   OH235923   2.747   2.298   4.620  0.0828  0.4363 -0.2530
 4811TIP3    H135924   2.746   2.393   4.605 -2.1731  0.5308  0.1523
 4811TIP3    H235925   2.702   2.287   4.704  1.2558 -0.9570  0.2324
 4812TIP3   OH235926   0.718   2.897   3.610  0.4067  0.2803 -0.2088
 4812TIP3    H135927   0.635   2.903   3.656  0.2963  0.1798 -0.3936
 4812TIP3    H235928   0.727   2.804   3.589  1.9764 -0.2586  2.3991
 4813TIP3   OH235929   0.022   1.677  14.222 -0.6081 -0.4859 -0.0141
 4813TIP3    H135930  -0.010   1.670  14.312 -1.3430 -1.0321 -0.3112
 4813TIP3    H235931   0.043   1.587  14.197 -2.2632 -0.6258 -1.0454
 4814TIP3   OH235932   0.687   6.297   3.296  0.5249 -0.1272  0.2634
 4814TIP3    H135933   0.719   6.367   3.353 -0.4102  0.3954  0.1680
 4814TIP3    H235934   0.701   6.217   3.347 -1.4248  0.4256  1.8038
 4815TIP3   OH235935   0.471   2.162  11.089  0.1969 -0.2042 -1.2063
 4815TIP3    H135936   0.564   2.146  11.106  0.2163 -1.3800 -2.2429
 4815TIP3    H235937   0.470   2.234  11.026  0.3223  0.8346 -0.0495
 4816TIP3   OH235938   2.068   1.654  13.169  0.9594 -0.0989 -0.0178
 4816TIP3    H135939   2.027   1.568  13.165  2.3858 -0.7650 -1.9200
 4816TIP3    H235940   1.999   1.712  13.201 -0.4254 -1.7250  0.0734
 4817TIP3   OH235941   3.137   4.750  16.447  0.2935  0.3182 -0.6603
 4817TIP3    H135942   3.157   4.841  16.427  1.7924  0.1045 -0.2565
 4817TIP3    H235943   3.087   4.719  16.372 -0.4695  1.5277 -0.6822
 4818TIP3   OH235944   4.757   1.899   0.579 -0.1378  0.0585 -0.2043
 4818TIP3    H135945   4.753   1.865   0.668  1.9921 -1.4185 -0.5778
 4818TIP3    H235946   4.847   1.932   0.570  0.1895 -1.2154 -2.2177
 4819TIP3   OH235947   0.714   4.165   3.284 -0.4224  0.0380  0.4450
 4819TIP3    H135948   0.707   4.212   3.200  0.8311 -1.9954 -0.8852
 4819TIP3    H235949   0.683   4.228   3.349 -3.6408  0.9519 -1.7293
 4820TIP3   OH235950   0.032   1.955  11.912  1.1375  0.3119  0.0631
 4820TIP3    H135951   0.028   1.889  11.981 -0.2887 -2.1195 -2.1627
 4820TIP3    H235952   0.008   2.037  11.955  1.1210 -0.9389  2.5809
 4821TIP3   OH235953   4.266   6.327  17.146  0.0808 -0.0982  0.1042
 4821TIP3    H135954   4.236   6.365  17.228 -1.4283  0.2386 -0.5626
 4821TIP3    H235955   4.307   6.400  17.100  1.2453 -0.3689  0.6825
 4822TIP3   OH235956   3.594   3.622  11.456 -0.2966 -0.0452 -0.0010
 4822TIP3    H135957   3.529   3.595  11.391 -1.2629  1.0799  0.4494
 4822TIP3    H235958   3.545   3.629  11.538  0.5180  0.2564  0.4785
 4823TIP3   OH235959   0.612   1.039  13.955 -0.0238 -0.4154  0.4131
 4823TIP3    H135960   0.553   0.979  13.911 -0.0073 -0.0811 -0.0790
 4823TIP3    H235961   0.675   0.983  14.000 -0.4959 -0.7668  0.6362
 4824TIP3   OH235962   6.380   4.334  15.647  0.3865 -0.5798 -0.7195
 4824TIP3    H135963   6.437   4.286  15.587  2.2266  0.2001  0.3442
 4824TIP3    H235964   6.376   4.422  15.612 -1.1289 -0.8830 -1.3987
 4825TIP3   OH235965   2.823   2.488  14.221  0.7028  0.3936  0.1553
 4825TIP3    H135966   2.866   2.531  14.146  0.6651  0.8891  0.4151
 4825TIP3    H235967   2.731   2.484  14.197  0.7768 -0.0115 -0.0864
 4826TIP3   OH235968   3.560   2.547  14.957  0.1143 -0.3818 -0.0493
 4826TIP3    H135969   3.655   2.534  14.953 -0.1052 -1.7059 -2.0139
 4826TIP3    H235970   3.527   2.512  14.874 -2.1536 -0.4402  0.8111
 4827TIP3   OH235971   2.689   1.126  13.024  0.2061  0.1904 -0.2269
 4827TIP3    H135972   2.727   1.176  13.096  0.7907  1.4590 -1.3808
 4827TIP3    H235973   2.624   1.069  13.066 -0.7719  2.1711  1.1115
 4828TIP3   OH235974   2.166   6.377  15.183 -0.1628 -0.5475 -0.0421
 4828TIP3    H135975   2.260   6.394  15.180 -0.4233  1.7358  1.3638
 4828TIP3    H235976   2.153   6.302  15.127  2.5146 -1.0061 -0.1997
 4829TIP3   OH235977   1.906   4.894   2.388 -0.9857 -0.1595  0.1796
 4829TIP3    H135978   1.946   4.978   2.367 -1.4123  0.3532  1.3094
 4829TIP3    H235979   1.922   4.839   2.311 -2.4941  1.5667 -1.4699
 4830TIP3   OH235980   3.078   3.240   2.844  0.1250 -0.4685 -0.2943
 4830TIP3    H135981   3.048   3.173   2.905  2.3458 -1.0778  0.2249
 4830TIP3    H235982   3.039   3.321   2.877 -0.3831 -1.0959  0.6883
 4831TIP3   OH235983   0.606   1.589   3.920  0.0294 -0.1765 -0.0902
 4831TIP3    H135984   0.657   1.541   3.854 -1.8214  1.3520 -2.8261
 4831TIP3    H235985   0.670   1.615   3.986  1.6522 -3.4799 -0.1392
 4832TIP3   OH235986   3.270   4.230   1.846  0.1296  0.6927  0.1969
 4832TIP3    H135987   3.282   4.261   1.935 -0.2932  0.7230  0.2425
 4832TIP3    H235988   3.208   4.158   1.853 -0.0983  0.8584 -0.1048
 4833TIP3   OH235989   3.374   5.374   4.367  0.6619  0.1856 -0.1207
 4833TIP3    H135990   3.283   5.392   4.391  0.8857  1.8499 -0.4147
 4833TIP3    H235991   3.418   5.459   4.372  2.2027 -0.5729 -0.0360
 4834TIP3   OH235992   4.209   3.763  13.251 -0.2311 -0.0442 -0.1099
 4834TIP3    H135993   4.168   3.677  13.257 -0.3260 -0.0864 -1.2831
 4834TIP3    H235994   4.139   3.821  13.221 -0.0902  0.3941  0.3859
 4835TIP3   OH235995   3.660   2.039  13.538 -0.2034 -0.1641  0.3763
 4835TIP3    H135996   3.680   2.099  13.610  0.2686  0.7748 -0.4970
 4835TIP3    H235997   3.568   2.057  13.517  0.6417  2.4200 -1.7274
 4836TIP3   OH235998   1.851   3.953   1.232  0.6938  0.2475  0.4297
 4836TIP3    H135999   1.933   3.918   1.268  0.3996 -1.0803 -0.1546
 4836TIP3    H236000   1.843   3.911   1.147  0.8036  2.4767 -0.7586
 4837TIP3   OH236001   4.501   1.079   5.384  0.1066  0.1033  0.0358
 4837TIP3    H136002   4.533   1.011   5.325 -0.6220 -1.7347  1.6471
 4837TIP3    H236003   4.551   1.157   5.361  2.8866 -1.6127 -0.1542
 4838TIP3   OH236004   4.887   6.079  13.550 -0.3020 -0.5870  0.5984
 4838TIP3    H136005   4.956   6.040  13.604 -0.9525 -1.0057  1.1420
 4838TIP3    H236006   4.862   6.009  13.490 -2.3165 -1.5072  2.3637
 4839TIP3   OH236007   5.081   4.348  13.673 -0.0011  0.0682 -0.1275
 4839TIP3    H136008   5.108   4.275  13.729 -0.1742  0.5339  0.5707
 4839TIP3    H236009   5.122   4.329  13.588  1.2272 -0.0422  0.4727
 4840TIP3   OH236010   2.374   2.029  11.203  0.3608  0.1854  0.5091
 4840TIP3    H136011   2.330   1.973  11.139  0.2724  0.6901  0.1214
 4840TIP3    H236012   2.374   1.978  11.284 -2.6677  0.8634  1.0631
 4841TIP3   OH236013   5.253   5.877  11.964 -0.2719 -0.0751  0.2318
 4841TIP3    H136014   5.250   5.805  12.027 -0.1558  0.4956  0.9024
 4841TIP3    H236015   5.246   5.834  11.879 -1.2481 -0.7996  0.6573
 4842TIP3   OH236016   6.695   1.315   4.926  0.2235  0.0195 -0.3856
 4842TIP3    H136017   6.673   1.223   4.936 -0.9153  0.0375 -2.2227
 4842TIP3    H236018   6.647   1.359   4.995 -0.2686 -0.6443 -0.2999
 4843TIP3   OH236019   0.784   6.497   4.593  0.3848  0.5432  0.5197
 4843TIP3    H136020   0.875   6.527   4.594  0.6021 -0.0868  1.4136
 4843TIP3    H236021   0.746   6.536   4.672 -0.7185  2.4655 -0.8594
 4844TIP3   OH236022   5.068   4.652   5.066 -0.2063 -0.2219 -0.2844
 4844TIP3    H136023   5.011   4.661   5.142  0.1430 -0.4761  0.0167
 4844TIP3    H236024   5.131   4.584   5.092 -0.9987 -1.3986 -1.3743
 4845TIP3   OH236025   4.629   2.570  15.434  0.4820  0.4098  0.1619
 4845TIP3    H136026   4.591   2.526  15.358 -0.4860  1.4095  0.0417
 4845TIP3    H236027   4.678   2.643  15.397 -0.9587  1.6028  0.5237
 4846TIP3   OH236028   4.326   5.961  16.297 -0.3622 -0.3111 -0.0030
 4846TIP3    H136029   4.336   6.023  16.225  0.0518 -1.0706 -0.6106
 4846TIP3    H236030   4.272   5.891  16.262 -1.9867  0.3130  1.0954
 4847TIP3   OH236031   0.258   4.751   1.196 -0.5508 -0.1736  0.4355
 4847TIP3    H136032   0.330   4.789   1.147  0.9525 -0.7187  2.0945
 4847TIP3    H236033   0.179   4.777   1.149  0.7668 -0.4659 -2.0537
 4848TIP3   OH236034   4.852   4.069  16.399  0.2672  0.6180 -0.1556
 4848TIP3    H136035   4.919   4.001  16.389  1.4425  1.4957  1.2867
 4848TIP3    H236036   4.809   4.073  16.313  0.0637 -1.9850 -0.2732
 4849TIP3   OH236037   3.625   4.611  15.139  0.3112  0.1308  0.5011
 4849TIP3    H136038   3.649   4.695  15.178 -0.4904  0.4551  0.3120
 4849TIP3    H236039   3.677   4.606  15.059 -0.9531  1.2991 -0.4456
 4850TIP3   OH236040   0.098   2.858  16.013 -0.2240  0.4143  0.6111
 4850TIP3    H136041   0.091   2.934  16.070 -1.2266  1.6382 -1.0305
 4850TIP3    H236042   0.192   2.840  16.008 -0.0859  0.5344  2.2483
 4851TIP3   OH236043   1.749   4.947   0.568  0.2355  0.2109  0.2600
 4851TIP3    H136044   1.828   4.998   0.588 -0.8469  1.1893  2.4282
 4851TIP3    H236045   1.700   5.003   0.507  0.9785 -0.1956 -0.7321
 4852TIP3   OH236046   6.210   5.310   1.975  0.6954  0.1573 -0.7593
 4852TIP3    H136047   6.182   5.368   2.047 -0.7416  0.4244 -1.4854
 4852TIP3    H236048   6.142   5.322   1.908  1.6453 -0.5997 -1.8870
 4853TIP3   OH236049   2.232   3.337  16.815  0.3194 -0.7968 -0.0670
 4853TIP3    H136050   2.309   3.363  16.764 -1.3625  0.5227 -2.1166
 4853TIP3    H236051   2.190   3.420  16.839 -2.1212 -1.4309 -1.7536
 4854TIP3   OH236052   5.327   6.591  11.734 -0.4116  0.2313  0.6125
 4854TIP3    H136053   5.246   6.615  11.778 -1.5188 -0.8968 -0.6845
 4854TIP3    H236054   5.361   6.518  11.785 -0.9203 -0.1350  0.4386
 4855TIP3   OH236055   1.220   3.171  14.683 -0.3387  0.1201 -0.1319
 4855TIP3    H136056   1.166   3.189  14.759  0.6648 -0.2507  0.6888
 4855TIP3    H236057   1.248   3.258  14.653  0.4287  0.2195  0.8088
 4856TIP3   OH236058   3.142   4.279  15.308 -0.2430 -0.2991 -0.0158
 4856TIP3    H136059   3.106   4.336  15.375 -1.2610 -0.4971 -0.3737
 4856TIP3    H236060   3.092   4.197  15.316 -0.2281 -0.4030 -0.8540
 4857TIP3   OH236061   4.624   4.916   3.843  0.1032  0.2780 -0.0594
 4857TIP3    H136062   4.691   4.954   3.786 -0.1945  0.5135 -0.2511
 4857TIP3    H236063   4.673   4.859   3.902  0.3240 -0.6167 -1.0857
 4858TIP3   OH236064   4.853   5.453  16.347  0.2110 -0.2616  0.1493
 4858TIP3    H136065   4.828   5.541  16.375  0.1790  0.4552 -1.9636
 4858TIP3    H236066   4.949   5.454  16.346  0.2937  0.9418 -3.0061
 4859TIP3   OH236067   1.291   6.267   0.641 -0.0948 -0.2837  0.0221
 4859TIP3    H136068   1.315   6.249   0.732  1.4715 -0.2402 -0.3570
 4859TIP3    H236069   1.282   6.362   0.637 -1.5611 -0.3817  0.4317
 4860TIP3   OH236070   4.135   5.356  15.308 -0.0722 -0.1896  0.7776
 4860TIP3    H136071   4.172   5.422  15.249  0.0023  0.0594  1.1034
 4860TIP3    H236072   4.056   5.326  15.263 -0.8144  1.0490  1.2147
 4861TIP3   OH236073   5.200   6.038  16.009  0.0509 -0.3514 -0.4072
 4861TIP3    H136074   5.140   6.105  16.042 -2.1560 -0.7161 -3.2512
 4861TIP3    H236075   5.214   5.980  16.083 -0.5489  1.4923  1.2361
 4862TIP3   OH236076   3.306   1.959   0.148  0.2321 -0.6381 -0.5156
 4862TIP3    H136077   3.330   2.033   0.091 -2.3012 -0.8034 -1.9464
 4862TIP3    H236078   3.381   1.949   0.206  0.7710  2.9542 -0.3269
 4863TIP3   OH236079   1.803   2.079  11.343  0.2481  0.0957  0.5525
 4863TIP3    H136080   1.771   2.064  11.254  1.3553  0.6446  0.0346
 4863TIP3    H236081   1.728   2.060  11.400 -0.7650  0.6870 -0.5501
 4864TIP3   OH236082   4.986   1.475  15.335  0.0760 -0.6442  0.1268
 4864TIP3    H136083   4.921   1.497  15.268 -0.2644  0.0582  0.6694
 4864TIP3    H236084   4.934   1.447  15.410  0.4587 -1.4990  0.0804
 4865TIP3   OH236085   0.660   5.875   0.718 -0.7599  0.0313  0.1694
 4865TIP3    H136086   0.612   5.950   0.754  0.7826  0.4468  1.4826
 4865TIP3    H236087   0.747   5.910   0.698 -0.7202 -0.8955 -1.3687
 4866TIP3   OH236088   1.719   5.922  16.012  0.4086 -0.4916 -0.0797
 4866TIP3    H136089   1.750   5.831  16.011  1.4530 -0.1648 -1.7796
 4866TIP3    H236090   1.659   5.927  15.938  0.1047  0.1201  0.2071
 4867TIP3   OH236091   1.787   1.688  15.826 -0.5488 -0.0557  0.4531
 4867TIP3    H136092   1.733   1.637  15.887  0.3651 -1.5190  0.0725
 4867TIP3    H236093   1.871   1.697  15.870 -1.0841  2.4388  1.1537
 4868TIP3   OH236094   3.058   4.332   4.708  0.4680  0.1544 -0.1254
 4868TIP3    H136095   3.146   4.366   4.723  0.6353  0.0791 -0.8786
 4868TIP3    H236096   3.003   4.410   4.699  0.1783  0.2127  1.7513
 4869TIP3   OH236097   6.494   6.124   5.765 -0.3721 -0.2126 -0.3624
 4869TIP3    H136098   6.490   6.028   5.756  0.9855 -0.1999 -1.4201
 4869TIP3    H236099   6.532   6.138   5.852 -1.2855 -0.6120  0.1106
 4870TIP3   OH236100   6.604   5.866  14.768 -0.0093  0.1576 -0.5798
 4870TIP3    H136101   6.660   5.848  14.692  1.2280  0.4671  0.2364
 4870TIP3    H236102   6.587   5.779  14.806 -3.3636 -0.4359 -2.9878
 4871TIP3   OH236103   5.285   6.276   3.827  0.2418 -0.1498  0.2293
 4871TIP3    H136104   5.208   6.248   3.876 -0.4937  0.7282 -0.4046
 4871TIP3    H236105   5.342   6.315   3.893 -0.7845  1.1127  0.4023
 4872TIP3   OH236106   4.870   3.955  12.414  0.1340 -0.1326 -0.4143
 4872TIP3    H136107   4.870   3.981  12.322  1.9564  0.7055 -0.2142
 4872TIP3    H236108   4.872   4.037  12.463 -2.4144 -0.5014  0.4676
 4873TIP3   OH236109   0.565   3.107   1.451  0.5798 -0.5977  0.0178
 4873TIP3    H136110   0.489   3.111   1.509  0.3501 -1.3807 -0.2247
 4873TIP3    H236111   0.588   3.199   1.435 -1.0706 -0.3122 -0.8980
 4874TIP3   OH236112   1.539   0.620  16.408  0.0448  0.1763 -0.1877
 4874TIP3    H136113   1.541   0.539  16.358 -0.4280  0.4989 -0.7466
 4874TIP3    H236114   1.446   0.634  16.428  0.1446  0.4635  0.0831
 4875TIP3   OH236115   3.296   5.016   4.759 -0.2299  0.0448  0.5566
 4875TIP3    H136116   3.320   5.005   4.851  0.9358  0.3934  0.3107
 4875TIP3    H236117   3.224   5.079   4.761  1.3198  1.9018  1.1005
 4876TIP3   OH236118   4.197   1.300   2.100 -0.0756 -0.5380  0.4407
 4876TIP3    H136119   4.254   1.273   2.172  1.2571  0.3348 -0.2483
 4876TIP3    H236120   4.219   1.240   2.028 -0.0450 -0.2186  0.1815
 4877TIP3   OH236121   4.963   6.831   2.846  0.1978  0.3190 -0.8768
 4877TIP3    H136122   5.004   6.783   2.918 -0.3720  1.3666  0.1883
 4877TIP3    H236123   4.993   6.921   2.857 -0.0115  0.5179 -1.8798
 4878TIP3   OH236124   0.329   2.611   3.776 -0.3362 -0.1068 -0.1225
 4878TIP3    H136125   0.292   2.523   3.767  0.4529 -0.4200 -0.3987
 4878TIP3    H236126   0.269   2.656   3.836 -0.2219 -1.1349  0.7964
 4879TIP3   OH236127   3.653   6.786   3.496 -0.5387  0.4966  0.3244
 4879TIP3    H136128   3.575   6.835   3.523 -1.9006 -1.8162  0.8607
 4879TIP3    H236129   3.711   6.790   3.572 -1.0132  0.5641  0.6909
 4880TIP3   OH236130   3.474   1.725   0.970  0.2063  0.1843 -0.2010
 4880TIP3    H136131   3.439   1.638   0.954  1.1849 -0.4646  1.0318
 4880TIP3    H236132   3.488   1.729   1.064  1.2241  1.2625 -0.3712
 4881TIP3   OH236133   2.562   2.894  12.942  0.5876 -0.0937  0.2447
 4881TIP3    H136134   2.481   2.913  12.894  0.2214  0.1583  0.9488
 4881TIP3    H236135   2.610   2.977  12.942  0.4704 -0.0279  0.5418
 4882TIP3   OH236136   0.319   4.414   3.122 -0.7155 -0.2143  0.9782
 4882TIP3    H136137   0.279   4.444   3.041  2.3814  0.7291 -0.3465
 4882TIP3    H236138   0.302   4.320   3.124 -0.3382 -0.3742 -1.1232
 4883TIP3   OH236139   3.788   1.512   5.363 -0.2285 -0.4565  0.6133
 4883TIP3    H136140   3.869   1.463   5.374  0.4113  0.5481  0.5268
 4883TIP3    H236141   3.815   1.595   5.324 -1.2407  0.0690  0.9735
 4884TIP3   OH236142   4.083   2.678   0.938  0.0468  0.5446  0.5813
 4884TIP3    H136143   4.134   2.614   0.986  1.9892  0.8805 -0.9093
 4884TIP3    H236144   4.105   2.663   0.846 -1.9589  1.2427 -0.0734
 4885TIP3   OH236145   6.082   2.280  11.452 -0.5440  0.0825 -0.7584
 4885TIP3    H136146   6.167   2.314  11.479 -0.9837  2.3730 -1.9750
 4885TIP3    H236147   6.089   2.185  11.463  1.7154  0.3129  0.3202
 4886TIP3   OH236148   3.026   2.299   2.220  0.3268 -0.0961 -0.1065
 4886TIP3    H136149   3.044   2.235   2.289  1.6294  0.9702  0.5837
 4886TIP3    H236150   2.941   2.336   2.243 -0.8131 -2.0424 -0.9221
 4887TIP3   OH236151   4.339   6.366  10.651 -0.2602  0.3044  0.2366
 4887TIP3    H136152   4.376   6.316  10.578 -1.3133 -1.1810  0.6938
 4887TIP3    H236153   4.249   6.335  10.659  0.2125 -0.6030  3.0388
 4888TIP3   OH236154   6.129   2.109   0.255  0.1920  0.1791  0.3192
 4888TIP3    H136155   6.093   2.154   0.332 -0.1150  0.1265  0.2088
 4888TIP3    H236156   6.064   2.123   0.187 -0.4579 -1.3659  0.5806
 4889TIP3   OH236157   4.164   2.293  15.555 -0.1529 -0.3159 -0.4981
 4889TIP3    H136158   4.248   2.338  15.564 -0.2765 -0.2727  0.6758
 4889TIP3    H236159   4.165   2.257  15.467  0.5658  0.7513 -0.9478
 4890TIP3   OH236160   6.480   6.016  15.297 -0.0759 -0.4339  0.7863
 4890TIP3    H136161   6.564   6.045  15.333  0.3637  0.6777 -0.9959
 4890TIP3    H236162   6.504   5.957  15.226 -0.6503  1.3858 -1.0204
 4891TIP3   OH236163   3.755   6.766  11.779 -0.6048 -0.0922  0.6784
 4891TIP3    H136164   3.784   6.720  11.700 -0.6889 -1.1622  1.2562
 4891TIP3    H236165   3.728   6.853  11.748  0.2021 -0.1885 -0.3315
 4892TIP3   OH236166   3.507   3.114  15.740  0.4869 -0.4418 -0.4483
 4892TIP3    H136167   3.452   3.150  15.671 -0.5334  1.0375  1.0603
 4892TIP3    H236168   3.560   3.188  15.769  2.6068 -1.6002 -1.1720
 4893TIP3   OH236169   5.095   3.355   4.220 -0.2922  0.2419 -0.3707
 4893TIP3    H136170   5.101   3.450   4.229  1.3583  0.0933  0.6003
 4893TIP3    H236171   5.186   3.327   4.206 -0.7982 -1.1610 -0.9609
 4894TIP3   OH236172   5.211   2.095  14.937 -0.4641 -0.1164  0.4025
 4894TIP3    H136173   5.205   2.013  14.888  1.2498 -0.5231  0.8156
 4894TIP3    H236174   5.304   2.116  14.939 -0.8536  1.9076  0.2365
 4895TIP3   OH236175   1.072   0.128   3.753  0.0031 -0.4586 -0.1860
 4895TIP3    H136176   0.986   0.169   3.742 -0.5035 -1.4471 -0.0002
 4895TIP3    H236177   1.126   0.197   3.791 -0.4319  0.4815 -1.2139
 4896TIP3   OH236178   5.096   5.295  10.977  0.4298  0.4529  0.4941
 4896TIP3    H136179   5.148   5.290  10.897 -0.5403 -1.2580 -0.0898
 4896TIP3    H236180   5.039   5.371  10.965 -0.7390 -0.6130 -1.1500
 4897TIP3   OH236181   4.372   1.793   2.409  0.2036 -0.5041 -0.3312
 4897TIP3    H136182   4.326   1.709   2.410  0.4675 -0.6737 -1.2558
 4897TIP3    H236183   4.315   1.851   2.359 -0.1596 -0.0085  0.6300
 4898TIP3   OH236184   6.502   1.131   1.228 -0.3880  0.3915 -0.5462
 4898TIP3    H136185   6.558   1.143   1.305 -1.0939 -4.4894  1.0725
 4898TIP3    H236186   6.420   1.175   1.250 -0.8368 -1.5053  2.0330
 4899TIP3   OH236187   2.838   5.896  16.337  0.3329  0.0237  0.3479
 4899TIP3    H136188   2.768   5.837  16.308  1.8170 -1.7357  0.2099
 4899TIP3    H236189   2.811   5.922  16.426 -0.8553 -0.0090  0.0171
 4900TIP3   OH236190   4.783   0.881  15.514  0.0687  0.2340 -0.4774
 4900TIP3    H136191   4.857   0.824  15.498  0.0496  0.3758 -1.0913
 4900TIP3    H236192   4.805   0.963  15.469 -0.7007  0.0841 -1.1578
 4901TIP3   OH236193   6.260   0.189  10.348 -0.3265 -0.6592 -0.0280
 4901TIP3    H136194   6.250   0.106  10.301 -0.6931 -0.3661 -0.4746
 4901TIP3    H236195   6.335   0.231  10.308  0.0773 -0.9283  0.4366
 4902TIP3   OH236196   6.806   0.294   2.229 -0.2131 -0.5675 -0.3509
 4902TIP3    H136197   6.831   0.295   2.321 -1.6063 -0.7380  0.0489
 4902TIP3    H236198   6.873   0.347   2.185  0.5558 -0.6262  0.7251
 4903TIP3   OH236199   1.034   0.873   5.328 -0.5789 -0.3556 -0.2691
 4903TIP3    H136200   1.070   0.962   5.332 -0.8615 -0.2790  0.8258
 4903TIP3    H236201   0.939   0.886   5.332 -0.6929 -0.7856  4.7059
 4904TIP3   OH236202   1.860   1.460  14.201 -0.1809  0.4243 -0.2211
 4904TIP3    H136203   1.808   1.380  14.189  1.6008 -0.7048 -0.8483
 4904TIP3    H236204   1.944   1.440  14.159  0.1883  2.7906 -0.7298
 4905TIP3   OH236205   4.683   4.430  14.506  0.0567 -0.4723 -0.6645
 4905TIP3    H136206   4.706   4.413  14.598 -4.2887  0.1894  0.7802
 4905TIP3    H236207   4.654   4.521  14.506 -0.0708 -0.4736 -2.7379
 4906TIP3   OH236208   5.440   0.020   1.519  0.2520  0.6601  0.4242
 4906TIP3    H136209   5.535   0.018   1.507  0.2462  0.7520  0.3631
 4906TIP3    H236210   5.419  -0.067   1.553  0.4646  0.9466  1.2895
 4907TIP3   OH236211   3.162   6.579   1.757 -0.1378 -0.4978  0.0881
 4907TIP3    H136212   3.090   6.635   1.786  0.5448  0.3354  0.2330
 4907TIP3    H236213   3.238   6.611   1.805  0.3569 -1.2808 -0.1512
 4908TIP3   OH236214   0.645   2.759   2.100 -0.2028 -0.2058 -0.0074
 4908TIP3    H136215   0.553   2.783   2.115 -0.1692 -0.9953  1.6255
 4908TIP3    H236216   0.647   2.729   2.010 -1.5235 -0.0328 -0.1209
 4909TIP3   OH236217   6.098   3.042  15.808 -0.1129 -0.1860  0.4453
 4909TIP3    H136218   6.045   2.977  15.854 -1.5549  0.9293  0.4247
 4909TIP3    H236219   6.055   3.053  15.723  0.1116  0.7741  0.4383
 4910TIP3   OH236220   2.508   5.550  16.910  0.6521 -0.1442 -0.2020
 4910TIP3    H136221   2.459   5.476  16.875  1.2034 -0.4761 -0.2860
 4910TIP3    H236222   2.474   5.561  16.999  2.1213 -1.9851  0.6788
 4911TIP3   OH236223   1.888   5.744  17.191  0.2654 -0.3126  0.8144
 4911TIP3    H136224   1.800   5.780  17.177  1.1039  2.0221  1.1657
 4911TIP3    H236225   1.883   5.654  17.156 -1.4369  0.7444 -1.9946
 4912TIP3   OH236226   2.997   5.233  17.033  0.1534 -0.1541 -0.4032
 4912TIP3    H136227   3.050   5.249  16.955 -0.5623 -1.0076 -1.0925
 4912TIP3    H236228   3.043   5.278  17.104  0.5065  1.1590 -1.4212
 4913TIP3   OH236229   2.002   5.050   0.606 -0.0338  0.5987  0.2064
 4913TIP3    H136230   1.986   5.073   0.697 -1.0640  2.2702 -0.3451
 4913TIP3    H236231   2.073   5.108   0.578  2.5902 -2.1179  0.7514
 4914TIP3   OH236232   4.681   1.616   2.764  0.2894 -0.6166  0.0726
 4914TIP3    H136233   4.668   1.674   2.689  1.5184 -1.5843 -0.9275
 4914TIP3    H236234   4.745   1.552   2.735  2.0300 -0.1059  2.4728
 4915TIP3   OH236235   5.628   3.920   5.781  0.1094 -0.0864  0.0241
 4915TIP3    H136236   5.685   3.997   5.774 -0.4459  0.3273 -0.0178
 4915TIP3    H236237   5.599   3.904   5.691  1.6327 -1.4546 -0.2852
 4916TIP3   OH236238   3.657   3.729   4.338  0.0423  0.2421 -0.0550
 4916TIP3    H136239   3.608   3.760   4.262  0.2635  0.8004  0.0212
 4916TIP3    H236240   3.748   3.729   4.310 -0.0638 -1.7975 -0.5359
 4917TIP3   OH236241   2.936   3.707   1.384 -0.7451 -0.1826 -0.2433
 4917TIP3    H136242   2.981   3.696   1.468 -0.4035  0.2000 -0.3708
 4917TIP3    H236243   3.005   3.691   1.319 -0.6492  0.9359 -0.4394
 4918TIP3   OH236244   5.230   1.845  14.810 -0.4925  0.0357 -0.3671
 4918TIP3    H136245   5.258   1.784  14.741  0.9414  1.6574 -1.2902
 4918TIP3    H236246   5.250   1.798  14.891  1.0587 -0.5828 -1.0412
 4919TIP3   OH236247   2.580   5.596   2.856 -0.1678 -0.1421 -0.3752
 4919TIP3    H136248   2.521   5.617   2.929  0.1827 -1.3742  0.2856
 4919TIP3    H236249   2.556   5.658   2.788 -0.3304  1.2093  0.8710
 4920TIP3   OH236250   6.277   0.035  11.871  0.3569 -0.0265  0.2236
 4920TIP3    H136251   6.216   0.034  11.797  1.3199  0.7366 -0.6067
 4920TIP3    H236252   6.271   0.124  11.906  0.1988 -0.2684  0.8301
 4921TIP3   OH236253   2.312   2.526   1.954  0.0333  0.3787  0.2715
 4921TIP3    H136254   2.254   2.571   1.893 -1.9867 -2.5618 -0.1467
 4921TIP3    H236255   2.395   2.517   1.907 -1.4169 -1.6705 -2.1266
 4922TIP3   OH236256   3.074   3.357  13.481  0.2554 -0.7128 -0.2172
 4922TIP3    H136257   3.087   3.374  13.574 -0.4280 -0.1787 -0.2122
 4922TIP3    H236258   2.980   3.349  13.471  0.1007  1.6901 -1.2580
 4923TIP3   OH236259   5.652   1.535  15.996  0.0008  0.1697 -0.3509
 4923TIP3    H136260   5.699   1.602  16.045  2.6523  0.2382 -2.7127
 4923TIP3    H236261   5.718   1.468  15.977  0.1826  1.4178 -6.0151
 4924TIP3   OH236262   3.427   3.054  17.000  0.3968 -0.5297  0.1043
 4924TIP3    H136263   3.415   3.106  17.080  0.7158  0.1588 -0.2899
 4924TIP3    H236264   3.339   3.028  16.975 -0.0926  2.0988 -1.1949
 4925TIP3   OH236265   1.047   3.740  14.134  0.3507 -0.3503 -1.3524
 4925TIP3    H136266   1.118   3.677  14.136 -0.4838 -1.3132  0.4829
 4925TIP3    H236267   0.967   3.688  14.140 -0.3508  0.8189  0.7684
 4926TIP3   OH236268   5.551   2.501   0.074 -0.3920  0.2962  0.3826
 4926TIP3    H136269   5.472   2.491   0.020 -0.9821  1.9738  0.8512
 4926TIP3    H236270   5.528   2.569   0.137  0.9453 -0.2496  1.5016
 4927TIP3   OH236271   1.372   0.238  15.739 -0.0750  0.2695  0.0612
 4927TIP3    H136272   1.455   0.230  15.692  0.2586  1.3853  0.4314
 4927TIP3    H236273   1.323   0.305  15.691  0.5000  1.8464  1.5792
 4928TIP3   OH236274   0.618   6.481   2.229 -0.0140  0.0115  0.1621
 4928TIP3    H136275   0.600   6.389   2.209  1.8521 -0.4665  0.4745
 4928TIP3    H236276   0.532   6.519   2.249 -0.8706 -1.5437 -0.4123
 4929TIP3   OH236277   5.171   6.294  12.738 -0.0918  0.4853  0.4063
 4929TIP3    H136278   5.086   6.300  12.780  0.0593  0.2525  0.7564
 4929TIP3    H236279   5.151   6.276  12.646 -0.4629 -3.1478  1.0357
 4930TIP3   OH236280   0.978   4.275   1.945 -0.4906 -0.3994 -0.1783
 4930TIP3    H136281   1.049   4.229   1.990  0.1136  0.5282 -0.1541
 4930TIP3    H236282   1.009   4.285   1.856 -0.1132  0.9469  0.0862
 4931TIP3   OH236283   3.175   3.889  13.240  0.6735 -0.5166 -0.2371
 4931TIP3    H136284   3.173   3.983  13.259  1.9429 -0.6318  0.6697
 4931TIP3    H236285   3.174   3.883  13.145 -0.2556  0.3682 -0.2982
 4932TIP3   OH236286   6.406   3.309  17.075 -0.2896 -0.1716  0.2165
 4932TIP3    H136287   6.410   3.391  17.026 -0.0960 -0.9357 -1.0838
 4932TIP3    H236288   6.353   3.330  17.152 -1.5622  0.7887 -0.8675
 4933TIP3   OH236289   4.236   6.508   3.552 -0.3769  0.3718 -0.4031
 4933TIP3    H136290   4.241   6.415   3.573 -0.2107  0.7147  1.2439
 4933TIP3    H236291   4.218   6.550   3.636 -3.7284  1.5772 -1.5642
 4934TIP3   OH236292   4.743   2.743   2.535  0.1114  0.4136  0.6338
 4934TIP3    H136293   4.656   2.705   2.521  0.8492 -1.0079 -0.3518
 4934TIP3    H236294   4.763   2.724   2.627 -0.5834  0.7121  0.8558
 4935TIP3   OH236295   6.127   1.037  13.785  0.2501  0.4705  0.7550
 4935TIP3    H136296   6.181   0.959  13.792  0.9471  1.0378  1.8922
 4935TIP3    H236297   6.062   1.029  13.855 -2.1050 -0.8613 -1.3912
 4936TIP3   OH236298   2.269   5.986   0.566 -0.1640 -0.2866  0.2652
 4936TIP3    H136299   2.287   5.961   0.657  0.5106  0.3345  0.3104
 4936TIP3    H236300   2.281   5.905   0.517 -0.3795 -0.5925  0.7051
 4937TIP3   OH236301   5.247   5.497   5.831  0.4645 -0.0366 -0.5494
 4937TIP3    H136302   5.199   5.540   5.760  0.4978 -1.1928 -1.2915
 4937TIP3    H236303   5.187   5.501   5.905 -0.5589 -0.9369 -1.3050
 4938TIP3   OH236304   5.376   5.102   3.771  0.2347  0.6442  0.7204
 4938TIP3    H136305   5.466   5.071   3.764  0.7688  1.9275  1.5919
 4938TIP3    H236306   5.324   5.022   3.772  1.3330 -0.1111 -0.0743
 4939TIP3   OH236307   5.752   1.485   0.801 -0.5049 -0.5821  0.0213
 4939TIP3    H136308   5.766   1.402   0.846  0.0317 -0.9501 -0.8164
 4939TIP3    H236309   5.707   1.540   0.866  0.4634 -1.0230  1.1021
 4940TIP3   OH236310   4.810   6.591  11.284 -0.2690  0.7621 -0.3827
 4940TIP3    H136311   4.756   6.648  11.230 -0.6469  0.3471 -0.4452
 4940TIP3    H236312   4.842   6.524  11.223 -2.7285 -1.2051  0.3276
 4941TIP3   OH236313   3.999   2.842   6.796  0.6614  0.0959 -0.2661
 4941TIP3    H136314   4.041   2.854   6.711  0.5310  0.3724 -0.2928
 4941TIP3    H236315   4.071   2.835   6.859  0.8011 -1.3331 -0.5425
 4942TIP3   OH236316   5.345   0.632   0.256  0.1472 -0.1508  0.2603
 4942TIP3    H136317   5.390   0.572   0.315 -0.3659  1.1465  2.0552
 4942TIP3    H236318   5.415   0.677   0.209  0.5724 -0.9810  0.0860
 4943TIP3   OH236319   2.608   1.974  12.574 -0.0979  0.1185 -0.1274
 4943TIP3    H136320   2.578   2.031  12.503 -0.7335 -0.4482 -0.3203
 4943TIP3    H236321   2.593   1.885  12.542  3.3602 -0.3295 -0.9871
 4944TIP3   OH236322   1.935   3.250   2.733 -0.4292 -0.8904  0.0784
 4944TIP3    H136323   1.879   3.174   2.751 -2.6093  0.3728 -0.8640
 4944TIP3    H236324   1.972   3.234   2.646 -0.8754 -0.8980 -0.1129
 4945TIP3   OH236325   1.326   3.457   5.691  0.0687 -0.5399 -0.7419
 4945TIP3    H136326   1.258   3.416   5.746 -0.3304  0.0185 -0.8087
 4945TIP3    H236327   1.382   3.503   5.754 -0.4451  0.1814 -0.7989
 4946TIP3   OH236328   1.530   2.373  15.950  0.5064 -0.0094 -0.7503
 4946TIP3    H136329   1.467   2.350  16.018  0.6973  2.3084  0.3016
 4946TIP3    H236330   1.545   2.292  15.902 -1.9301 -1.0158  0.0642
 4947TIP3   OH236331   3.098   0.696  13.949  0.0479 -0.3778  0.3627
 4947TIP3    H136332   3.131   0.626  14.005  2.6311  0.7485  0.3958
 4947TIP3    H236333   3.017   0.724  13.991  1.1626 -0.5071  2.8140
 4948TIP3   OH236334   6.047   0.812   3.199 -0.3904 -0.5257  0.0111
 4948TIP3    H136335   6.025   0.740   3.258  0.5895 -0.2195  0.7752
 4948TIP3    H236336   6.122   0.779   3.149 -0.3610 -0.2797 -0.1051
 4949TIP3   OH236337   2.184   6.823  15.108 -0.3459  0.1226  0.0307
 4949TIP3    H136338   2.119   6.784  15.166  0.3126 -2.5425 -0.8670
 4949TIP3    H236339   2.172   6.918  15.117 -2.8872 -0.2659  1.4692
 4950TIP3   OH236340   2.129   5.464   6.090  0.2405  0.1995  0.0669
 4950TIP3    H136341   2.176   5.494   6.013  0.7512  0.4705  0.4780
 4950TIP3    H236342   2.098   5.544   6.133 -0.0237  0.0532  0.1549
 4951TIP3   OH236343   1.050   0.245  15.090 -0.2209  0.2440  0.1866
 4951TIP3    H136344   1.034   0.278  15.002 -0.6921 -0.7003 -0.0986
 4951TIP3    H236345   1.127   0.188  15.081  0.7528  1.4459  0.7238
 4952TIP3   OH236346   1.777   6.568   5.363 -0.2798 -0.1281 -0.2109
 4952TIP3    H136347   1.867   6.559   5.333  0.1411 -0.2693  1.0339
 4952TIP3    H236348   1.742   6.479   5.359  0.1710 -0.3704  0.8671
 4953TIP3   OH236349   1.965   3.115   4.735  0.3299 -0.0624  0.0185
 4953TIP3    H136350   1.989   3.160   4.654 -0.1462 -1.1922 -0.7646
 4953TIP3    H236351   2.020   3.037   4.737 -0.2820 -0.4897  0.3485
 4954TIP3   OH236352   4.070   3.165  14.769  0.3917  0.3375  0.0925
 4954TIP3    H136353   4.115   3.081  14.759  0.2396  0.2530  0.1104
 4954TIP3    H236354   4.135   3.231  14.745 -0.1625  0.1204 -2.3346
 4955TIP3   OH236355   3.344   5.335  16.195  0.7730  0.3674 -0.3179
 4955TIP3    H136356   3.285   5.280  16.248 -0.8125  0.8584 -1.5161
 4955TIP3    H236357   3.427   5.333  16.243 -0.2245 -0.2703  1.4896
 4956TIP3   OH236358   0.868   0.680   0.695 -0.4343 -0.1037 -0.0073
 4956TIP3    H136359   0.839   0.738   0.625 -0.6194  0.6669  0.6926
 4956TIP3    H236360   0.958   0.707   0.714  0.0280 -1.0695 -0.7082
 4957TIP3   OH236361   6.015   4.462   0.484 -0.2027  0.5784 -0.1017
 4957TIP3    H136362   6.104   4.446   0.516 -0.5162  1.1647  1.1258
 4957TIP3    H236363   6.024   4.534   0.422  0.4058 -0.5205 -1.3316
 4958TIP3   OH236364   4.401   4.395  13.994  0.3764  0.2636 -0.5229
 4958TIP3    H136365   4.446   4.459  13.940  0.6285  0.1704 -0.4213
 4958TIP3    H236366   4.314   4.434  14.010  0.1050  0.0580 -1.4358
 4959TIP3   OH236367   6.561   3.314   4.600  0.5779  0.4436 -0.2971
 4959TIP3    H136368   6.578   3.301   4.507  1.0560  1.7137 -0.4004
 4959TIP3    H236369   6.595   3.401   4.619  0.9927 -0.0166  1.1940
 4960TIP3   OH236370   2.394   3.205  12.601  0.7212  0.0877  0.4972
 4960TIP3    H136371   2.314   3.245  12.633  0.7931  0.4780  0.2008
 4960TIP3    H236372   2.431   3.159  12.677  1.1300  1.3776  1.0946
 4961TIP3   OH236373   2.489   1.960  13.191  0.3647  0.1013  0.6516
 4961TIP3    H136374   2.548   1.895  13.153 -0.1379  1.7536 -3.3892
 4961TIP3    H236375   2.401   1.927  13.171 -0.0234  0.2324  2.0079
 4962TIP3   OH236376   0.081   3.068  17.051  0.6594 -0.2248 -0.0011
 4962TIP3    H136377   0.013   3.028  17.105  1.0376  0.3952  0.9515
 4962TIP3    H236378   0.048   3.060  16.961 -1.9714  2.4136  0.5686
 4963TIP3   OH236379   6.646   2.897  14.403 -0.4004  0.1099  0.0014
 4963TIP3    H136380   6.695   2.924  14.325  0.4366 -0.5496  0.2838
 4963TIP3    H236381   6.569   2.954  14.404 -0.7775 -0.3193 -1.6734
 4964TIP3   OH236382   6.563   1.855   0.130  0.7975 -0.0219 -0.3209
 4964TIP3    H136383   6.538   1.831   0.041  2.2523  1.9273 -1.3235
 4964TIP3    H236384   6.483   1.842   0.181  0.0813 -1.7679 -1.7367
 4965TIP3   OH236385   3.253   2.096   1.482 -0.6866 -0.3776 -0.8172
 4965TIP3    H136386   3.213   2.152   1.548 -0.3704 -0.4932 -0.5250
 4965TIP3    H236387   3.335   2.140   1.459 -0.1992 -0.9466 -0.2368
 4966TIP3   OH236388   5.094   0.617   6.611  0.4829 -0.1736 -0.2098
 4966TIP3    H136389   5.091   0.632   6.705 -0.5469  0.0608 -0.2666
 4966TIP3    H236390   5.104   0.705   6.573  0.0167 -0.1797 -0.3486
 4967TIP3   OH236391   2.878   2.581   2.916  0.4071 -0.2782  0.5964
 4967TIP3    H136392   2.908   2.667   2.948  3.3088 -1.1599  0.5531
 4967TIP3    H236393   2.799   2.601   2.867  0.1094  2.1569  1.8801
 4968TIP3   OH236394   4.399   0.804   5.974 -0.5663 -0.1776  0.3700
 4968TIP3    H136395   4.469   0.867   5.989  1.5826 -1.8776 -1.7869
 4968TIP3    H236396   4.336   0.820   6.044  0.8838  2.9057  1.0964
 4969TIP3   OH236397   1.362   4.704  11.455 -0.5810 -0.1319 -0.1893
 4969TIP3    H136398   1.403   4.624  11.488  1.2042  0.2507 -1.3067
 4969TIP3    H236399   1.367   4.695  11.359  0.7444  1.7903 -0.3600
 4970TIP3   OH236400   1.874   2.347   5.986 -0.3466 -0.4933  0.2897
 4970TIP3    H136401   1.965   2.341   5.956  0.5226  2.2118  2.0718
 4970TIP3    H236402   1.876   2.313   6.075 -1.2586 -0.9951  0.1318
 4971TIP3   OH236403   6.632   5.290   2.363 -0.2818 -0.6160  0.4028
 4971TIP3    H136404   6.559   5.298   2.424 -1.3756  0.0772 -0.9158
 4971TIP3    H236405   6.660   5.199   2.370 -0.8250 -0.7205  1.4200
 4972TIP3   OH236406   0.841   3.284   5.314 -0.3073 -0.3971  0.6899
 4972TIP3    H136407   0.858   3.246   5.228  0.9216  0.9304  0.3062
 4972TIP3    H236408   0.746   3.287   5.320 -0.4189 -0.0841 -0.8289
 4973TIP3   OH236409   0.760   4.828   0.681 -0.2119  0.2494 -0.0293
 4973TIP3    H136410   0.818   4.771   0.630  0.1522  0.4152  0.1943
 4973TIP3    H236411   0.805   4.838   0.765 -0.0937  1.1421 -0.1880
 4974TIP3   OH236412   2.821   0.887   3.780  0.5237  0.3518 -0.5179
 4974TIP3    H136413   2.743   0.940   3.800  0.2793 -0.6842  1.5005
 4974TIP3    H236414   2.786   0.806   3.744  0.4402 -0.8919  2.1060
 4975TIP3   OH236415   5.500   1.956   3.003 -0.1212  0.9652  0.8763
 4975TIP3    H136416   5.493   2.018   2.931 -1.9727  0.5394  0.6438
 4975TIP3    H236417   5.592   1.962   3.030  0.1445  2.5738 -0.2019
 4976TIP3   OH236418   2.558   0.249  16.449  0.4611  0.0361 -0.3408
 4976TIP3    H136419   2.507   0.321  16.486  1.6224 -0.4547  2.4672
 4976TIP3    H236420   2.649   0.273  16.465  0.8735 -2.1951  1.1152
 4977TIP3   OH236421   1.359   3.179   0.256  0.1209 -0.4858 -0.1187
 4977TIP3    H136422   1.439   3.185   0.309  1.7283  0.4078 -2.4572
 4977TIP3    H236423   1.333   3.270   0.242 -0.9839 -0.7559  0.1478
 4978TIP3   OH236424   0.124   5.574  12.229 -0.4826  0.1353  0.5500
 4978TIP3    H136425   0.187   5.503  12.240 -1.2547 -0.2776  3.0642
 4978TIP3    H236426   0.050   5.550  12.285 -1.2446  2.3992  0.6475
 4979TIP3   OH236427   5.921   2.093   5.118  0.1320 -0.0957  0.4516
 4979TIP3    H136428   5.956   2.180   5.139 -0.3465 -0.0800  1.2333
 4979TIP3    H236429   5.873   2.106   5.037  0.1662  0.3481  0.4981
 4980TIP3   OH236430   1.197   6.247   3.193  0.1466  0.7605  0.0191
 4980TIP3    H136431   1.200   6.174   3.255 -0.2530  0.9235  0.2274
 4980TIP3    H236432   1.289   6.267   3.175  0.2601  0.0206 -0.2526
 4981TIP3   OH236433   4.849   1.395   3.716  0.1926 -0.0485  0.2113
 4981TIP3    H136434   4.875   1.485   3.700 -1.5594  0.3738 -0.4949
 4981TIP3    H236435   4.813   1.396   3.805  0.1860 -0.0525  0.2085
 4982TIP3   OH236436   0.267   4.074  14.006  0.2122  0.0631  0.6419
 4982TIP3    H136437   0.184   4.122  14.000 -0.2522 -0.3175  3.0926
 4982TIP3    H236438   0.331   4.140  14.033  0.7342  0.3161 -1.0687
 4983TIP3   OH236439   1.071   1.712  11.742  0.4727  0.4245  0.0666
 4983TIP3    H136440   1.009   1.785  11.742 -1.6099 -1.2283 -0.9301
 4983TIP3    H236441   1.036   1.651  11.676  3.0614 -0.7198 -0.3894
 4984TIP3   OH236442   4.881   3.218  13.232 -0.0638  0.5441  0.0555
 4984TIP3    H136443   4.800   3.268  13.239  0.4635  1.4281 -0.0592
 4984TIP3    H236444   4.944   3.266  13.286  0.5516  0.2199 -0.3585
 4985TIP3   OH236445   4.785   1.355   6.816  1.1614 -0.1462  0.2756
 4985TIP3    H136446   4.779   1.297   6.740 -1.4088 -0.3149  0.5353
 4985TIP3    H236447   4.874   1.341   6.849  1.3778 -2.2192 -1.0049
 4986TIP3   OH236448   4.560   2.104  13.506 -0.2417  0.1609 -0.2139
 4986TIP3    H136449   4.499   2.045  13.462  0.3126 -0.0560 -0.7111
 4986TIP3    H236450   4.639   2.100  13.453  0.3781  0.0547  0.7023
 4987TIP3   OH236451   1.262   2.887  15.166 -0.4851  0.3853 -0.1530
 4987TIP3    H136452   1.239   2.808  15.118 -0.0458 -0.1019  0.4286
 4987TIP3    H236453   1.287   2.856  15.253  2.1494  0.8895 -0.6579
 4988TIP3   OH236454   6.528   3.936  14.357 -0.2457 -0.0702  0.5057
 4988TIP3    H136455   6.440   3.963  14.384  0.2331  0.4458  1.6284
 4988TIP3    H236456   6.567   4.016  14.321 -0.4840 -0.4833 -0.7291
 4989TIP3   OH236457   4.058   4.669  16.763 -0.2877 -0.1348 -0.8224
 4989TIP3    H136458   3.997   4.741  16.777 -2.6820 -1.5487 -2.9635
 4989TIP3    H236459   4.090   4.682  16.674  2.6989  0.5455  0.2286
 4990TIP3   OH236460   1.678   6.180   0.577  0.1318 -0.0176  0.3054
 4990TIP3    H136461   1.659   6.244   0.509  1.1170 -0.7945 -0.7489
 4990TIP3    H236462   1.608   6.115   0.569  1.0204 -0.8765 -1.0055
 4991TIP3   OH236463   0.908   5.977   0.651 -0.2076  0.7701 -0.3193
 4991TIP3    H136464   0.944   6.064   0.666  1.7372 -0.0244  0.0091
 4991TIP3    H236465   0.954   5.944   0.574  0.2475 -0.5125  0.4493
 4992TIP3   OH236466   4.603   5.490   1.750  0.1339  0.0288 -0.2237
 4992TIP3    H136467   4.668   5.453   1.809  1.5307  1.6222 -0.6893
 4992TIP3    H236468   4.563   5.414   1.707  0.6921 -1.0354  1.0885
 4993TIP3   OH236469   1.817   1.619   2.313 -0.2520 -0.0974 -0.0382
 4993TIP3    H136470   1.910   1.601   2.302 -0.5325 -1.5804 -0.1704
 4993TIP3    H236471   1.811   1.715   2.316  1.1314  0.0605 -1.2709
 4994TIP3   OH236472   1.401   5.351   5.309 -0.8788 -0.2620 -0.1902
 4994TIP3    H136473   1.331   5.360   5.373 -0.4547  1.5719  0.0646
 4994TIP3    H236474   1.404   5.257   5.290 -3.5374 -0.3997 -0.3715
 4995TIP3   OH236475   5.239   4.798  13.626  0.4443 -0.2930  0.8410
 4995TIP3    H136476   5.194   4.862  13.571  0.5290  0.0351  1.1495
 4995TIP3    H236477   5.199   4.714  13.603 -0.9745  0.0930  1.7500
 4996TIP3   OH236478   4.068   4.685   0.983 -0.0607 -0.5432  0.3485
 4996TIP3    H136479   4.043   4.733   0.904 -2.5589  0.5831  1.7284
 4996TIP3    H236480   4.153   4.646   0.961 -1.0900 -1.1120 -3.2271
 4997TIP3   OH236481   2.020   6.332  17.028 -0.1330 -0.2185 -0.4220
 4997TIP3    H136482   1.996   6.291  16.945 -0.0883  0.3023 -0.6988
 4997TIP3    H236483   1.965   6.410  17.032  0.5064  0.2378 -0.3952
 4998TIP3   OH236484   2.486   3.115  16.562  0.1545  0.0345 -0.2621
 4998TIP3    H136485   2.569   3.133  16.519  0.6063  2.2351  1.3530
 4998TIP3    H236486   2.419   3.147  16.501  0.5951  0.1228 -0.7058
 4999TIP3   OH236487   5.485   5.452  11.828  0.3994 -0.1587 -0.0345
 4999TIP3    H136488   5.490   5.539  11.787 -0.7428 -0.5086 -0.9664
 4999TIP3    H236489   5.467   5.470  11.921  0.1112  0.6014 -0.2341
 5000TIP3   OH236490   6.144   5.361  13.732 -0.5950 -0.2071 -0.6942
 5000TIP3    H136491   6.237   5.338  13.738 -0.4590  0.4700 -0.1086
 5000TIP3    H236492   6.098   5.285  13.767 -0.1595  0.2928  1.0689
 5001TIP3   OH236493   3.086   0.833   1.453  0.7508  0.2485  1.0061
 5001TIP3    H136494   3.081   0.801   1.363  1.3167  0.1534  1.0047
 5001TIP3    H236495   3.111   0.925   1.444  2.1587 -0.1098  1.1000
 5002TIP3   OH236496   0.149   3.573   4.795 -0.1721  0.8432 -0.3250
 5002TIP3    H136497   0.074   3.624   4.764  0.7070  1.3170 -1.7454
 5002TIP3    H236498   0.226   3.622   4.766  0.7034 -0.3892 -0.1847
 5003TIP3   OH236499   6.164   6.687   5.617  0.0947  0.4884 -0.3750
 5003TIP3    H136500   6.249   6.670   5.576 -0.7481 -0.1768 -1.9301
 5003TIP3    H236501   6.109   6.718   5.546 -0.4800  2.7899  0.9823
 5004TIP3   OH236502   0.757   2.860  14.381  0.3586  0.2948  0.0948
 5004TIP3    H136503   0.667   2.891  14.370  1.1191  2.1241 -1.6677
 5004TIP3    H236504   0.757   2.816  14.466 -1.7189  1.9633  1.0572
 5005TIP3   OH236505   6.050   6.572   3.193  0.7155  0.0266 -0.3239
 5005TIP3    H136506   6.028   6.486   3.158  0.3106  0.6113 -1.5961
 5005TIP3    H236507   6.009   6.575   3.279 -1.7577 -0.0360 -1.4003
 5006TIP3   OH236508   3.363   3.398  12.794 -0.6443 -0.8228  0.0946
 5006TIP3    H136509   3.395   3.406  12.704  0.0555 -1.4715  0.2728
 5006TIP3    H236510   3.436   3.429  12.848 -1.0171 -0.5430  0.4461
 5007TIP3   OH236511   3.905   2.736  11.452  0.0865 -0.3909  0.8464
 5007TIP3    H136512   3.970   2.673  11.421  1.4095 -0.0389  2.7497
 5007TIP3    H236513   3.947   2.821  11.440 -0.8920 -0.0054  0.1211
 5008TIP3   OH236514   0.450   0.542  14.836 -0.1982  0.1019  0.2520
 5008TIP3    H136515   0.474   0.632  14.857 -1.5942  0.2154  1.5787
 5008TIP3    H236516   0.375   0.550  14.776  0.6768 -0.2101 -0.9165
 5009TIP3   OH236517   2.321   2.216  12.991  0.8447 -0.2498 -0.0286
 5009TIP3    H136518   2.290   2.126  12.988  0.6886 -0.1789 -1.7240
 5009TIP3    H236519   2.387   2.221  12.921  2.1611  0.4994  1.2156
 5010TIP3   OH236520   1.253   3.361  15.024 -0.4525  0.4841 -0.1196
 5010TIP3    H136521   1.286   3.298  15.088 -0.5897 -1.3265 -1.7427
 5010TIP3    H236522   1.320   3.430  15.021  0.5436 -0.4286  0.4966
 5011TIP3   OH236523   1.357   3.298   0.999 -0.2954 -0.4374  0.1780
 5011TIP3    H136524   1.424   3.244   0.958  0.5533 -1.2929  2.5215
 5011TIP3    H236525   1.398   3.383   1.011 -0.0949 -0.5690  0.4226
 5012TIP3   OH236526   3.830   5.225   4.306  1.0120 -0.1620  0.0286
 5012TIP3    H136527   3.754   5.271   4.268  2.0102  0.2188 -1.6144
 5012TIP3    H236528   3.883   5.201   4.230  3.8512  1.8952  1.1808
 5013TIP3   OH236529   5.752   1.389  12.047  0.6301  0.2324  0.2634
 5013TIP3    H136530   5.834   1.432  12.071  1.4910 -1.3116  0.2695
 5013TIP3    H236531   5.778   1.323  11.982 -0.3278 -1.3085  1.3706
 5014TIP3   OH236532   5.131   0.414   0.163 -0.3809  0.0091 -0.0181
 5014TIP3    H136533   5.133   0.408   0.068 -2.6205  1.0547 -0.1891
 5014TIP3    H236534   5.214   0.454   0.187  0.3504 -0.5599 -1.4820
 5015TIP3   OH236535   0.786   1.338  12.171 -0.0435 -0.5181  0.2619
 5015TIP3    H136536   0.705   1.388  12.178 -0.6818 -1.3394 -0.9322
 5015TIP3    H236537   0.853   1.402  12.149 -0.0773  0.3760  2.4433
 5016TIP3   OH236538   3.111   4.399   0.970 -0.0160 -0.0504 -0.1596
 5016TIP3    H136539   3.112   4.488   0.934  1.0174 -0.4505 -1.1822
 5016TIP3    H236540   3.139   4.410   1.060 -0.0810  0.6893 -0.2203
 5017TIP3   OH236541   0.100   3.347   4.507 -0.2278 -0.4668  0.1436
 5017TIP3    H136542   0.087   3.276   4.444  0.0948  0.2330 -0.7436
 5017TIP3    H236543   0.035   3.413   4.482  0.2402  0.0298  0.2182
 5018TIP3   OH236544   4.685   1.692   3.365 -0.2991 -0.6119  0.5944
 5018TIP3    H136545   4.703   1.600   3.345 -2.2052 -1.1445  1.1070
 5018TIP3    H236546   4.599   1.708   3.326 -0.7150  0.4747  1.8934
 5019TIP3   OH236547   4.376   1.121  13.453  0.0772 -0.7514  0.1011
 5019TIP3    H136548   4.315   1.163  13.515 -1.8408 -3.2484  0.0489
 5019TIP3    H236549   4.347   1.153  13.368  1.4574  1.1304  0.2628
 5020TIP3   OH236550   4.872   6.470  14.446 -0.3472 -0.7218 -0.3679
 5020TIP3    H136551   4.931   6.441  14.515  0.4728 -0.2905 -0.8672
 5020TIP3    H236552   4.815   6.534  14.489 -0.6408 -1.3403  0.1822
 5021TIP3   OH236553   5.777   1.272   0.994  0.3426  0.3957 -0.0407
 5021TIP3    H136554   5.732   1.200   0.949 -2.0357 -0.6777  3.6157
 5021TIP3    H236555   5.860   1.234   1.022  0.6710  0.2680 -1.1179
 5022TIP3   OH236556   1.987   3.824   4.941 -0.2930  0.3635  0.5839
 5022TIP3    H136557   2.004   3.753   4.880 -0.8004 -0.5772  1.5109
 5022TIP3    H236558   1.904   3.800   4.983  0.5935  0.4064  2.4417
 5023TIP3   OH236559   3.209   4.564   6.299 -0.0566  0.1014 -0.1988
 5023TIP3    H136560   3.198   4.592   6.390 -1.1125 -1.1469  0.0885
 5023TIP3    H236561   3.304   4.554   6.289 -0.0208 -2.3888  1.6726
 5024TIP3   OH236562   3.858   2.235  13.474 -0.2081 -0.1408 -0.1957
 5024TIP3    H136563   3.781   2.179  13.465 -0.1056 -0.4284  0.6052
 5024TIP3    H236564   3.929   2.187  13.431 -0.2617 -0.3349 -0.0680
 5025TIP3   OH236565   4.687   0.973  11.640 -0.7821  0.6459 -0.0169
 5025TIP3    H136566   4.671   0.879  11.635 -1.8258  0.7008  1.5513
 5025TIP3    H236567   4.689   0.992  11.734  2.5188  1.7200 -0.1983
 5026TIP3   OH236568   4.564   1.235   4.592  0.0912  0.3296  0.2537
 5026TIP3    H136569   4.637   1.298   4.599 -0.8405  1.4344  0.2654
 5026TIP3    H236570   4.572   1.181   4.671  1.4781 -0.2198 -0.2294
 5027TIP3   OH236571   1.104   4.512  15.240 -0.3331  0.0253  0.0443
 5027TIP3    H136572   1.154   4.478  15.314  0.7641  1.5016  0.0298
 5027TIP3    H236573   1.078   4.600  15.267 -2.0322 -0.3058 -0.3824
 5028TIP3   OH236574   0.430   0.694   2.588 -0.1940 -0.3125 -0.1978
 5028TIP3    H136575   0.499   0.661   2.646  0.6845  0.5736 -0.7065
 5028TIP3    H236576   0.476   0.721   2.509 -0.8396  2.1383  0.1959
 5029TIP3   OH236577   6.419   2.581   6.319  0.1298  0.3202  0.0464
 5029TIP3    H136578   6.356   2.579   6.390 -0.1691  0.4264 -0.2156
 5029TIP3    H236579   6.406   2.497   6.274  1.4320 -0.4768  1.0761
 5030TIP3   OH236580   0.394   0.915   5.940 -0.4954 -0.3571 -0.5880
 5030TIP3    H136581   0.468   0.867   5.903  1.3475  1.7191  0.1950
 5030TIP3    H236582   0.414   0.921   6.034  0.1197  3.0399 -0.8313
 5031TIP3   OH236583   5.350   4.887  13.261 -0.7017 -0.2223  0.6783
 5031TIP3    H136584   5.331   4.896  13.355  0.3415  0.9315  0.8043
 5031TIP3    H236585   5.294   4.951  13.219 -1.0961 -0.6705  0.5127
 5032TIP3   OH236586   5.517   5.487  11.344  0.6282  0.4012 -0.2689
 5032TIP3    H136587   5.589   5.451  11.397  1.2749 -0.2378 -1.5313
 5032TIP3    H236588   5.555   5.563  11.301 -0.2752  1.6996  1.1340
 5033TIP3   OH236589   6.433   2.234   5.369  0.2757  0.1271 -0.4174
 5033TIP3    H136590   6.419   2.309   5.427  0.8844 -0.4778  0.5508
 5033TIP3    H236591   6.528   2.230   5.358  0.2074 -0.1470 -0.9499
 5034TIP3   OH236592   5.239   3.631  16.795 -0.3238  0.1718 -0.4984
 5034TIP3    H136593   5.304   3.601  16.859  1.0789  0.6063 -1.6426
 5034TIP3    H236594   5.200   3.551  16.761 -0.4202 -0.0996  0.2270
 5035TIP3   OH236595   2.520   4.456  15.419 -0.1652 -0.1309 -0.6471
 5035TIP3    H136596   2.507   4.441  15.512  1.1706 -1.0841 -0.5860
 5035TIP3    H236597   2.560   4.543  15.413 -1.0971  0.3184 -0.4135
 5036TIP3   OH236598   0.504   6.767   4.863  0.3149  0.0538  0.7601
 5036TIP3    H136599   0.481   6.859   4.878 -0.1182  0.3223 -1.3064
 5036TIP3    H236600   0.580   6.752   4.920  0.5935  1.7841  0.8879
 5037TIP3   OH236601   5.354   4.364   5.558  0.4784  0.0069 -0.2643
 5037TIP3    H136602   5.335   4.337   5.648  0.7596  1.7928  0.3701
 5037TIP3    H236603   5.316   4.452   5.551  0.6637 -0.0095 -1.8275
 5038TIP3   OH236604   0.409   5.645   5.473  0.2474  0.1798  0.2182
 5038TIP3    H136605   0.484   5.702   5.456  0.6584 -0.5448 -0.4856
 5038TIP3    H236606   0.434   5.594   5.549  1.0000 -0.9205 -0.7376
 5039TIP3   OH236607   3.201   6.377   5.304 -0.1624 -0.3109 -0.0849
 5039TIP3    H136608   3.292   6.365   5.277  0.7742 -0.0164  2.6370
 5039TIP3    H236609   3.171   6.289   5.327  0.4332 -0.0861  1.7211
 5040TIP3   OH236610   0.728   3.214  12.309 -0.3164 -0.0576  0.2212
 5040TIP3    H136611   0.633   3.223  12.301 -0.4359 -1.5066 -0.3642
 5040TIP3    H236612   0.763   3.265  12.236 -0.8168 -1.8343 -1.3594
 5041TIP3   OH236613   0.361   4.744  15.159  0.6349  0.3179  0.2665
 5041TIP3    H136614   0.325   4.687  15.091  3.4829  0.8578 -1.8562
 5041TIP3    H236615   0.299   4.817  15.163 -0.1302 -0.2153 -1.0362
 5042TIP3   OH236616   1.133   5.036  13.411 -0.2703 -0.0404 -0.1628
 5042TIP3    H136617   1.048   5.057  13.451 -0.7494 -0.4648 -0.9369
 5042TIP3    H236618   1.197   5.056  13.480 -1.0527 -0.4392  0.7071
 5043TIP3   OH236619   5.458   4.721  15.255 -0.3696  0.0472  0.4817
 5043TIP3    H136620   5.522   4.725  15.325 -1.0999  2.4141  1.0752
 5043TIP3    H236621   5.499   4.765  15.181 -0.7030  0.1759  0.3674
 5044TIP3   OH236622   4.622   1.135   4.851 -0.2429 -0.0216 -0.3990
 5044TIP3    H136623   4.564   1.072   4.893 -0.2612 -1.1533 -2.0491
 5044TIP3    H236624   4.698   1.084   4.824 -1.1707  0.1037 -3.6816
 5045TIP3   OH236625   0.648   5.673  12.110  0.0306 -0.7737  0.3171
 5045TIP3    H136626   0.717   5.606  12.121  0.0800 -0.7178  0.3493
 5045TIP3    H236627   0.607   5.651  12.026  0.1727 -0.7300  0.2356
 5046TIP3   OH236628   4.813   3.675   2.486  0.5528 -0.1154 -0.3294
 5046TIP3    H136629   4.832   3.626   2.406 -1.2872 -0.8092 -0.4084
 5046TIP3    H236630   4.792   3.764   2.456  0.1566 -0.2997 -0.6107
 5047TIP3   OH236631   5.195   1.313   2.331  1.0922  0.0919  0.4588
 5047TIP3    H136632   5.253   1.263   2.388 -0.1601 -0.0308  1.6744
 5047TIP3    H236633   5.126   1.250   2.306  1.3240  0.2910 -0.7858
 5048TIP3   OH236634   1.075   3.329  16.532 -0.8438 -0.4769 -0.5474
 5048TIP3    H136635   1.128   3.345  16.454  2.1804 -1.2188  1.2007
 5048TIP3    H236636   1.085   3.409  16.584 -2.4331 -0.1823 -0.6383
 5049TIP3   OH236637   4.380   0.981   4.869 -0.4180  0.2205 -0.3533
 5049TIP3    H136638   4.346   0.937   4.947  0.3712  1.8689  0.9920
 5049TIP3    H236639   4.424   0.912   4.819  0.7264 -0.5830  1.6441
 5050TIP3   OH236640   0.953   2.859   2.438 -0.4584 -0.2772 -0.1290
 5050TIP3    H136641   0.886   2.808   2.393  0.2377 -0.4369 -1.0022
 5050TIP3    H236642   0.977   2.806   2.514 -0.9598 -0.4434 -0.0822
 5051TIP3   OH236643   4.106   1.476   5.831  0.1402  0.2186 -0.0792
 5051TIP3    H136644   4.035   1.538   5.819  0.2404  0.4680  0.6155
 5051TIP3    H236645   4.100   1.418   5.754 -0.0137  1.0118 -0.6750
 5052TIP3   OH236646   5.975   6.386   2.142  0.1163  0.0511 -0.5333
 5052TIP3    H136647   5.910   6.455   2.148 -0.3980 -0.3384 -1.3763
 5052TIP3    H236648   6.051   6.428   2.101  0.5235  0.5792  0.7209
 5053TIP3   OH236649   0.534   2.084  12.114 -0.1821  0.1820  0.5291
 5053TIP3    H136650   0.621   2.089  12.153 -0.2444 -1.1689  0.8896
 5053TIP3    H236651   0.504   1.995  12.134 -1.4465  0.4699 -0.0060
 5054TIP3   OH236652   2.210   4.850  13.918 -0.5773  0.3654  0.7418
 5054TIP3    H136653   2.135   4.815  13.966 -0.0896  0.1844  1.3905
 5054TIP3    H236654   2.207   4.944  13.934 -0.2009  0.2626  1.4527
 5055TIP3   OH236655   0.648   4.518   2.056 -0.1397  0.0014 -0.1782
 5055TIP3    H136656   0.554   4.539   2.048 -0.6515 -2.0310 -0.0797
 5055TIP3    H236657   0.674   4.556   2.139 -1.5310 -1.4559  0.9990
 5056TIP3   OH236658   3.186   5.633  15.434  0.0206  0.1082 -0.2453
 5056TIP3    H136659   3.170   5.675  15.519  1.2841  0.4245 -0.1523
 5056TIP3    H236660   3.126   5.678  15.374 -1.6415 -0.8134  0.6447
 5057TIP3   OH236661   5.445   6.591  16.278  0.1164  0.2484  0.9945
 5057TIP3    H136662   5.400   6.670  16.247  0.8359  0.2352 -0.1418
 5057TIP3    H236663   5.374   6.530  16.299 -0.4823  1.3860  2.5183
 5058TIP3   OH236664   6.534   0.819  17.117  0.5153  0.0986 -0.1051
 5058TIP3    H136665   6.477   0.743  17.133  0.6205 -0.1092 -0.6826
 5058TIP3    H236666   6.604   0.810  17.182 -0.8642  1.1683  1.6266
 5059TIP3   OH236667   2.169   5.635  11.015  0.1673 -0.2976 -0.3650
 5059TIP3    H136668   2.103   5.692  11.057  1.1880  0.9881 -0.4419
 5059TIP3    H236669   2.212   5.591  11.088 -0.7010 -1.0829 -0.3087
 5060TIP3   OH236670   1.241   2.280  10.332  0.5333  0.1133  0.1089
 5060TIP3    H136671   1.147   2.291  10.316  0.8676  0.8684 -1.6210
 5060TIP3    H236672   1.254   2.308  10.422 -1.2046 -2.0349  1.1257
 5061TIP3   OH236673   6.437   3.311  13.194 -0.2632 -0.0614 -0.2266
 5061TIP3    H136674   6.395   3.334  13.111  1.0209 -0.3131 -0.9785
 5061TIP3    H236675   6.454   3.217  13.187 -0.8351 -0.2409  0.6557
 5062TIP3   OH236676   3.757   0.069  13.564 -0.7348 -0.0927 -0.1171
 5062TIP3    H136677   3.850   0.074  13.587 -0.8067 -1.5496  0.6338
 5062TIP3    H236678   3.719   0.014  13.633 -2.4872  1.7978  0.5365
 5063TIP3   OH236679   6.018   5.068   5.463  0.9580  0.7451  0.3237
 5063TIP3    H136680   6.088   5.072   5.398  0.6839  0.7049  0.0163
 5063TIP3    H236681   6.042   4.996   5.520  0.1685 -0.6064 -0.9830
 5064TIP3   OH236682   2.730   0.234  14.520  0.7202  0.3218  0.2504
 5064TIP3    H136683   2.790   0.305  14.497 -0.8297  1.3624 -0.7478
 5064TIP3    H236684   2.769   0.195  14.598  2.8312  0.7601 -0.5185
 5065TIP3   OH236685   5.686   3.347  12.730  0.3851 -0.1512  0.0165
 5065TIP3    H136686   5.598   3.374  12.757  0.1314 -1.1911  0.2561
 5065TIP3    H236687   5.679   3.253  12.714  1.1762 -0.0350 -1.1303
 5066TIP3   OH236688   0.010   4.684   0.412 -0.1078  0.7309  0.3160
 5066TIP3    H136689   0.087   4.653   0.364  1.0426  1.8378  1.3580
 5066TIP3    H236690   0.013   4.779   0.403 -1.4043  0.7873  0.3226
 5067TIP3   OH236691   0.155   4.885   2.403  0.3325  0.4598 -0.6639
 5067TIP3    H136692   0.235   4.938   2.407  1.6032 -1.1808 -2.4519
 5067TIP3    H236693   0.140   4.871   2.309 -0.5991 -1.3687 -0.2877
 5068TIP3   OH236694   1.634   2.430  13.445 -0.3012  0.5784 -0.0470
 5068TIP3    H136695   1.576   2.365  13.484 -0.2228 -0.3005 -1.3087
 5068TIP3    H236696   1.722   2.395  13.458 -0.2462  0.5071 -0.5764
 5069TIP3   OH236697   4.704   4.743   6.055  0.0360 -0.5818 -0.3497
 5069TIP3    H136698   4.671   4.756   6.144  2.6144  0.7411  0.5192
 5069TIP3    H236699   4.768   4.672   6.063  2.1861  1.2327 -0.5305
 5070TIP3   OH236700   1.280   5.649   1.694 -0.4168  1.0106 -0.2229
 5070TIP3    H136701   1.321   5.630   1.610  0.5552 -1.6723  0.7294
 5070TIP3    H236702   1.210   5.712   1.674  0.6006  1.4345 -2.7808
 5071TIP3   OH236703   2.090   1.290   3.747 -0.4037  0.2690 -0.1015
 5071TIP3    H136704   2.151   1.225   3.712  0.2626  2.0196 -2.3771
 5071TIP3    H236705   2.069   1.346   3.673 -1.7464  2.0806  1.5445
 5072TIP3   OH236706   3.715   1.840  11.998  0.7856  0.2137  0.9144
 5072TIP3    H136707   3.784   1.879  12.051  1.2961 -0.4952  0.7875
 5072TIP3    H236708   3.634   1.863  12.043  1.0980  1.0383  1.0763
 5073TIP3   OH236709   0.909   2.426   2.009  0.2319 -0.2264 -0.6358
 5073TIP3    H136710   0.936   2.432   1.918 -1.9771  1.2401 -1.2892
 5073TIP3    H236711   0.965   2.359   2.047  2.2421  0.1856 -2.6683
 5074TIP3   OH236712   6.548   3.736   4.050  0.3205 -0.1961  0.1084
 5074TIP3    H136713   6.631   3.730   4.098 -0.5596 -3.6170  1.4526
 5074TIP3    H236714   6.481   3.741   4.119 -0.6963  2.4718 -0.9501
 5075TIP3   OH236715   6.445   5.697  15.221 -0.2777 -0.9027  0.4136
 5075TIP3    H136716   6.410   5.610  15.241 -2.0442 -0.7917 -1.7395
 5075TIP3    H236717   6.390   5.757  15.271  1.4659 -0.9895  2.5464
 5076TIP3   OH236718   4.303   5.327   1.483 -0.4578  0.7685 -0.6036
 5076TIP3    H136719   4.369   5.279   1.533 -1.4175 -1.5338 -1.4235
 5076TIP3    H236720   4.237   5.351   1.548 -1.3461 -1.5706 -0.5612
 5077TIP3   OH236721   4.328   3.813  14.553 -0.1275  0.3068 -0.4132
 5077TIP3    H136722   4.256   3.789  14.610 -1.2014  1.2629 -1.3218
 5077TIP3    H236723   4.394   3.849  14.612 -1.4918  1.9428  0.1835
 5078TIP3   OH236724   0.002   2.039   3.259 -0.1649  0.3208 -0.3948
 5078TIP3    H136725  -0.067   1.987   3.299  0.9026 -1.6211 -0.9660
 5078TIP3    H236726   0.078   1.981   3.256  1.2378  2.0831 -0.6379
 5079TIP3   OH236727   4.966   3.105  13.561 -0.2574 -0.0935  0.1029
 5079TIP3    H136728   5.028   3.055  13.509 -0.8154 -1.3746  0.6287
 5079TIP3    H236729   4.915   3.039  13.608 -0.5554  0.9873  1.3656
 5080TIP3   OH236730   5.360   3.098  16.980 -0.0326  0.2400 -0.2039
 5080TIP3    H136731   5.445   3.107  17.023  0.4959 -3.3802 -0.1613
 5080TIP3    H236732   5.372   3.027  16.917 -2.9232 -0.1890 -0.4267
 5081TIP3   OH236733   2.398   3.859   3.687  0.2795 -0.2947 -0.3480
 5081TIP3    H136734   2.305   3.868   3.666  0.6051 -0.3193 -1.9123
 5081TIP3    H236735   2.415   3.928   3.751 -0.4911  0.7222 -1.2087
 5082TIP3   OH236736   4.586   1.454   6.432 -0.2319 -0.9942  0.0129
 5082TIP3    H136737   4.512   1.505   6.399  0.0625 -0.2612  0.4645
 5082TIP3    H236738   4.586   1.470   6.526 -0.4342 -2.2389  0.2376
 5083TIP3   OH236739   4.022   0.397   2.507  0.5107 -0.2868 -0.3830
 5083TIP3    H136740   3.937   0.439   2.523  1.9529  2.4981  0.6267
 5083TIP3    H236741   4.024   0.381   2.413 -0.2789  1.6507 -0.7680
 5084TIP3   OH236742   5.860   4.124  14.328  0.7734 -0.3221 -0.2367
 5084TIP3    H136743   5.788   4.145  14.269  0.0677 -1.4136  0.2169
 5084TIP3    H236744   5.929   4.187  14.304 -0.3215  0.7653 -0.6483
 5085TIP3   OH236745   3.874   4.662   4.444  0.2425  0.1666 -0.5490
 5085TIP3    H136746   3.923   4.611   4.379  0.9252  0.4855 -0.2943
 5085TIP3    H236747   3.832   4.732   4.393  1.9358  1.2752 -0.4886
 5086TIP3   OH236748   3.563   3.379  15.459  0.2193  0.3361 -0.1235
 5086TIP3    H136749   3.555   3.403  15.366 -2.2579  0.2703  0.0121
 5086TIP3    H236750   3.565   3.283  15.458  3.9553  0.2636 -0.2563
 5087TIP3   OH236751   0.436   1.587  15.630  0.4710 -0.3497 -0.4236
 5087TIP3    H136752   0.346   1.620  15.632  1.0413  1.2738  0.3372
 5087TIP3    H236753   0.482   1.649  15.574  1.2164 -0.8902 -0.4155
 5088TIP3   OH236754   0.211   3.895   3.279 -0.3972  0.1214  0.2285
 5088TIP3    H136755   0.256   3.823   3.323 -1.0502  0.0583  0.8063
 5088TIP3    H236756   0.282   3.948   3.241  0.1820  0.1749  1.3480
 5089TIP3   OH236757   1.937   5.472  16.436  0.2470  0.3353 -0.1240
 5089TIP3    H136758   1.980   5.518  16.508  3.2980  0.0540 -1.6304
 5089TIP3    H236759   1.957   5.380  16.452 -0.7120  0.0770 -0.3464
 5090TIP3   OH236760   4.761   6.414  11.538  0.2761  0.1188 -0.1541
 5090TIP3    H136761   4.841   6.369  11.564 -0.4371 -0.9891  0.2130
 5090TIP3    H236762   4.787   6.467  11.462  1.1258 -1.0331 -0.6986
 5091TIP3   OH236763   1.690   3.305  10.455 -0.4886 -0.0467  0.1187
 5091TIP3    H136764   1.678   3.359  10.532 -0.1706  0.7535 -0.3822
 5091TIP3    H236765   1.605   3.308  10.410 -0.2887  0.5463 -0.2259
 5092TIP3   OH236766   6.366   3.588  12.931 -0.2385 -0.3116 -0.4002
 5092TIP3    H136767   6.365   3.641  13.011 -1.2503  0.5026 -0.9267
 5092TIP3    H236768   6.299   3.627  12.876  0.1680 -1.1146 -1.4961
 5093TIP3   OH236769   1.574   0.225   3.700  0.5715  0.5262  0.2452
 5093TIP3    H136770   1.630   0.241   3.624 -1.1436 -0.2326 -1.2726
 5093TIP3    H236771   1.486   0.251   3.671 -0.1358  0.2263  1.9880
 5094TIP3   OH236772   4.164   4.160  14.260  0.0168  0.5029  0.0700
 5094TIP3    H136773   4.259   4.163  14.251  0.2180 -0.8067  1.3378
 5094TIP3    H236774   4.137   4.089  14.202 -0.3046  1.3804 -0.8874
 5095TIP3   OH236775   5.333   1.203  11.036 -0.8614  0.3453  0.0260
 5095TIP3    H136776   5.333   1.299  11.040 -1.4057  0.4203 -1.1279
 5095TIP3    H236777   5.240   1.179  11.037 -0.7958 -0.0549 -1.2632
 5096TIP3   OH236778   0.968   4.836   1.545 -0.0301  0.1161 -0.0974
 5096TIP3    H136779   0.958   4.770   1.614  0.0460  0.0784 -0.1237
 5096TIP3    H236780   1.034   4.896   1.579  2.1096 -1.4339 -1.3408
 5097TIP3   OH236781   1.543   1.950  11.804 -0.0270 -0.0799  0.1793
 5097TIP3    H136782   1.558   1.874  11.859 -1.0895  0.1675  0.8544
 5097TIP3    H236783   1.530   2.022  11.865  0.3960  0.5336 -0.4368
 5098TIP3   OH236784   4.527   1.786  14.552 -0.5303  0.0412 -0.4581
 5098TIP3    H136785   4.563   1.698  14.555 -0.4380  0.0898  1.7944
 5098TIP3    H236786   4.548   1.824  14.638 -0.8304  2.1489 -1.2421
 5099TIP3   OH236787   3.309   3.592   5.689 -0.2447  0.4197 -0.2498
 5099TIP3    H136788   3.246   3.601   5.760 -1.0469  1.0482 -1.0215
 5099TIP3    H236789   3.288   3.664   5.629  0.7421  0.2038 -0.8775
 5100TIP3   OH236790   4.460   6.288   3.341 -0.4686  0.1333  0.0488
 5100TIP3    H136791   4.500   6.206   3.371  0.8885  0.9934  0.6971
 5100TIP3    H236792   4.366   6.270   3.340 -0.1496 -1.7215 -0.7474
 5101TIP3   OH236793   4.754   5.585  15.935  0.2734 -0.1380  0.0157
 5101TIP3    H136794   4.757   5.491  15.954 -0.1807  0.1235  1.5472
 5101TIP3    H236795   4.828   5.601  15.877  0.7033 -1.3386  0.2242
 5102TIP3   OH236796   5.631   5.283   2.961 -0.0190  0.0630 -0.3184
 5102TIP3    H136797   5.690   5.314   3.029 -1.1857 -0.8627  1.1802
 5102TIP3    H236798   5.683   5.285   2.881  1.1320  2.0105  0.4172
 5103TIP3   OH236799   1.443   3.509   1.406  0.6359  0.3162 -0.3010
 5103TIP3    H136800   1.463   3.416   1.393  0.1999 -0.2169  2.3049
 5103TIP3    H236801   1.510   3.555   1.356  0.5286 -1.3690 -2.1123
 5104TIP3   OH236802   2.034   2.552   2.180 -0.4596 -0.0073  0.2050
 5104TIP3    H136803   2.035   2.627   2.121  1.6243  0.8798  1.2726
 5104TIP3    H236804   1.978   2.580   2.252  0.9335  0.9014  0.9831
 5105TIP3   OH236805   6.394   3.646   3.116 -0.0496 -0.0787  0.3058
 5105TIP3    H136806   6.379   3.740   3.122 -0.3475  0.0836 -1.9863
 5105TIP3    H236807   6.458   3.636   3.045  2.0345 -1.4951  2.2362
 5106TIP3   OH236808   4.847   1.278   6.102  0.0590  0.2551 -0.5065
 5106TIP3    H136809   4.791   1.273   6.179  2.1941 -1.4727  1.0820
 5106TIP3    H236810   4.794   1.241   6.031 -1.5922  0.9153  0.3428
 5107TIP3   OH236811   2.592   6.433  11.358 -0.5433  0.1530  0.1979
 5107TIP3    H136812   2.658   6.386  11.409 -0.4519 -0.3751 -0.3956
 5107TIP3    H236813   2.640   6.505  11.317 -0.1964 -0.5938 -0.7286
 5108TIP3   OH236814   2.311   2.877  13.224  0.1626 -0.5954 -0.5314
 5108TIP3    H136815   2.227   2.842  13.255  0.8823  0.1478  2.6236
 5108TIP3    H236816   2.341   2.813  13.160 -1.8374 -1.9740 -0.1894
 5109TIP3   OH236817   5.348   5.161   1.556  0.1888  0.5492  0.9853
 5109TIP3    H136818   5.379   5.252   1.562  2.9455 -0.2694  0.8831
 5109TIP3    H236819   5.392   5.116   1.628 -0.0202 -0.9712  0.2056
 5110TIP3   OH236820   3.874   5.743  15.444 -0.3892  0.5067  0.1503
 5110TIP3    H136821   3.957   5.790  15.433  0.9629 -1.3913  1.3479
 5110TIP3    H236822   3.893   5.678  15.512 -2.1330 -1.6314 -1.2516
 5111TIP3   OH236823   2.323   5.966   1.181  0.0521 -0.0756 -0.4120
 5111TIP3    H136824   2.411   5.947   1.214  0.1737  1.0659 -0.0114
 5111TIP3    H236825   2.277   5.882   1.183  1.3517 -0.8427 -1.3292
 5112TIP3   OH236826   3.317   4.524   2.261 -0.4732 -0.1630  0.4269
 5112TIP3    H136827   3.363   4.553   2.339 -2.4636 -1.6247  2.2765
 5112TIP3    H236828   3.225   4.520   2.287 -1.1300 -1.4351 -1.7797
 5113TIP3   OH236829   3.464   2.998   6.173 -0.6230 -0.1991  0.5738
 5113TIP3    H136830   3.465   2.921   6.116 -0.3610 -1.5346  2.2989
 5113TIP3    H236831   3.371   3.012   6.192 -0.5871 -1.1160  1.5273
 5114TIP3   OH236832   5.937   1.997   2.289 -0.2942 -0.2821 -0.1062
 5114TIP3    H136833   5.911   2.017   2.379  0.9274  2.0387 -0.1909
 5114TIP3    H236834   5.859   2.017   2.237  0.1835  2.4822  0.0757
 5115TIP3   OH236835   1.933   5.046   5.437  0.8076 -0.2544 -0.4926
 5115TIP3    H136836   1.964   5.010   5.353  1.2552 -0.0648 -0.4120
 5115TIP3    H236837   1.853   5.094   5.415  0.8052 -0.3847 -0.7753
 5116TIP3   OH236838   1.783   5.890  15.693 -0.7024 -0.4252  0.8555
 5116TIP3    H136839   1.870   5.901  15.655 -1.9764  1.7592 -1.7462
 5116TIP3    H236840   1.795   5.822  15.760  2.9366 -0.2540  0.5855
 5117TIP3   OH236841   6.002   0.515  13.866 -0.5021  0.1744  0.2306
 5117TIP3    H136842   6.026   0.518  13.959  1.1377  1.7999 -0.1923
 5117TIP3    H236843   6.021   0.425  13.839  0.3880  0.0784  1.1283
 5118TIP3   OH236844   5.390   3.994   3.007 -0.3131  0.1404  0.2579
 5118TIP3    H136845   5.328   3.997   2.934 -1.2110  1.0919  1.0223
 5118TIP3    H236846   5.399   4.085   3.035  0.7706 -0.0956  0.7221
 5119TIP3   OH236847   3.994   4.091   4.678  0.2704 -0.3804 -0.1584
 5119TIP3    H136848   4.019   3.999   4.685 -0.4092 -0.5782 -0.1979
 5119TIP3    H236849   4.064   4.140   4.720  0.5588 -0.9310 -0.0047
 5120TIP3   OH236850   2.706   4.938  15.385  0.2087 -0.2900 -0.1181
 5120TIP3    H136851   2.784   4.993  15.376  1.9742 -2.7050 -0.4098
 5120TIP3    H236852   2.695   4.897  15.299  0.3910 -2.1657  0.7038
 5121TIP3   OH236853   6.756   4.706   0.998 -0.1729  0.1312  0.4541
 5121TIP3    H136854   6.707   4.718   0.916  0.0647 -0.2191  0.2583
 5121TIP3    H236855   6.843   4.680   0.970 -0.9094 -3.2974  0.8020
 5122TIP3   OH236856   1.581   4.638   1.885 -0.2095 -0.2741 -0.1357
 5122TIP3    H136857   1.639   4.602   1.817 -2.0707  0.4810 -2.2343
 5122TIP3    H236858   1.633   4.706   1.927  1.3651 -1.4791 -0.0188
 5123TIP3   OH236859   3.999   4.844  14.941  0.6090  0.0332 -0.6779
 5123TIP3    H136860   3.988   4.867  14.849 -0.0499 -0.0174 -0.6136
 5123TIP3    H236861   3.948   4.764  14.952 -0.9988  1.1280  0.1868
 5124TIP3   OH236862   1.118   3.145  13.906  0.0131 -0.3913  0.5962
 5124TIP3    H136863   1.083   3.212  13.849  1.8896  1.8700  1.9221
 5124TIP3    H236864   1.126   3.067  13.850 -0.1646  1.0908 -1.6001
 5125TIP3   OH236865   6.723   6.538  15.253  0.1874 -0.2086  0.0405
 5125TIP3    H136866   6.730   6.556  15.159  1.7391 -0.8815  0.0016
 5125TIP3    H236867   6.733   6.624  15.295  0.3272 -0.0214 -0.3769
 5126TIP3   OH236868   6.588   3.933   0.827 -0.4631 -0.0866 -0.2457
 5126TIP3    H136869   6.595   3.986   0.906 -0.1536 -0.3885 -0.0682
 5126TIP3    H236870   6.647   3.860   0.842  1.1727  0.8981 -1.5834
 5127TIP3   OH236871   1.768   5.153  10.914 -0.3862  0.2662  0.9218
 5127TIP3    H136872   1.710   5.151  10.990  0.6508  0.7351  1.7503
 5127TIP3    H236873   1.837   5.214  10.938  1.3089 -1.4173  0.6189
 5128TIP3   OH236874   0.594   6.094  16.054  0.5258 -0.2886 -0.2481
 5128TIP3    H136875   0.571   6.021  16.112  0.7306 -0.7337 -0.7088
 5128TIP3    H236876   0.516   6.107  15.999  1.2365 -1.6750 -1.6863
 5129TIP3   OH236877   4.381   0.220   5.018 -0.4968  0.4364 -0.0138
 5129TIP3    H136878   4.447   0.288   5.012  0.1950 -0.0203  1.8492
 5129TIP3    H236879   4.417   0.156   5.079 -2.6651  0.2055  1.1412
 5130TIP3   OH236880   3.983   2.041  16.068 -0.1597 -0.1035 -0.2483
 5130TIP3    H136881   4.047   2.025  16.138 -0.6727  0.5484  0.3882
 5130TIP3    H236882   3.898   2.035  16.112 -0.6762 -2.6172 -1.3848
 5131TIP3   OH236883   0.651   1.126  10.396  0.4175  0.1945  0.1093
 5131TIP3    H136884   0.600   1.116  10.476 -1.1380 -0.1796 -0.8815
 5131TIP3    H236885   0.654   1.038  10.358  1.3107  0.3260 -0.1563
 5132TIP3   OH236886   1.912   1.329   4.882  0.4497 -0.4727 -0.3243
 5132TIP3    H136887   1.932   1.309   4.974  1.7007  2.4844  0.1560
 5132TIP3    H236888   1.989   1.300   4.834  2.2631  2.6249  0.3710
 5133TIP3   OH236889   2.616   2.987  16.266  0.0288 -0.7636  0.1882
 5133TIP3    H136890   2.561   2.913  16.241 -0.7318 -0.3569  0.6024
 5133TIP3    H236891   2.558   3.063  16.259  1.2937  0.1069 -2.1434
 5134TIP3   OH236892   2.141   6.337  15.898 -0.3218 -0.2759 -0.0086
 5134TIP3    H136893   2.046   6.332  15.909 -0.1626  0.6435  2.4107
 5134TIP3    H236894   2.159   6.431  15.886  0.1536 -0.6353 -2.8369
 5135TIP3   OH236895   4.819   2.422  13.993  0.2878 -0.1582 -0.2014
 5135TIP3    H136896   4.790   2.344  14.041 -0.0409  1.3149  2.1236
 5135TIP3    H236897   4.908   2.438  14.023 -0.0109  0.9417  0.1325
 5136TIP3   OH236898   4.397   0.018   2.174  0.3178  0.4031 -0.3796
 5136TIP3    H136899   4.363  -0.033   2.101 -2.3482  1.7575 -0.2139
 5136TIP3    H236900   4.395  -0.043   2.248 -2.8740  0.5881 -0.1696
 5137TIP3   OH236901   4.876   6.598   1.399 -0.1438  0.7991 -0.1733
 5137TIP3    H136902   4.871   6.692   1.415 -0.0933  0.6345  0.8268
 5137TIP3    H236903   4.808   6.581   1.334  0.0953  1.5784 -0.6450
 5138TIP3   OH236904   4.393   1.310   0.221 -0.2564  0.7218 -0.2604
 5138TIP3    H136905   4.386   1.367   0.145  0.3496  0.9268 -0.1735
 5138TIP3    H236906   4.346   1.231   0.197 -0.4403  0.9574 -0.6798
 5139TIP3   OH236907   4.863   4.788  13.299 -0.0352  0.0804  0.1303
 5139TIP3    H136908   4.931   4.767  13.234 -0.8457  1.5950 -1.2737
 5139TIP3    H236909   4.904   4.853  13.356  0.2308 -0.2356  0.3032
 5140TIP3   OH236910   5.893   1.011   4.029  0.1803  0.4729 -0.6916
 5140TIP3    H136911   5.800   1.004   4.006  0.0242  2.1772 -0.7248
 5140TIP3    H236912   5.901   1.097   4.069  1.3946 -0.4538  1.1904
 5141TIP3   OH236913   3.974   3.481  12.989 -0.1473 -0.1438 -0.2351
 5141TIP3    H136914   3.971   3.483  13.085  0.1872  1.4064 -0.2357
 5141TIP3    H236915   3.917   3.552  12.961 -1.4783 -1.5506 -1.2552
 5142TIP3   OH236916   6.277   4.179   6.353 -0.2413 -0.9780 -0.0746
 5142TIP3    H136917   6.224   4.201   6.430 -0.4552 -0.3384 -0.3937
 5142TIP3    H236918   6.349   4.242   6.355 -0.5887 -0.5488 -0.7356
 5143TIP3   OH236919   3.862   0.370   0.239 -0.0303 -0.8270 -0.0362
 5143TIP3    H136920   3.821   0.454   0.262 -0.9530 -0.8925 -1.3110
 5143TIP3    H236921   3.888   0.381   0.147  0.3089 -1.7687 -0.0625
 5144TIP3   OH236922   2.725   1.586   4.752 -0.1078 -0.0856  0.2072
 5144TIP3    H136923   2.660   1.569   4.685 -0.0067 -0.9918  0.3198
 5144TIP3    H236924   2.734   1.681   4.754  1.5976 -0.0869 -2.6889
 5145TIP3   OH236925   0.089   1.533  13.269 -0.8791  0.1244  0.4288
 5145TIP3    H136926   0.026   1.605  13.278 -1.7387 -0.4340 -0.8138
 5145TIP3    H236927   0.100   1.522  13.175  1.2141  0.2744  0.6112
 5146TIP3   OH236928   3.562   3.537  16.715  0.3936  0.1872 -0.0433
 5146TIP3    H136929   3.469   3.548  16.697  0.5034  2.1808  0.3165
 5146TIP3    H236930   3.569   3.449  16.753 -1.2147 -0.2795 -0.7460
 5147TIP3   OH236931   3.088   6.151   2.232  0.2022 -0.2993  0.0484
 5147TIP3    H136932   3.069   6.202   2.153 -1.7962 -0.2002  0.5493
 5147TIP3    H236933   3.121   6.215   2.295 -3.2888  0.7549  1.0358
 5148TIP3   OH236934   3.967   0.893  14.472  0.1942  0.3364  0.2312
 5148TIP3    H136935   4.018   0.822  14.432  1.6742  0.8386  1.1436
 5148TIP3    H236936   3.883   0.891  14.427  0.9409 -0.6827 -1.1808
 5149TIP3   OH236937   0.456   2.994  16.572 -1.1790  0.5532  0.1807
 5149TIP3    H136938   0.450   2.901  16.596 -0.6776  0.7391  1.0371
 5149TIP3    H236939   0.438   3.042  16.653  0.0036  1.1887  0.0900
 5150TIP3   OH236940   2.919   4.619  13.465 -0.0217  0.6679 -1.1419
 5150TIP3    H136941   2.863   4.684  13.507 -1.3091  0.0595 -1.8499
 5150TIP3    H236942   2.960   4.665  13.392 -2.2346  0.3691 -2.7063
 5151TIP3   OH236943   4.008   4.745  13.017 -0.0401 -0.1133  0.0224
 5151TIP3    H136944   4.063   4.683  12.968 -0.9316 -1.2977  0.4618
 5151TIP3    H236945   3.919   4.718  12.996 -0.5589  2.6257 -1.7716
 5152TIP3   OH236946   3.207   1.963  11.871  0.2181 -0.1834 -0.2043
 5152TIP3    H136947   3.123   1.932  11.839  1.0310 -1.8330 -0.8718
 5152TIP3    H236948   3.215   1.924  11.958 -0.8336  2.1638  1.0336
 5153TIP3   OH236949   4.805   1.224  15.743  0.0031 -0.3448 -0.1228
 5153TIP3    H136950   4.775   1.133  15.750 -0.8563 -0.1382 -0.9170
 5153TIP3    H236951   4.899   1.217  15.727  0.4393 -1.0173  2.2079
 5154TIP3   OH236952   1.482   2.436   4.208  0.6949 -0.0303 -0.3112
 5154TIP3    H136953   1.443   2.459   4.123  0.9934 -1.0384 -0.7323
 5154TIP3    H236954   1.417   2.381   4.250  1.5882 -1.6700 -0.9900
 5155TIP3   OH236955   1.719   0.200  15.139  0.4714  0.2743 -0.1792
 5155TIP3    H136956   1.695   0.274  15.085 -0.2051 -0.7485 -1.3320
 5155TIP3    H236957   1.661   0.129  15.111 -0.0436 -0.2677  2.0229
 5156TIP3   OH236958   6.722   6.353   1.892  0.7104  0.5141 -0.4360
 5156TIP3    H136959   6.669   6.316   1.962  0.0981 -0.8867 -1.5723
 5156TIP3    H236960   6.665   6.419   1.851 -0.1085 -0.7499 -1.4409
 5157TIP3   OH236961   3.552   6.480  10.579  0.5497 -0.2175 -0.8956
 5157TIP3    H136962   3.620   6.469  10.512  2.4437 -0.9846  1.0499
 5157TIP3    H236963   3.484   6.531  10.535  2.6201  1.1292 -2.7851
 5158TIP3   OH236964   1.560   4.091   5.376 -0.0015 -0.7505 -0.3158
 5158TIP3    H136965   1.585   4.112   5.466 -1.4306 -0.0022 -0.0620
 5158TIP3    H236966   1.465   4.079   5.379 -0.3506  1.0381 -2.0295
 5159TIP3   OH236967   3.209   5.703  12.665 -0.1827 -0.3239  0.0255
 5159TIP3    H136968   3.126   5.706  12.619  1.0029  0.6654 -2.1668
 5159TIP3    H236969   3.190   5.742  12.751 -2.1475 -1.0318 -0.0297
 5160TIP3   OH236970   1.677   6.592  12.335  0.7473  0.2827  0.0972
 5160TIP3    H136971   1.586   6.580  12.363  1.2786 -0.7563  1.4275
 5160TIP3    H236972   1.701   6.678  12.367  0.3212  0.4589 -0.0461
 5161TIP3   OH236973   2.445   5.384   3.461 -0.3025  0.0395  0.1675
 5161TIP3    H136974   2.411   5.394   3.371 -0.2001 -1.2545 -0.0331
 5161TIP3    H236975   2.539   5.395   3.452 -0.3492  0.4636  0.2037
 5162TIP3   OH236976   4.290   1.141  14.392 -0.0761 -0.4777 -0.3252
 5162TIP3    H136977   4.253   1.125  14.479 -0.0154  0.6033 -0.0861
 5162TIP3    H236978   4.325   1.057  14.365 -2.4955 -1.5200 -0.4589
 5163TIP3   OH236979   4.103   3.337  12.171  0.2909 -0.3612 -0.3723
 5163TIP3    H136980   4.072   3.360  12.083  0.5465 -0.7337 -0.5678
 5163TIP3    H236981   4.133   3.246  12.162  1.4648 -0.0126 -0.2170
 5164TIP3   OH236982   5.822   4.150  16.811  0.5175 -0.6281 -1.1523
 5164TIP3    H136983   5.792   4.201  16.736  1.5038  0.9455 -0.5235
 5164TIP3    H236984   5.917   4.158  16.810  0.5200  0.3363  0.8165
 5165TIP3   OH236985   2.642   5.152  16.994 -0.0623 -0.0395 -0.0472
 5165TIP3    H136986   2.675   5.242  16.996 -0.1858  0.0176  1.8351
 5165TIP3    H236987   2.712   5.100  17.033 -0.7695 -0.4425  0.7174
 5166TIP3   OH236988   5.431   0.030  16.396 -0.6425  0.4220 -0.2374
 5166TIP3    H136989   5.525   0.021  16.381 -0.7561  0.8076 -1.2963
 5166TIP3    H236990   5.405  -0.052  16.436  0.2589  0.5670  0.6814
 5167TIP3   OH236991   3.943   4.616  16.327 -0.1308 -0.2679 -0.0271
 5167TIP3    H136992   3.998   4.674  16.275  0.7935  0.0065  1.2200
 5167TIP3    H236993   3.889   4.674  16.380 -0.2630 -0.5535  0.1589
 5168TIP3   OH236994   1.634   2.282   2.633  0.3494  0.5746  0.2530
 5168TIP3    H136995   1.589   2.200   2.653  0.3505  0.3818 -0.5257
 5168TIP3    H236996   1.724   2.269   2.663  1.1561 -0.8086 -2.4761
 5169TIP3   OH236997   2.312   2.447  14.097 -0.1763 -0.1477 -0.1613
 5169TIP3    H136998   2.224   2.411  14.084 -0.1355  0.4485 -2.6672
 5169TIP3    H236999   2.314   2.526  14.043  1.7594  0.1205  0.2171
 5170TIP3   OH237000   5.102   1.930   2.442 -0.5961 -0.1016  0.4065
 5170TIP3    H137001   5.141   1.910   2.527  1.9241  0.5440 -0.4772
 5170TIP3    H237002   5.112   1.850   2.392 -0.1153  0.1493  0.0904
 5171TIP3   OH237003   1.425   0.654  14.547 -0.1629  0.0595 -0.4247
 5171TIP3    H137004   1.515   0.685  14.556  0.0031 -0.3267 -0.7198
 5171TIP3    H237005   1.373   0.733  14.534  0.2009  0.2404 -0.7691
 5172TIP3   OH237006   3.516   2.846  11.836  0.0436 -0.3456  0.1582
 5172TIP3    H137007   3.591   2.900  11.811  0.7541 -0.9818  0.8382
 5172TIP3    H237008   3.544   2.756  11.816 -0.8530 -0.5319 -0.3232
 5173TIP3   OH237009   3.635   5.603  16.717  0.2861 -0.2577  0.2284
 5173TIP3    H137010   3.597   5.691  16.718  0.5498 -0.1407  1.5893
 5173TIP3    H237011   3.559   5.545  16.724  0.1575 -0.1161  0.0298
 5174TIP3   OH237012   1.776   5.105   3.655 -0.1667 -0.2825  0.1647
 5174TIP3    H137013   1.826   5.185   3.671 -0.4552 -0.1063  0.1885
 5174TIP3    H237014   1.822   5.037   3.705  0.7649 -0.3768 -0.7957
 5175TIP3   OH237015   2.064   0.374  11.325 -0.1530  0.0110 -0.7449
 5175TIP3    H137016   2.067   0.404  11.416 -0.3077  0.5986 -0.9315
 5175TIP3    H237017   1.992   0.311  11.323  0.8601 -1.2168 -0.1061
 5176TIP3   OH237018   4.149   1.707   4.909  0.4858  0.5794 -0.4506
 5176TIP3    H137019   4.100   1.763   4.849  0.2601  0.2437 -0.5817
 5176TIP3    H237020   4.156   1.758   4.989 -0.0257  0.6529 -0.4510
 5177TIP3   OH237021   5.550   5.977   1.657 -0.4320 -0.0745 -0.9915
 5177TIP3    H137022   5.500   6.021   1.589  0.5231  0.4873 -1.3430
 5177TIP3    H237023   5.526   5.885   1.649 -0.7242  0.0650 -1.7380
 5178TIP3   OH237024   6.493   5.862   3.364  0.2630  0.5570 -0.0507
 5178TIP3    H137025   6.468   5.772   3.344 -1.8333  0.7246  1.4581
 5178TIP3    H237026   6.589   5.862   3.360  0.3197 -1.7554  0.0328
 5179TIP3   OH237027   0.202   1.697   0.272  0.1390 -0.5130  0.4001
 5179TIP3    H137028   0.280   1.697   0.217  0.3207 -0.1941  0.6539
 5179TIP3    H237029   0.131   1.670   0.213 -0.0620  1.8188 -0.5789
 5180TIP3   OH237030   5.085   0.261   1.173  0.3196 -0.7096  0.1322
 5180TIP3    H137031   4.996   0.232   1.194 -0.0308 -0.0065 -0.3570
 5180TIP3    H237032   5.076   0.310   1.091  0.8930  0.8228  0.9463
 5181TIP3   OH237033   0.024   4.739  13.518 -0.0873 -0.1311  0.2525
 5181TIP3    H137034  -0.047   4.720  13.456 -1.4231  1.0525  1.3372
 5181TIP3    H237035   0.051   4.829  13.496  0.9906 -0.5122 -0.0436
 5182TIP3   OH237036   1.783   4.440   1.429 -0.8147 -0.0041 -0.5146
 5182TIP3    H137037   1.808   4.349   1.416  0.5814  0.1388  0.9151
 5182TIP3    H237038   1.839   4.490   1.370  1.0277  0.1612  1.2779
 5183TIP3   OH237039   4.790   1.743  14.821 -0.0671 -0.0686  0.0433
 5183TIP3    H137040   4.861   1.764  14.882  1.4382 -1.4341 -1.1372
 5183TIP3    H237041   4.747   1.826  14.803 -1.1550  0.2902  3.5744
 5184TIP3   OH237042   3.298   5.930   0.121 -0.4266 -0.2470 -0.4280
 5184TIP3    H137043   3.227   5.927   0.057 -1.2251  0.4162  0.3967
 5184TIP3    H237044   3.282   5.857   0.180  0.1145 -0.6520 -0.7692
 5185TIP3   OH237045   0.316   4.779  14.199 -0.2004  0.0292 -0.5106
 5185TIP3    H137046   0.266   4.806  14.275 -0.4149 -0.7567 -0.3628
 5185TIP3    H237047   0.375   4.711  14.231  1.0831  1.0425 -0.6511
 5186TIP3   OH237048   1.123   1.440   2.814  0.5938 -0.5230 -0.2323
 5186TIP3    H137049   1.214   1.412   2.805  0.6462 -0.2394 -0.5985
 5186TIP3    H237050   1.071   1.361   2.796  0.7817 -0.9713  1.1101
 5187TIP3   OH237051   0.861   3.259   0.124  0.4511 -0.1152  0.0226
 5187TIP3    H137052   0.780   3.209   0.125  0.3471  0.0266  1.8338
 5187TIP3    H237053   0.929   3.194   0.108 -0.0170 -0.1735 -1.9367
 5188TIP3   OH237054   6.649   3.049  15.425  0.1460 -0.1951  0.3343
 5188TIP3    H137055   6.739   3.078  15.408 -0.6353  1.8624 -0.5538
 5188TIP3    H237056   6.628   3.085  15.511  0.1171 -0.5744  0.4896
 5189TIP3   OH237057   6.598   4.853  10.606  0.2286 -0.3417 -0.1221
 5189TIP3    H137058   6.672   4.806  10.645  1.4062  0.3365 -1.4607
 5189TIP3    H237059   6.539   4.869  10.680  3.0581  2.3237  1.8154
 5190TIP3   OH237060   0.440   1.802   3.135 -0.3605  0.3911 -0.8906
 5190TIP3    H137061   0.469   1.879   3.086  3.0909  0.3677  0.8144
 5190TIP3    H237062   0.483   1.728   3.092  0.6015  0.0898  0.4953
 5191TIP3   OH237063   6.691   3.920   0.129 -0.2071  0.2635 -0.0593
 5191TIP3    H137064   6.701   3.827   0.111 -0.3922  0.3062 -0.3986
 5191TIP3    H237065   6.604   3.942   0.096  0.3209  0.8232 -1.1213
 5192TIP3   OH237066   4.090   6.482   0.197 -0.5111 -0.5142 -0.8790
 5192TIP3    H137067   4.078   6.574   0.172  0.1700 -0.2174 -0.1499
 5192TIP3    H237068   4.183   6.474   0.215 -0.4331 -1.5427 -1.6343
 5193TIP3   OH237069   2.395   2.776   1.252 -0.0186  0.3565 -0.2147
 5193TIP3    H137070   2.437   2.836   1.190 -1.4931  0.7238 -0.9123
 5193TIP3    H237071   2.422   2.807   1.338  1.3353  0.4015 -0.6344
 5194TIP3   OH237072   5.274   0.280   2.942  0.1337  0.2159  0.5406
 5194TIP3    H137073   5.323   0.266   2.861  0.2100  0.3150  0.5701
 5194TIP3    H237074   5.340   0.281   3.011  0.3868  2.7675  0.3441
 5195TIP3   OH237075   1.096   5.576  11.755  0.0272  0.7022  0.1188
 5195TIP3    H137076   1.044   5.504  11.791  0.0405  0.4398 -0.3740
 5195TIP3    H237077   1.033   5.632  11.710  0.2616 -0.0773 -1.2279
 5196TIP3   OH237078   2.775   0.946   1.538  0.8404  0.1865 -0.3971
 5196TIP3    H137079   2.839   0.905   1.479  1.4802  0.9730 -0.2692
 5196TIP3    H237080   2.819   1.025   1.569  0.3649 -0.0044  0.8288
 5197TIP3   OH237081   1.891   0.308   3.585 -0.3196  0.4914 -0.3308
 5197TIP3    H137082   1.968   0.278   3.536 -0.4744  0.7690 -0.7520
 5197TIP3    H237083   1.865   0.233   3.638 -0.7761 -0.1600 -1.4493
 5198TIP3   OH237084   0.883   5.729  11.653 -0.0958 -0.0450 -0.7976
 5198TIP3    H137085   0.828   5.773  11.718 -0.4305 -1.7013  0.1107
 5198TIP3    H237086   0.826   5.718  11.577 -0.7808 -0.9387 -0.1847
 5199TIP3   OH237087   6.814   1.835  16.010 -0.2490 -0.2994  0.0050
 5199TIP3    H137088   6.745   1.832  16.077 -0.6075 -1.0602 -0.3807
 5199TIP3    H237089   6.781   1.779  15.939 -1.2553  2.7400 -2.1650
 5200TIP3   OH237090   5.976   5.934  11.205  0.0258 -0.3027 -0.2115
 5200TIP3    H137091   6.060   5.930  11.158 -0.1382 -0.5936 -0.4814
 5200TIP3    H237092   5.968   5.849  11.247  0.9031  0.4676  1.6332
 5201TIP3   OH237093   5.362   0.568   5.477  0.3272  0.5015 -0.0126
 5201TIP3    H137094   5.351   0.628   5.550  1.2907  0.7654 -0.0760
 5201TIP3    H237095   5.350   0.622   5.399  1.1461  0.6135 -0.0687
 5202TIP3   OH237096   0.820   4.057   5.455  0.3737  0.6934  0.3285
 5202TIP3    H137097   0.814   4.114   5.532  1.6424  1.3257 -0.0109
 5202TIP3    H237098   0.871   3.982   5.485  0.3336  0.6438  0.2712
 5203TIP3   OH237099   0.691   5.985  11.428  0.1122 -0.5842  0.0338
 5203TIP3    H137100   0.696   6.007  11.335 -1.6512  0.5032  0.1468
 5203TIP3    H237101   0.695   6.069  11.473 -1.7810 -0.8221  0.7613
 5204TIP3   OH237102   0.850   3.399   5.932 -0.1055  0.0654 -0.2722
 5204TIP3    H137103   0.854   3.495   5.932 -0.0452  0.0632 -0.7802
 5204TIP3    H237104   0.858   3.376   6.025 -3.9376  0.6825  0.3635
 5205TIP3   OH237105   6.801   0.442   5.650  0.3391  0.3552 -0.6903
 5205TIP3    H137106   6.791   0.527   5.692  1.1227 -0.3508  1.0483
 5205TIP3    H237107   6.783   0.379   5.720 -1.2869 -0.9517 -2.1858
 5206TIP3   OH237108   6.397   2.621   4.012  0.0787 -0.0776  0.1226
 5206TIP3    H137109   6.345   2.560   4.063 -0.0406 -0.5163 -0.5113
 5206TIP3    H237110   6.469   2.646   4.070  0.7284 -1.6304  0.0241
 5207TIP3   OH237111   0.759   0.674  15.480 -0.2141  0.0490  0.2261
 5207TIP3    H137112   0.854   0.680  15.494 -0.2123 -0.1600  0.3088
 5207TIP3    H237113   0.750   0.641  15.391 -0.2214  0.9803 -0.1266
 5208TIP3   OH237114   2.540   6.781   1.296  0.4014 -0.2730 -0.8002
 5208TIP3    H137115   2.602   6.741   1.356 -1.6248 -2.9535 -0.2700
 5208TIP3    H237116   2.532   6.717   1.224 -0.7119  0.6349 -1.5195
 5209TIP3   OH237117   6.363   4.172  14.268 -0.1330 -0.0356 -0.3947
 5209TIP3    H137118   6.364   4.140  14.178 -1.2099 -0.6050 -0.2268
 5209TIP3    H237119   6.364   4.267  14.260  0.3384 -0.0889 -0.9937
 5210TIP3   OH237120   0.620   6.317  13.067 -0.5201 -0.5133  0.2556
 5210TIP3    H137121   0.609   6.281  12.979 -0.0843 -1.0228  0.4019
 5210TIP3    H237122   0.595   6.409  13.059 -0.2626 -0.4971 -0.4558
 5211TIP3   OH237123   4.809   5.185  16.827 -0.1244  0.3321 -0.1991
 5211TIP3    H137124   4.818   5.092  16.849 -4.2342 -0.1317  0.3571
 5211TIP3    H237125   4.802   5.186  16.732  1.7413  0.3829 -0.3765
 5212TIP3   OH237126   1.246   4.913   2.691  0.1627  0.2616 -0.0574
 5212TIP3    H137127   1.281   5.002   2.691  2.7065 -0.5916  2.0226
 5212TIP3    H237128   1.260   4.881   2.602 -0.7425  1.8566 -0.8253
 5213TIP3   OH237129   3.517   1.654  14.304 -0.9525  0.8348 -0.9781
 5213TIP3    H137130   3.505   1.749  14.298  0.2202  0.9830 -1.3161
 5213TIP3    H237131   3.606   1.643  14.336 -1.5264 -0.1634  0.3693
 5214TIP3   OH237132   3.835   0.994   6.016  0.6993 -0.1377 -0.2598
 5214TIP3    H137133   3.840   1.070   6.074  0.8012 -0.4769  0.1736
 5214TIP3    H237134   3.808   0.922   6.072 -0.1187 -0.2705 -0.8169
 5215TIP3   OH237135   5.008   0.996  13.657  0.5982  0.5201 -0.1788
 5215TIP3    H137136   4.976   0.923  13.605 -0.0177  0.9001 -0.3473
 5215TIP3    H237137   5.095   0.969  13.686  1.1441  0.4518 -1.7451
 5216TIP3   OH237138   1.064   0.447   4.500 -0.0145 -0.1741  0.4695
 5216TIP3    H137139   1.008   0.394   4.444 -1.4876  0.1992  1.5480
 5216TIP3    H237140   1.070   0.531   4.454 -1.4382  0.2233  0.9620
 5217TIP3   OH237141   5.805   4.928  14.336  0.1725  0.5461 -0.2583
 5217TIP3    H137142   5.867   4.950  14.406  2.1720  0.0343 -1.7742
 5217TIP3    H237143   5.850   4.954  14.255 -0.9634 -1.2249 -1.5345
 5218TIP3   OH237144   4.116   0.661  14.388 -0.4963  0.1617 -0.3779
 5218TIP3    H137145   4.211   0.658  14.381 -0.1410 -0.2299  3.0373
 5218TIP3    H237146   4.090   0.573  14.415 -1.6520  0.6540  0.2245
 5219TIP3   OH237147   4.706   4.424   4.801  0.0846 -0.2843 -0.3709
 5219TIP3    H137148   4.708   4.350   4.740  1.1123  0.7856 -1.6926
 5219TIP3    H237149   4.635   4.480   4.769 -1.0217 -0.8791  0.9168
 5220TIP3   OH237150   4.371   4.125   2.653  0.0034 -0.1224  0.6266
 5220TIP3    H137151   4.327   4.040   2.654 -0.7209  0.2098 -0.5982
 5220TIP3    H237152   4.463   4.105   2.671 -0.4857 -0.9191  2.4278
 5221TIP3   OH237153   4.751   3.927  12.745  0.2630 -0.3215 -0.2257
 5221TIP3    H137154   4.834   3.887  12.719  0.3186 -0.0785 -0.4283
 5221TIP3    H237155   4.755   4.016  12.709  0.7522  0.3596  1.4041
 5222TIP3   OH237156   2.732   2.796   6.228 -0.3293 -0.5043 -0.1356
 5222TIP3    H137157   2.692   2.875   6.266 -1.1534  0.4824 -2.7657
 5222TIP3    H237158   2.679   2.724   6.262  0.0011  0.1046  1.7944
 5223TIP3   OH237159   5.542   3.383   2.707  0.2050 -0.2372  0.5277
 5223TIP3    H137160   5.607   3.363   2.774 -0.7036 -1.0746  1.1966
 5223TIP3    H237161   5.472   3.319   2.722  1.0047 -2.1225 -2.7752
 5224TIP3   OH237162   5.765   4.869  11.462  0.2607 -0.0688  0.4468
 5224TIP3    H137163   5.845   4.865  11.515  1.1997  3.2490 -0.4783
 5224TIP3    H237164   5.781   4.807  11.391  1.6724 -0.0651  0.7242
 5225TIP3   OH237165   2.874   1.242   3.887 -0.5839  0.1845  0.6504
 5225TIP3    H137166   2.923   1.324   3.893 -1.0182  0.6448 -1.5441
 5225TIP3    H237167   2.937   1.179   3.851 -1.4634  0.7297 -1.9981
 5226TIP3   OH237168   2.877   6.207   3.703  0.1589  0.9838  0.1018
 5226TIP3    H137169   2.856   6.294   3.736 -1.5330  1.0145 -0.9237
 5226TIP3    H237170   2.792   6.164   3.695  0.8431 -0.2398 -0.8207
 5227TIP3   OH237171   0.352   6.740   5.877  0.2589 -0.5987  0.2249
 5227TIP3    H137172   0.340   6.769   5.968 -0.8622 -1.7614  0.4776
 5227TIP3    H237173   0.329   6.816   5.824 -0.0266 -0.2074  0.9007
 5228TIP3   OH237174   3.710   5.524  14.258 -0.0101 -0.2185 -0.5171
 5228TIP3    H137175   3.717   5.432  14.283  1.4699 -0.0977 -0.3749
 5228TIP3    H237176   3.616   5.541  14.254 -0.3037 -1.5677  0.0617
 5229TIP3   OH237177   5.497   3.406   3.874 -0.2634  0.1476 -0.3572
 5229TIP3    H137178   5.582   3.380   3.911 -0.1476 -0.5675 -1.1019
 5229TIP3    H237179   5.461   3.467   3.939  1.1485  1.0758 -0.3995
 5230TIP3   OH237180   1.455   2.987  12.973 -0.1026  0.1766  0.2783
 5230TIP3    H137181   1.499   3.012  13.055  0.5013 -2.0411  0.7034
 5230TIP3    H237182   1.368   3.026  12.980  0.9956  2.8309  0.4165
 5231TIP3   OH237183   5.726   1.063  13.578 -0.0532 -0.3558 -0.0131
 5231TIP3    H137184   5.764   1.147  13.550 -0.4818 -0.3693 -0.6518
 5231TIP3    H237185   5.644   1.057  13.530  0.7920 -1.9486 -1.3493
 5232TIP3   OH237186   6.559   2.638   3.228  0.3570  0.1026  0.7100
 5232TIP3    H137187   6.465   2.627   3.237 -0.1303  3.4152  0.9829
 5232TIP3    H237188   6.575   2.638   3.134 -0.0923  0.6421  0.6325
 5233TIP3   OH237189   6.173   5.447   3.705 -0.0008 -0.0101 -0.0608
 5233TIP3    H137190   6.230   5.516   3.668  0.0630  0.0547  0.1606
 5233TIP3    H237191   6.190   5.371   3.649 -1.1237  0.5364 -1.2118
 5234TIP3   OH237192   5.611   1.293  12.709  0.5563 -0.2931 -0.5512
 5234TIP3    H137193   5.696   1.335  12.722  0.3046 -0.2396  1.0615
 5234TIP3    H237194   5.596   1.243  12.789 -1.4402  0.5893 -0.3113
 5235TIP3   OH237195   3.753   6.337  15.830  0.1782 -0.6767 -0.3106
 5235TIP3    H137196   3.820   6.348  15.898  0.7677  0.0191 -0.9726
 5235TIP3    H237197   3.798   6.361  15.749 -0.6974 -0.8431 -0.8565
 5236TIP3   OH237198   3.840   3.607  10.712  0.0699  0.1769  0.7675
 5236TIP3    H137199   3.793   3.569  10.786  2.3246  0.0050  2.2304
 5236TIP3    H237200   3.780   3.671  10.675 -2.7945 -2.7058 -0.0281
 5237TIP3   OH237201   4.008   0.235  15.948 -0.0683 -0.2594  0.1016
 5237TIP3    H137202   4.051   0.182  16.016  0.2692 -0.1992 -0.0610
 5237TIP3    H237203   3.916   0.237  15.974  0.4636  2.3589  2.3289
 5238TIP3   OH237204   5.351   1.198  12.362  0.1432  0.3023 -0.7735
 5238TIP3    H137205   5.267   1.197  12.317 -0.9377  0.9099  1.1385
 5238TIP3    H237206   5.387   1.284  12.342  0.1541  0.1912 -1.2670
 5239TIP3   OH237207   1.482   4.672  15.195  0.2319 -0.2577 -0.6479
 5239TIP3    H137208   1.576   4.684  15.202  0.3095 -0.1725 -1.7246
 5239TIP3    H237209   1.453   4.659  15.286  1.5244 -2.2664 -0.4455
 5240TIP3   OH237210   0.311   5.427  14.379  0.6474 -0.2252 -0.1188
 5240TIP3    H137211   0.406   5.415  14.379  0.7433  0.1525  2.0025
 5240TIP3    H237212   0.298   5.521  14.382  0.1481 -0.2149 -1.6333
 5241TIP3   OH237213   6.141   0.557   2.749 -0.0878 -0.4686  0.0774
 5241TIP3    H137214   6.067   0.587   2.696 -1.3307 -1.1443  1.3536
 5241TIP3    H237215   6.215   0.555   2.689 -0.9990  0.6851 -1.1281
 5242TIP3   OH237216   1.618   0.067   4.516  0.3212  0.1085 -0.3263
 5242TIP3    H137217   1.570   0.112   4.585  1.3022  0.3453  0.2210
 5242TIP3    H237218   1.580  -0.020   4.512  0.3179  0.0672  0.5687
 5243TIP3   OH237219   0.919   2.848  16.529 -0.5074  0.1488  0.1644
 5243TIP3    H137220   0.873   2.896  16.598  0.5936  0.7965  0.4787
 5243TIP3    H237221   1.001   2.896  16.518 -0.2126 -0.5644 -0.8687
 5244TIP3   OH237222   4.112   6.018  16.491  0.1774 -0.0693 -0.0093
 5244TIP3    H137223   4.122   6.082  16.561  0.9594  1.4865 -1.4800
 5244TIP3    H237224   4.183   6.037  16.430 -2.1878  0.6464 -2.7660
 5245TIP3   OH237225   1.355   3.099   4.690 -0.4757 -0.2671  0.2858
 5245TIP3    H137226   1.313   3.150   4.759  0.5411  1.3658 -0.2628
 5245TIP3    H237227   1.449   3.104   4.709 -0.2706 -0.8345 -0.5170
 5246TIP3   OH237228   4.279   6.266  16.474 -0.0308 -0.6161 -0.1313
 5246TIP3    H137229   4.223   6.258  16.398  1.6977 -0.0083 -1.5368
 5246TIP3    H237230   4.220   6.257  16.549 -1.9085 -0.3259 -1.5172
 5247TIP3   OH237231   5.412   5.719  12.922 -0.3854  0.0119  0.1678
 5247TIP3    H137232   5.413   5.671  12.839 -1.3835  0.6695 -0.2538
 5247TIP3    H237233   5.340   5.782  12.911 -0.6394 -0.0103  1.6043
 5248TIP3   OH237234   0.420   0.332  13.840  0.2470 -0.9137  0.0929
 5248TIP3    H137235   0.328   0.348  13.816  0.4010  1.1054  0.7138
 5248TIP3    H237236   0.424   0.237  13.853 -1.9163 -0.9848  0.7017
 5249TIP3   OH237237   6.791   4.796  13.104 -0.1646  0.2131 -0.1215
 5249TIP3    H137238   6.751   4.765  13.023 -0.3814  1.7166 -0.6233
 5249TIP3    H237239   6.881   4.818  13.080  0.0856 -0.3298  0.3027
 5250TIP3   OH237240   5.530   6.794  12.236  0.4940  0.5486 -0.6382
 5250TIP3    H137241   5.535   6.756  12.148  1.7931 -1.5985  0.2856
 5250TIP3    H237242   5.454   6.852  12.233 -0.3284 -0.5429 -2.7724
 5251TIP3   OH237243   0.016   0.383   0.028  0.0387 -0.2359  0.0423
 5251TIP3    H137244   0.020   0.336   0.111 -0.8586 -0.2070  0.1086
 5251TIP3    H237245   0.087   0.447   0.033  0.4423 -0.7169  0.4868
 5252TIP3   OH237246   6.272   6.693  16.546 -0.4956 -0.7736  0.1639
 5252TIP3    H137247   6.217   6.732  16.615  0.9750 -0.5444  1.2506
 5252TIP3    H237248   6.309   6.769  16.500  0.2858 -0.8939  0.5792
 5253TIP3   OH237249   1.710   5.012  12.324  0.3898  0.3508  0.1066
 5253TIP3    H137250   1.687   5.084  12.265 -0.7991 -1.4124 -1.6892
 5253TIP3    H237251   1.641   5.012  12.391  1.1310  1.6543  0.9206
 5254TIP3   OH237252   1.474   2.208  13.588 -0.3967  0.2446  0.5814
 5254TIP3    H137253   1.427   2.169  13.515 -2.7873  1.2910  1.4396
 5254TIP3    H237254   1.560   2.167  13.586 -1.3466 -1.8842 -1.0490
 5255TIP3   OH237255   5.521   4.785  16.646 -0.5249 -0.3957  0.4161
 5255TIP3    H137256   5.492   4.713  16.701  0.1137 -0.4287  0.7151
 5255TIP3    H237257   5.515   4.863  16.702 -2.8994  0.1060 -0.4213
 5256TIP3   OH237258   1.904   0.312  14.500  0.2699  0.3210 -0.1024
 5256TIP3    H137259   1.967   0.248  14.534  0.0982  0.1848 -0.0339
 5256TIP3    H237260   1.874   0.274  14.417  2.0280  1.5093 -1.3375
 5257TIP3   OH237261   1.115   0.199  10.342 -0.0630 -0.0990 -0.4491
 5257TIP3    H137262   1.042   0.169  10.288 -0.8940 -0.3724  0.7971
 5257TIP3    H237263   1.158   0.119  10.371  1.5383  0.0632 -2.1781
 5258TIP3   OH237264   5.581   2.016  16.725  0.4231 -0.8464  0.4189
 5258TIP3    H137265   5.603   1.973  16.807 -1.9723 -0.2870  1.4436
 5258TIP3    H237266   5.513   2.079  16.749 -0.4533 -0.7773 -2.0306
 5259TIP3   OH237267   2.936   0.314   6.014 -0.3193 -0.1151 -0.5359
 5259TIP3    H137268   2.921   0.232   6.061  0.7436 -0.8903 -1.4698
 5259TIP3    H237269   2.917   0.382   6.078  2.6938 -1.0930  1.6650
 5260TIP3   OH237270   4.177   3.477  13.823  0.0665  0.3306 -0.7735
 5260TIP3    H137271   4.235   3.402  13.807  0.3195  0.5829 -1.0498
 5260TIP3    H237272   4.180   3.490  13.917 -2.1230 -1.7252 -0.3314
 5261TIP3   OH237273   0.850   3.817   0.868 -0.0279  0.0808 -0.2347
 5261TIP3    H137274   0.855   3.735   0.819 -0.4493 -0.9767  1.3954
 5261TIP3    H237275   0.782   3.801   0.934  0.7654  1.2918  0.9200
 5262TIP3   OH237276   0.220   4.059   0.952 -0.9931 -0.3436 -0.2565
 5262TIP3    H137277   0.263   3.988   1.000 -0.0157  1.2936  1.4170
 5262TIP3    H237278   0.130   4.058   0.985 -0.8005 -0.3916  0.2916
 5263TIP3   OH237279   1.277   2.594  15.909 -0.2220 -0.0428  0.2231
 5263TIP3    H137280   1.353   2.586  15.967 -0.0028 -0.7710 -0.1463
 5263TIP3    H237281   1.281   2.684  15.876 -0.1105  0.2449  1.0041
 5264TIP3   OH237282   1.070   6.404  15.466 -0.5258 -0.0607 -0.2735
 5264TIP3    H137283   1.122   6.325  15.453 -2.0237 -1.2655  0.6688
 5264TIP3    H237284   1.052   6.435  15.377 -0.4655 -1.1660 -0.6876
 5265TIP3   OH237285   0.467   1.332   2.233 -0.6006 -0.0612  0.0480
 5265TIP3    H137286   0.495   1.354   2.144 -2.1915 -0.2649 -0.5288
 5265TIP3    H237287   0.523   1.258   2.258  0.7181  0.7941 -0.2750
 5266TIP3   OH237288   1.197   2.409  10.575 -0.0993 -0.7092  0.5627
 5266TIP3    H137289   1.190   2.342  10.644  1.6677  0.1135  1.6187
 5266TIP3    H237290   1.128   2.472  10.596 -0.6342 -1.3045  0.6029
 5267TIP3   OH237291   3.415   3.939   6.724  0.6318 -0.4567  0.8474
 5267TIP3    H137292   3.439   3.994   6.650  1.3804 -0.4020  1.1290
 5267TIP3    H237293   3.426   3.994   6.801  3.2154 -1.4743  1.3246
 5268TIP3   OH237294   5.120   0.119   1.438 -0.0225 -0.0316  0.2442
 5268TIP3    H137295   5.115   0.160   1.351  0.7062 -0.7865 -0.1754
 5268TIP3    H237296   5.208   0.140   1.469 -0.2590  0.1817  0.7826
 5269TIP3   OH237297   6.317   6.150   4.282  0.2577 -0.6195  0.8251
 5269TIP3    H137298   6.227   6.184   4.285 -0.5941 -2.6778  1.0179
 5269TIP3    H237299   6.365   6.211   4.227 -1.3588  0.3463  0.4278
 5270TIP3   OH237300   2.296   0.040   4.863  0.5829  0.8105 -0.1789
 5270TIP3    H137301   2.385   0.012   4.887  0.1057  0.9656  2.0385
 5270TIP3    H237302   2.279  -0.003   4.779  1.3414 -2.4679  1.1518
 5271TIP3   OH237303   3.155   6.741  16.439 -0.0085 -0.1058  0.2866
 5271TIP3    H137304   3.172   6.783  16.354 -0.4482 -1.5911 -0.5716
 5271TIP3    H237305   3.087   6.676  16.421 -1.1245  0.4813  2.0879
 5272TIP3   OH237306   0.078   0.032  15.517  0.2466 -0.7877  0.5229
 5272TIP3    H137307  -0.010   0.035  15.480  0.3724  1.6148  0.2459
 5272TIP3    H237308   0.070   0.077  15.601  1.6729  2.1619 -0.7846
 5273TIP3   OH237309   1.038   5.987  11.280  0.2383  0.1989  0.2012
 5273TIP3    H137310   0.962   6.008  11.226 -0.1903 -0.9987  0.3060
 5273TIP3    H237311   1.031   6.048  11.355  1.2867  2.4288 -1.3999
 5274TIP3   OH237312   3.680   5.999  10.983  0.2195 -0.0019  0.0080
 5274TIP3    H137313   3.693   5.917  11.029 -1.3343 -1.4289 -1.9372
 5274TIP3    H237314   3.613   6.045  11.033 -1.1737 -1.3557 -0.5528
 5275TIP3   OH237315   0.061   0.798   2.335 -0.0545 -0.3240 -0.1592
 5275TIP3    H137316   0.096   0.738   2.402 -0.0226 -0.2811 -0.1366
 5275TIP3    H237317   0.006   0.858   2.384 -1.4834 -1.3807 -0.4175
 5276TIP3   OH237318   1.460   3.020  11.628  0.4430 -0.4282 -0.0946
 5276TIP3    H137319   1.375   3.062  11.640  0.3350 -0.7797  0.3835
 5276TIP3    H237320   1.452   2.974  11.544  0.5810  0.5381 -0.6480
 5277TIP3   OH237321   6.481   3.394  15.537 -0.5178  0.5236  0.8665
 5277TIP3    H137322   6.556   3.347  15.572 -0.4528  0.3967  0.5595
 5277TIP3    H237323   6.407   3.335  15.549 -0.4701  0.4209  0.6597
 5278TIP3   OH237324   2.650   0.769  13.661 -0.0895  0.1569  0.3084
 5278TIP3    H137325   2.733   0.723  13.642 -0.3099 -0.6591  1.2486
 5278TIP3    H237326   2.590   0.739  13.593  0.5797  1.3747 -0.8733
 5279TIP3   OH237327   0.223   5.298   2.261 -0.7957 -0.2925  0.5538
 5279TIP3    H137328   0.171   5.317   2.183 -0.0012 -0.5729 -0.0614
 5279TIP3    H237329   0.249   5.384   2.294 -1.6566 -0.1506  0.8800
 5280TIP3   OH237330   3.074   2.628  14.291 -0.4411  0.6642 -0.5800
 5280TIP3    H137331   2.988   2.651  14.325 -0.1107  1.2238 -0.1000
 5280TIP3    H237332   3.089   2.538  14.322  0.4856  1.6632  2.1241
 5281TIP3   OH237333   6.280   0.373  14.795  0.4154  0.2082  0.5493
 5281TIP3    H137334   6.254   0.331  14.877  0.6924  0.4708  0.7757
 5281TIP3    H237335   6.355   0.427  14.819  0.8734 -0.1731 -0.0007
 5282TIP3   OH237336   0.159   4.601  14.639  0.0469  0.4948  0.2759
 5282TIP3    H137337   0.080   4.558  14.670  0.8685  0.3268  2.3110
 5282TIP3    H237338   0.167   4.680  14.692  0.9444  0.8071 -0.2807
 5283TIP3   OH237339   0.821   2.651  15.213 -0.4093 -0.0846 -0.3853
 5283TIP3    H137340   0.776   2.627  15.132 -0.2679 -2.9058  0.2706
 5283TIP3    H237341   0.864   2.734  15.193 -2.4768  0.6125 -2.3398
 5284TIP3   OH237342   1.641   3.313  16.328  0.1741 -0.0521  0.0870
 5284TIP3    H137343   1.609   3.402  16.344  0.9678  0.5790 -1.6234
 5284TIP3    H237344   1.644   3.305  16.233 -0.1631 -2.0391  0.2012
 5285TIP3   OH237345   0.264   0.421   2.597  0.1146 -0.9650  0.1076
 5285TIP3    H137346   0.185   0.450   2.643 -0.9660 -1.3943 -1.4198
 5285TIP3    H237347   0.307   0.502   2.571 -0.5599 -0.7133 -0.2605
 5286TIP3   OH237348   2.707   6.826  13.338  0.0039  0.1206 -0.3974
 5286TIP3    H137349   2.635   6.817  13.400  0.0372  0.1772 -0.3500
 5286TIP3    H237350   2.715   6.739  13.298  0.5393 -0.1546  0.2938
 5287TIP3   OH237351   0.273   5.231  13.440 -0.3242 -0.3319  0.2369
 5287TIP3    H137352   0.234   5.213  13.526  2.2505 -2.6932  1.0776
 5287TIP3    H237353   0.280   5.326  13.437 -1.9488 -0.0856  1.9295
 5288TIP3   OH237354   6.204   3.786   1.847  0.0481 -0.5785  0.2779
 5288TIP3    H137355   6.210   3.787   1.752 -0.3145 -1.7317  0.2307
 5288TIP3    H237356   6.194   3.878   1.871 -1.1680 -0.3761 -0.8877
 5289TIP3   OH237357   2.660   6.054  15.234 -0.0823 -0.1192  0.0959
 5289TIP3    H137358   2.651   6.148  15.220 -1.0704 -0.1131  0.6350
 5289TIP3    H237359   2.738   6.045  15.289 -0.6950  0.5049  1.0994
 5290TIP3   OH237360   3.197   6.499   4.107 -0.0741 -0.0409 -0.0688
 5290TIP3    H137361   3.136   6.463   4.172 -0.7859  2.4234  0.7236
 5290TIP3    H237362   3.148   6.568   4.063  1.0952 -0.2376 -1.7799
 5291TIP3   OH237363   1.598   1.449   4.191  0.5416  0.1127  0.1104
 5291TIP3    H137364   1.616   1.369   4.240 -0.9420 -0.4523 -0.2214
 5291TIP3    H237365   1.588   1.420   4.100 -2.8490  0.1475  0.3443
 5292TIP3   OH237366   2.680   1.455  13.768 -0.2159 -0.0517 -0.0402
 5292TIP3    H137367   2.642   1.528  13.719  1.0239  1.9874  1.8378
 5292TIP3    H237368   2.668   1.479  13.860  2.7471 -0.7580  0.6529
 5293TIP3   OH237369   6.661   5.014  13.173 -0.3673  0.0804 -0.4617
 5293TIP3    H137370   6.566   5.013  13.155 -0.5758 -0.8557  0.5886
 5293TIP3    H237371   6.687   4.922  13.164  0.3737  0.2775 -0.3393
 5294TIP3   OH237372   4.123   6.282  16.263 -0.1379 -0.3406  0.9240
 5294TIP3    H137373   4.042   6.252  16.303 -2.1049 -1.7394 -3.5541
 5294TIP3    H237374   4.108   6.375  16.244 -2.0718 -1.1672 -2.3410
 5295TIP3   OH237375   5.271   2.023  16.608 -0.2784 -0.5617 -0.8680
 5295TIP3    H137376   5.248   2.029  16.701  1.5840 -1.1077 -0.3104
 5295TIP3    H237377   5.306   1.934  16.599 -1.3127 -0.8493 -2.3376
 5296TIP3   OH237378   5.555   6.309   1.166 -0.3549  0.1112  0.1722
 5296TIP3    H137379   5.625   6.289   1.103 -1.9410  1.5081 -2.1926
 5296TIP3    H237380   5.580   6.394   1.202  2.0792 -1.8828  3.9362
 5297TIP3   OH237381   0.551   0.619   1.698  0.2652  0.0658 -0.8955
 5297TIP3    H137382   0.513   0.697   1.659 -1.7690 -0.3299  0.1688
 5297TIP3    H237383   0.637   0.648   1.730 -0.2454  1.7368 -0.9402
 5298TIP3   OH237384   4.793   1.398   4.660  0.0874 -0.3952  0.3252
 5298TIP3    H137385   4.860   1.337   4.692 -0.1775 -0.8006  0.1111
 5298TIP3    H237386   4.839   1.452   4.596  1.6315  2.8581  3.8064
 5299TIP3   OH237387   6.442   1.214  14.099  0.7807 -0.3820  0.0855
 5299TIP3    H137388   6.357   1.212  14.056  1.0211 -3.3726 -0.4140
 5299TIP3    H237389   6.505   1.208  14.027  1.2297 -3.2621  0.6113
 5300TIP3   OH237390   2.536   5.941   5.666 -0.6449 -0.8021  0.0506
 5300TIP3    H137391   2.503   5.959   5.578 -0.8711  0.2919  0.3418
 5300TIP3    H237392   2.616   5.890   5.652 -0.7128 -0.6922 -0.7835
 5301TIP3   OH237393   3.294   3.324   0.971  0.2310  0.5976  0.5329
 5301TIP3    H137394   3.354   3.264   1.015  0.2918  0.5513  0.3852
 5301TIP3    H237395   3.309   3.310   0.878 -0.9028 -0.3079  0.4773
 5302TIP3   OH237396   2.589   1.371   0.722  0.2702  0.4122 -0.0899
 5302TIP3    H137397   2.504   1.339   0.692  0.1864  0.8243 -0.3060
 5302TIP3    H237398   2.648   1.297   0.711 -0.2599 -0.1829  0.9709
 5303TIP3   OH237399   4.440   4.224   3.633  0.4241 -0.2302 -0.0759
 5303TIP3    H137400   4.494   4.303   3.622  1.4390 -0.7818  0.8465
 5303TIP3    H237401   4.452   4.176   3.551  0.7289  0.0186 -0.1810
 5304TIP3   OH237402   2.833   2.104  12.922 -0.5682  0.3143  0.0269
 5304TIP3    H137403   2.910   2.157  12.907 -0.7457  0.1832 -1.4777
 5304TIP3    H237404   2.780   2.155  12.984  0.7753  0.3063  1.2459
 5305TIP3   OH237405   5.701   6.118  11.853 -0.2734  0.2035  0.0094
 5305TIP3    H137406   5.612   6.104  11.819 -0.2336 -1.0726  0.4085
 5305TIP3    H237407   5.688   6.165  11.935 -0.5510  0.4171 -0.1539
 5306TIP3   OH237408   1.980   2.394  16.958 -0.1089 -0.4631 -0.3325
 5306TIP3    H137409   2.023   2.314  16.988 -0.4221 -0.6092 -0.2733
 5306TIP3    H237410   1.890   2.386  16.988 -0.5734 -0.8495 -1.7535
 5307TIP3   OH237411   4.910   0.030  14.080  0.3669 -0.2210  0.0158
 5307TIP3    H137412   4.879  -0.048  14.034  0.3813  0.8732 -1.9624
 5307TIP3    H237413   4.893   0.102  14.020  1.0072  1.2330  1.4840
 5308TIP3   OH237414   4.307   3.136   5.379 -0.4723 -0.0845 -0.2473
 5308TIP3    H137415   4.298   3.080   5.456  1.0756 -0.0617 -0.0097
 5308TIP3    H237416   4.398   3.122   5.350 -0.4793  1.2571 -0.9996
 5309TIP3   OH237417   5.461   5.220   0.161 -0.5151 -0.3605 -0.2415
 5309TIP3    H137418   5.432   5.171   0.239 -0.5606 -1.2984 -0.8386
 5309TIP3    H237419   5.472   5.309   0.193 -0.5964 -0.7137  0.8367
 5310TIP3   OH237420   3.919   5.552   1.555  0.5443  0.4213 -0.1486
 5310TIP3    H137421   3.929   5.570   1.462  1.1920  1.4205  0.1021
 5310TIP3    H237422   4.000   5.584   1.595 -0.1022  0.8506  0.8719
 5311TIP3   OH237423   6.819   2.338   0.902 -0.6165  0.2447 -0.4455
 5311TIP3    H137424   6.815   2.245   0.880 -0.9989 -0.0392  0.7285
 5311TIP3    H237425   6.896   2.346   0.958  0.2873  0.9269 -1.7417
 5312TIP3   OH237426   6.230   5.400  15.734  0.1005  0.1379 -0.9333
 5312TIP3    H137427   6.159   5.378  15.793 -0.0142 -2.6802 -1.9440
 5312TIP3    H237428   6.309   5.370  15.779 -0.0753 -2.9994 -2.4309
 5313TIP3   OH237429   4.876   5.019  11.844 -0.3678  0.0513  0.3515
 5313TIP3    H137430   4.851   4.957  11.774 -1.8434 -0.2688  1.1271
 5313TIP3    H237431   4.965   5.046  11.820 -0.4224 -0.8692 -1.0719
 5314TIP3   OH237432   5.820   6.172   1.159 -0.1400 -0.5769 -0.3895
 5314TIP3    H137433   5.868   6.254   1.171  0.7660 -1.5040  3.9670
 5314TIP3    H237434   5.878   6.105   1.195 -2.7986 -2.4198  0.7931
 5315TIP3   OH237435   5.690   0.161  13.505  0.2262 -0.6124 -0.5286
 5315TIP3    H137436   5.681   0.181  13.412  0.8056  0.9672 -0.2707
 5315TIP3    H237437   5.785   0.160  13.520  0.1428 -1.1566 -0.0051
 5316TIP3   OH237438   0.453   4.211  13.492  0.4271 -0.1654  0.0817
 5316TIP3    H137439   0.456   4.117  13.472  0.4599 -0.7241  2.4073
 5316TIP3    H237440   0.387   4.219  13.561  1.9326  1.1863  1.4503
 5317TIP3   OH237441   6.035   6.066   1.784  0.6734 -0.6310 -0.1991
 5317TIP3    H137442   6.116   6.100   1.745  0.6716  0.7546  0.9330
 5317TIP3    H237443   5.984   6.144   1.804 -1.3602 -1.4980 -1.6575
 5318TIP3   OH237444   2.789   5.586   2.514 -0.8096  0.5359  0.1411
 5318TIP3    H137445   2.876   5.549   2.531 -0.5727  0.3916 -1.2835
 5318TIP3    H237446   2.768   5.559   2.425 -3.4509 -1.6164  1.2830
 5319TIP3   OH237447   2.046   5.576   0.406  0.3390  0.3210  0.0954
 5319TIP3    H137448   2.050   5.595   0.500 -0.3138 -0.9242  0.3962
 5319TIP3    H237449   1.958   5.603   0.381 -0.4623 -1.7579  0.4460
 5320TIP3   OH237450   0.069   2.157  11.284 -0.2234 -0.0265  0.2239
 5320TIP3    H137451   0.072   2.070  11.244 -0.4262  0.9238 -2.0232
 5320TIP3    H237452   0.068   2.217  11.209  0.0130  1.9167  1.7150
 5321TIP3   OH237453   3.268   2.390  13.346  0.4644  0.7377 -0.2057
 5321TIP3    H137454   3.247   2.480  13.321  0.4551  0.9028  0.3798
 5321TIP3    H237455   3.184   2.344  13.347  0.0893  1.3603  1.9909
 5322TIP3   OH237456   1.346   4.723  14.656  0.4206 -0.0434  0.2655
 5322TIP3    H137457   1.377   4.693  14.570 -0.5858  2.4556 -1.0702
 5322TIP3    H237458   1.293   4.650  14.689 -0.1129 -0.6495 -1.7854
 5323TIP3   OH237459   3.756   2.610   4.264 -0.3972  0.5401  0.0189
 5323TIP3    H137460   3.754   2.655   4.349  2.0836  0.0103  0.4249
 5323TIP3    H237461   3.750   2.517   4.285  0.3512  0.3986 -0.3544
 5324TIP3   OH237462   3.896   2.176  15.496 -0.4767  0.1802  0.1146
 5324TIP3    H137463   3.972   2.219  15.535 -0.3623  0.1378 -0.0579
 5324TIP3    H237464   3.865   2.240  15.431  0.2670 -0.3791 -0.8208
 5325TIP3   OH237465   1.811   3.359   1.212  0.1351 -0.4103  0.0901
 5325TIP3    H137466   1.900   3.344   1.182  0.2228 -0.0803  0.1786
 5325TIP3    H237467   1.758   3.296   1.163  0.3904 -0.4785 -0.1002
 5326TIP3   OH237468   3.837   2.849  17.146 -0.1058  0.5508 -0.2557
 5326TIP3    H137469   3.900   2.845  17.218  0.0800 -0.5864 -0.4555
 5326TIP3    H237470   3.876   2.794  17.078 -1.8850 -1.2477  0.0942
 5327TIP3   OH237471   2.605   5.535  13.680 -0.9002 -0.0128 -0.3264
 5327TIP3    H137472   2.638   5.619  13.647 -1.8530  0.5843  0.1932
 5327TIP3    H237473   2.683   5.482  13.693 -0.2596  0.8741 -0.4580
 5328TIP3   OH237474   6.513   2.989   5.558  0.7192  0.1843  0.0926
 5328TIP3    H137475   6.433   2.996   5.609  0.4827 -1.5000  0.0209
 5328TIP3    H237476   6.538   3.079   5.539 -0.4116  0.7712  1.2635
 5329TIP3   OH237477   3.266   5.429  12.501  0.2713 -0.2347 -0.6886
 5329TIP3    H137478   3.223   5.507  12.537 -0.1519 -0.6891 -0.1850
 5329TIP3    H237479   3.195   5.365  12.491  0.8244 -1.0303  0.2544
 5330TIP3   OH237480   1.629   2.638   4.324  0.2701  0.1216  0.1173
 5330TIP3    H137481   1.582   2.556   4.306 -0.4125  0.5985 -0.3527
 5330TIP3    H237482   1.569   2.688   4.380  1.5065 -0.4860  2.0986
 5331TIP3   OH237483   1.519   4.770   0.663  0.0832 -0.5502 -0.1903
 5331TIP3    H137484   1.425   4.783   0.651  0.4069  2.7359 -0.0557
 5331TIP3    H237485   1.559   4.842   0.614  2.4789 -1.0330  0.9317
 5332TIP3   OH237486   0.277   3.239   3.503  0.3670 -0.6510  0.0460
 5332TIP3    H137487   0.230   3.173   3.453  0.4451 -0.8599  0.2460
 5332TIP3    H237488   0.257   3.322   3.459 -0.8316 -0.6289  0.5888
 5333TIP3   OH237489   0.795   2.621  11.881 -0.2567  0.4785  0.2952
 5333TIP3    H137490   0.728   2.680  11.847 -0.8848  1.4402  2.9728
 5333TIP3    H237491   0.845   2.674  11.943  0.5503 -1.2569  1.1940
 5334TIP3   OH237492   1.543   4.325   3.354 -0.4235  0.2128 -0.3254
 5334TIP3    H137493   1.483   4.400   3.356 -0.2826  0.3244  0.9560
 5334TIP3    H237494   1.573   4.320   3.264 -0.7614  1.4426 -0.5240
 5335TIP3   OH237495   0.265   3.318   5.536 -0.0974 -0.2791 -0.2965
 5335TIP3    H137496   0.343   3.278   5.573  0.2747  1.8747  1.5438
 5335TIP3    H237497   0.295   3.402   5.500 -1.3631  0.0672 -0.6241
 5336TIP3   OH237498   0.517   5.465  10.385 -0.3311  0.1409 -0.0675
 5336TIP3    H137499   0.467   5.537  10.424  0.0752  0.7784 -0.6983
 5336TIP3    H237500   0.531   5.492  10.294 -0.8884 -1.1245 -0.5480
 5337TIP3   OH237501   5.492   0.274   1.462  0.1333  0.1346 -0.6105
 5337TIP3    H137502   5.463   0.184   1.477  1.2771 -0.1535 -0.0488
 5337TIP3    H237503   5.495   0.314   1.548  0.5925  0.4015 -0.7428
 5338TIP3   OH237504   0.336   6.165   3.895  0.1488  0.0094 -0.0331
 5338TIP3    H137505   0.335   6.151   3.990  0.9786  0.5515  0.0707
 5338TIP3    H237506   0.270   6.234   3.881 -0.4888 -0.5740  0.0512
 5339TIP3   OH237507   6.199   4.973   0.713 -0.2935 -0.0520  0.4128
 5339TIP3    H137508   6.226   5.043   0.654 -0.8252  0.2725  0.5473
 5339TIP3    H237509   6.202   5.011   0.800 -1.1355 -0.0136  0.4349
 5340TIP3   OH237510   4.410   6.278  14.076 -0.3356  0.1462  0.1363
 5340TIP3    H137511   4.369   6.192  14.072 -1.6704  0.7798 -0.5747
 5340TIP3    H237512   4.459   6.277  14.158  0.5756 -1.6482 -0.3786
 5341TIP3   OH237513   6.663   2.706   6.213 -0.4539  0.1462 -0.5003
 5341TIP3    H137514   6.593   2.642   6.199  0.0934 -0.6144  0.0836
 5341TIP3    H237515   6.638   2.752   6.293  0.3716 -1.0977  0.5143
 5342TIP3   OH237516   4.879   2.478  15.057  0.5428 -0.2139  0.7021
 5342TIP3    H137517   4.888   2.559  15.007  1.6284 -0.6430  0.1891
 5342TIP3    H237518   4.926   2.412  15.006 -2.1926 -1.7141 -0.0722
 5343TIP3   OH237519   3.996   1.146   2.256 -0.1591 -0.0618 -0.3279
 5343TIP3    H137520   4.030   1.234   2.240  1.0748 -0.9253 -3.0593
 5343TIP3    H237521   4.035   1.119   2.339  0.1484  1.5978  0.1052
 5344TIP3   OH237522   3.747   5.242   5.224  0.5346  0.6021  0.1549
 5344TIP3    H137523   3.719   5.151   5.223  0.7288  0.5425 -0.0422
 5344TIP3    H237524   3.843   5.237   5.226  0.5665  0.7812  2.2515
 5345TIP3   OH237525   4.862   3.161  16.610  0.4277  0.4674  0.1869
 5345TIP3    H137526   4.900   3.196  16.690  2.4377  1.7440 -1.2390
 5345TIP3    H237527   4.882   3.067  16.613 -0.3523  0.3156  1.5759
 5346TIP3   OH237528   1.374   1.311  12.502  0.1999  0.3728  0.2006
 5346TIP3    H137529   1.469   1.299  12.505  0.3666  1.6311  2.3382
 5346TIP3    H237530   1.341   1.229  12.466  2.1240  0.2515 -1.4501
 5347TIP3   OH237531   5.391   1.566  16.955 -0.4399 -0.6474  0.3523
 5347TIP3    H137532   5.428   1.522  17.032 -0.3512 -1.4208 -0.1249
 5347TIP3    H237533   5.462   1.565  16.891  0.0772  1.5182  0.8060
 5348TIP3   OH237534   1.638   1.980  11.559  0.1460 -0.5016 -0.2059
 5348TIP3    H137535   1.589   1.902  11.531 -0.6048 -0.5742  1.1976
 5348TIP3    H237536   1.635   1.976  11.654 -0.0772  1.3490 -0.1045
 5349TIP3   OH237537   1.914   1.919  14.240  0.3254 -0.2135  0.1959
 5349TIP3    H137538   1.936   1.927  14.147 -2.0638 -0.9584 -0.4960
 5349TIP3    H237539   1.963   1.842  14.269  1.0774  0.0094 -0.4214
 5350TIP3   OH237540   0.513   1.151  16.791  0.3528 -0.6300 -0.0187
 5350TIP3    H137541   0.430   1.112  16.763 -0.2082 -0.4327  1.3063
 5350TIP3    H237542   0.509   1.242  16.760 -0.1727 -0.4692  0.5107
 5351TIP3   OH237543   3.672   6.721   5.461  0.3713  0.6137 -0.1201
 5351TIP3    H137544   3.685   6.718   5.556  1.3106  0.1476 -0.2612
 5351TIP3    H237545   3.622   6.802   5.447 -0.4117  0.3223  0.8351
 5352TIP3   OH237546   2.451   6.440  11.751  0.7374 -0.4896  0.4255
 5352TIP3    H137547   2.454   6.391  11.670 -0.6379  1.0850 -0.6483
 5352TIP3    H237548   2.483   6.527  11.728  0.1070  0.0498  1.4987
 5353TIP3   OH237549   4.617   2.225   0.177  1.0783 -0.3143 -0.2533
 5353TIP3    H137550   4.687   2.160   0.176  0.4298 -1.0541  0.8070
 5353TIP3    H237551   4.539   2.177   0.148  0.7064  0.1267 -0.0002
 5354TIP3   OH237552   0.623   3.572   2.055  0.5907 -0.3062 -0.1031
 5354TIP3    H137553   0.550   3.633   2.045  0.0455 -1.0234 -0.6335
 5354TIP3    H237554   0.680   3.613   2.120 -0.6230 -0.0518  0.8425
 5355TIP3   OH237555   1.682   4.633   3.573 -0.3998 -0.3576  0.3972
 5355TIP3    H137556   1.698   4.595   3.486  0.1944  0.4621  0.1315
 5355TIP3    H237557   1.692   4.727   3.560  3.7052 -0.3501  2.0862
 5356TIP3   OH237558   5.363   4.346   4.680 -0.3612  0.1408 -0.6323
 5356TIP3    H137559   5.454   4.366   4.701 -0.0080 -1.0594 -0.9681
 5356TIP3    H237560   5.321   4.333   4.765 -0.2504  0.7502 -0.4753
 5357TIP3   OH237561   5.642   3.232  15.264 -0.3814  0.6072  0.0187
 5357TIP3    H137562   5.670   3.142  15.250 -2.3207  0.0145 -0.3052
 5357TIP3    H237563   5.645   3.272  15.177  2.6829  1.6318  0.4463
 5358TIP3   OH237564   2.752   5.624   4.519  0.0956 -0.3811 -0.1842
 5358TIP3    H137565   2.791   5.617   4.432  0.2528  0.4153 -0.1863
 5358TIP3    H237566   2.762   5.716   4.542  0.2497 -0.6273  0.7690
 5359TIP3   OH237567   5.628   5.378  12.991 -0.6967 -0.1294  0.3859
 5359TIP3    H137568   5.647   5.318  12.919  0.0238  1.9647 -1.2685
 5359TIP3    H237569   5.533   5.371  13.004 -0.4974 -2.3829  1.0284
 5360TIP3   OH237570   0.722   2.184  11.503  0.8036 -0.4757  0.0028
 5360TIP3    H137571   0.683   2.271  11.510  1.1838 -0.3359  0.3472
 5360TIP3    H237572   0.650   2.124  11.525  1.1378 -0.1758  2.0780
 5361TIP3   OH237573   3.282   3.290  11.577  0.4994  0.2019 -0.1589
 5361TIP3    H137574   3.308   3.370  11.623 -0.9065  0.9687 -0.6283
 5361TIP3    H237575   3.251   3.322  11.492 -0.8971 -0.7534 -0.0270
 5362TIP3   OH237576   2.852   0.434  15.946  0.3700 -0.4294  0.2117
 5362TIP3    H137577   2.854   0.496  16.019  3.0450  0.0278 -0.1527
 5362TIP3    H237578   2.815   0.484  15.873  0.6867  0.1515  0.4361
 5363TIP3   OH237579   1.023   1.890  13.525 -0.2458  0.1878 -0.4750
 5363TIP3    H137580   0.994   1.837  13.450 -0.7263 -0.2602  0.0238
 5363TIP3    H237581   1.088   1.835  13.569 -0.7464  0.0118  0.0449
 5364TIP3   OH237582   1.936   2.103  14.534 -0.6001 -0.3616  0.2426
 5364TIP3    H137583   1.872   2.110  14.462 -0.7157 -1.7275  0.1881
 5364TIP3    H237584   1.893   2.048  14.599  1.1686 -2.8750 -0.5799
 5365TIP3   OH237585   0.223   5.907   3.021  0.4173  0.1396  0.7312
 5365TIP3    H137586   0.131   5.921   3.043 -0.5608 -1.4652 -1.9320
 5365TIP3    H237587   0.233   5.942   2.933  1.7247 -1.7220  0.0587
 5366TIP3   OH237588   4.786   6.222   6.241 -0.4145  0.6250 -0.1092
 5366TIP3    H137589   4.725   6.295   6.249 -0.6170  0.6303 -1.3940
 5366TIP3    H237590   4.870   6.263   6.221 -0.5171  0.5175 -0.7775
 5367TIP3   OH237591   2.386   5.224   5.587 -0.2449  0.2530  0.1553
 5367TIP3    H137592   2.405   5.268   5.671 -0.2913 -1.9859  1.4128
 5367TIP3    H237593   2.310   5.169   5.606  0.8429 -1.6521 -0.8448
 5368TIP3   OH237594   1.288   5.496  14.239  0.0098 -0.2932  0.2657
 5368TIP3    H137595   1.270   5.508  14.146  1.7088 -0.8805 -0.1817
 5368TIP3    H237596   1.304   5.402  14.248 -2.8667 -0.7322  1.7083
 5369TIP3   OH237597   2.375   0.479   5.389 -0.0392  0.4158 -0.0996
 5369TIP3    H137598   2.357   0.491   5.482 -0.6239 -1.1672  0.0222
 5369TIP3    H237599   2.301   0.426   5.357  0.6665  0.0737 -1.2254
 5370TIP3   OH237600   6.754   3.771  17.036 -0.5845  0.1079  0.0349
 5370TIP3    H137601   6.758   3.730  17.122  0.1636 -1.1417 -0.5641
 5370TIP3    H237602   6.820   3.840  17.039 -0.1683 -0.2918  0.2927
 5371TIP3   OH237603   4.145   4.239   0.581  0.2700  0.5179 -0.2835
 5371TIP3    H137604   4.170   4.297   0.653  1.6433 -0.5596  0.1400
 5371TIP3    H237605   4.049   4.238   0.584  0.2912 -0.4439  2.3316
 5372TIP3   OH237606   0.365   6.172  13.166 -0.7255  0.4028 -0.5582
 5372TIP3    H137607   0.372   6.227  13.245  1.1457 -1.1952  0.4594
 5372TIP3    H237608   0.445   6.191  13.117 -0.0609 -1.3346 -0.2021
 5373TIP3   OH237609   0.575   5.810  15.049 -0.1129 -0.1216 -0.2827
 5373TIP3    H137610   0.528   5.851  14.975 -0.4116 -1.9828 -1.1873
 5373TIP3    H237611   0.515   5.743  15.081  0.2756  0.2408  1.3011
 5374TIP3   OH237612   6.321   0.589   5.647 -0.4669 -0.0847 -0.3593
 5374TIP3    H137613   6.302   0.575   5.740 -0.7683  0.9482 -0.2480
 5374TIP3    H237614   6.396   0.648   5.646 -2.3735  2.5645 -0.6628
 5375TIP3   OH237615   1.061   1.583   4.563 -0.1667 -0.8098 -0.7254
 5375TIP3    H137616   1.082   1.495   4.592 -2.7894 -1.6261 -1.0376
 5375TIP3    H237617   0.969   1.595   4.587  0.2671  2.0834 -0.1662
 5376TIP3   OH237618   5.159   1.362   4.116 -0.4449 -0.6412 -0.6365
 5376TIP3    H137619   5.233   1.412   4.150 -1.1053 -0.6149  0.8696
 5376TIP3    H237620   5.132   1.409   4.037  0.4761 -0.0494 -0.6126
 5377TIP3   OH237621   6.342   2.927   1.410  0.0488  0.5692 -0.0904
 5377TIP3    H137622   6.359   2.991   1.480  1.3037 -0.2786  0.4177
 5377TIP3    H237623   6.247   2.925   1.402 -0.1026  1.0101  1.3016
 5378TIP3   OH237624   1.822   3.060  16.979 -0.4191  0.1577 -0.2265
 5378TIP3    H137625   1.836   3.154  16.964  2.8162  0.0555  1.2185
 5378TIP3    H237626   1.909   3.022  16.969 -1.4612 -2.5595  0.3295
 5379TIP3   OH237627   0.097   6.276  16.297 -0.2627 -0.4917 -0.2019
 5379TIP3    H137628   0.077   6.275  16.390  1.1785  1.3587  0.1916
 5379TIP3    H237629   0.068   6.362  16.266  0.9035 -0.3560 -1.0301
 5380TIP3   OH237630   3.048   0.962   1.846 -0.5746  0.1511 -0.1442
 5380TIP3    H137631   3.030   0.869   1.830  1.1519 -0.1945 -0.2347
 5380TIP3    H237632   3.053   0.969   1.942 -1.1450  0.2540 -0.1172
 5381TIP3   OH237633   4.224   5.666   4.958 -0.2275  0.2436  0.3047
 5381TIP3    H137634   4.201   5.734   4.894 -0.2946 -0.7031 -0.7224
 5381TIP3    H237635   4.169   5.591   4.933  1.0520 -0.7371  0.3280
 5382TIP3   OH237636   1.272   3.576   5.427 -0.1878 -0.7328 -0.1057
 5382TIP3    H137637   1.181   3.561   5.451 -0.3801 -1.0990 -0.9987
 5382TIP3    H237638   1.299   3.494   5.385  0.5310 -0.6080  0.1002
 5383TIP3   OH237639   3.332   2.094   5.075  0.0724 -0.0297  0.3872
 5383TIP3    H137640   3.342   2.006   5.110 -3.1566 -0.6630  0.0499
 5383TIP3    H237641   3.360   2.152   5.146  0.2445 -1.3006  1.3809
 5384TIP3   OH237642   1.749   3.608   6.207 -0.2650  0.1430 -0.1473
 5384TIP3    H137643   1.776   3.606   6.298 -1.1186 -0.4398  0.0993
 5384TIP3    H237644   1.822   3.649   6.161 -0.1240  1.1093  0.8953
 5385TIP3   OH237645   6.774   3.464  11.752  0.2564  0.9819  0.7627
 5385TIP3    H137646   6.750   3.412  11.675 -1.6125  0.0618  1.8656
 5385TIP3    H237647   6.744   3.552  11.732 -1.6081  0.4396  0.9515
 5386TIP3   OH237648   1.692   4.414  13.356  0.0555  0.9905 -0.0189
 5386TIP3    H137649   1.765   4.376  13.307  0.0288 -0.8238  1.2383
 5386TIP3    H237650   1.629   4.440  13.289  0.3275 -0.7296 -1.0080
 5387TIP3   OH237651   1.176   3.896   2.169  0.3029 -0.0295  0.1026
 5387TIP3    H137652   1.093   3.880   2.125  0.6353 -0.5402 -0.3561
 5387TIP3    H237653   1.175   3.990   2.187 -0.1206  0.0787 -0.4289
 5388TIP3   OH237654   2.923   3.451   2.952 -0.1201 -0.1016 -0.0715
 5388TIP3    H137655   2.864   3.489   2.887  1.5361  2.1468 -0.3963
 5388TIP3    H237656   2.911   3.505   3.030 -0.0162 -0.9517  0.5422
 5389TIP3   OH237657   4.383   4.263  14.585  0.3162 -0.4507 -0.0900
 5389TIP3    H137658   4.301   4.252  14.633 -0.1737  0.2048 -0.7592
 5389TIP3    H237659   4.436   4.320  14.641 -0.4361  0.7066 -0.5025
 5390TIP3   OH237660   3.259   5.213   1.205 -0.0675  0.5225  0.4921
 5390TIP3    H137661   3.274   5.307   1.198  0.3742  0.4268  0.1132
 5390TIP3    H237662   3.216   5.202   1.290  0.6577  0.9718  0.9257
 5391TIP3   OH237663   4.453   6.697   3.216  0.4413  0.2087  0.1872
 5391TIP3    H137664   4.466   6.771   3.276  3.1171 -2.2502  3.0504
 5391TIP3    H237665   4.532   6.643   3.228 -1.8288 -3.6975 -0.7740
 5392TIP3   OH237666   3.620   1.343  16.406 -0.0200  0.1410  0.4692
 5392TIP3    H137667   3.609   1.417  16.347  2.3419  1.3352  1.4208
 5392TIP3    H237668   3.610   1.379  16.494 -0.0262 -0.9117  0.9238
 5393TIP3   OH237669   1.646   6.386   5.103  0.4426 -0.4454  0.4797
 5393TIP3    H137670   1.726   6.437   5.116  0.2665 -0.4342  1.7110
 5393TIP3    H237671   1.664   6.303   5.148 -0.0604 -0.6167  0.3670
 5394TIP3   OH237672   1.976   3.488  15.917  0.1729 -0.3736  0.1288
 5394TIP3    H137673   1.929   3.452  15.992 -0.3642  1.4782  0.7375
 5394TIP3    H237674   2.067   3.493  15.946  0.2130 -1.0024  0.1205
 5395TIP3   OH237675   4.442   1.757   4.824  1.1079 -0.4397  0.6547
 5395TIP3    H137676   4.447   1.671   4.866 -0.0524 -0.7465  0.2020
 5395TIP3    H237677   4.420   1.817   4.896  3.6118 -0.1951  1.3073
 5396TIP3   OH237678   4.467   1.307  12.693 -0.2230  0.0525  0.4546
 5396TIP3    H137679   4.456   1.349  12.778  1.4852 -1.1856  1.3562
 5396TIP3    H237680   4.560   1.319  12.672 -0.0095 -1.8876  0.0492
 5397TIP3   OH237681   5.432   4.246  15.437  0.0748  0.2558 -0.0829
 5397TIP3    H137682   5.475   4.278  15.516 -0.1451  2.9237 -0.9548
 5397TIP3    H237683   5.504   4.226  15.376  0.3832 -3.7281  1.2672
 5398TIP3   OH237684   4.065   2.729  14.841  0.1677 -0.5025 -0.1083
 5398TIP3    H137685   4.001   2.665  14.810  0.6644 -2.0249  1.7889
 5398TIP3    H237686   4.125   2.741  14.767 -1.1299 -0.6163 -1.2037
 5399TIP3   OH237687   2.031   5.743  11.408  0.0674 -0.0603 -0.5600
 5399TIP3    H137688   1.995   5.735  11.320 -1.8016 -1.3562  0.2555
 5399TIP3    H237689   2.101   5.678  11.411 -1.0263 -1.2908 -0.5935
 5400TIP3   OH237690   3.941   6.376   4.807 -0.3012  0.0655  0.0794
 5400TIP3    H137691   3.979   6.362   4.894  0.7817 -2.3476 -0.7102
 5400TIP3    H237692   3.846   6.378   4.822 -0.0958  0.6182  1.4072
 5401TIP3   OH237693   5.293   2.252   2.380  0.3021  0.0603  0.4428
 5401TIP3    H137694   5.255   2.325   2.428  1.9841  1.0852  0.2885
 5401TIP3    H237695   5.307   2.287   2.292  2.4788  0.0749  0.7509
 5402TIP3   OH237696   2.868   1.029   2.161  0.1796  0.3480  0.1044
 5402TIP3    H137697   2.874   0.945   2.208 -0.4403 -0.3940 -1.0909
 5402TIP3    H237698   2.786   1.023   2.112  0.3787  1.4536 -0.3816
 5403TIP3   OH237699   0.815   2.372   4.929  0.6451 -0.0419  0.6911
 5403TIP3    H137700   0.868   2.386   4.851 -0.8201 -1.6696 -0.7039
 5403TIP3    H237701   0.832   2.448   4.984  2.0373  0.9720 -1.0334
 5404TIP3   OH237702   0.075   2.518   0.702 -0.5963  0.5909  0.4575
 5404TIP3    H137703   0.170   2.534   0.701 -0.4149 -0.3770  0.6644
 5404TIP3    H237704   0.061   2.465   0.781 -0.7019 -2.5556 -1.4886
 5405TIP3   OH237705   0.756   3.786  12.713 -0.1626 -0.1342 -0.9458
 5405TIP3    H137706   0.794   3.726  12.649 -1.3198  1.2009 -3.0272
 5405TIP3    H237707   0.728   3.861  12.660 -2.6186  0.3581  0.9199
 5406TIP3   OH237708   3.014   1.813   1.859 -0.2984 -0.3414 -0.1683
 5406TIP3    H137709   2.927   1.794   1.894 -1.2271  0.9590 -1.6418
 5406TIP3    H237710   2.998   1.853   1.774  1.6664  1.3571  0.1709
 5407TIP3   OH237711   0.449   6.508  16.126 -0.1656  0.0531  0.5556
 5407TIP3    H137712   0.410   6.422  16.112 -0.4139  0.2521 -0.0161
 5407TIP3    H237713   0.392   6.568  16.078 -0.4271  0.6339  1.5635
 5408TIP3   OH237714   2.634   1.095   2.377 -0.2144 -0.2845  0.2324
 5408TIP3    H137715   2.618   1.079   2.284 -0.2974  2.2569 -0.2599
 5408TIP3    H237716   2.715   1.145   2.379  0.1789 -0.9368  1.6191
 5409TIP3   OH237717   5.196   1.323  14.884 -0.6294  0.4761  0.3359
 5409TIP3    H137718   5.109   1.358  14.900  0.4836  4.0930 -0.5446
 5409TIP3    H237719   5.208   1.329  14.789  0.5321 -0.0341  0.4322
 5410TIP3   OH237720   0.243   5.567  11.281  0.3725 -0.2473  0.1512
 5410TIP3    H137721   0.194   5.633  11.232 -0.5311 -0.0379  1.2928
 5410TIP3    H237722   0.224   5.484  11.237  1.7195  0.2425 -1.4523
 5411TIP3   OH237723   0.568   4.750  14.863  0.0319  0.3975  0.3113
 5411TIP3    H137724   0.503   4.780  14.799 -0.2541  0.8730  0.8210
 5411TIP3    H237725   0.584   4.826  14.918 -0.5239 -0.3255  1.4874
 5412TIP3   OH237726   0.147   0.949   1.387 -0.5761 -0.4136 -0.0616
 5412TIP3    H137727   0.208   0.984   1.322  0.0242  0.0314  0.7282
 5412TIP3    H237728   0.071   0.920   1.336 -0.2565  0.2378 -0.9188
 5413TIP3   OH237729   3.333   3.645  13.036  0.4328 -0.4508  0.2562
 5413TIP3    H137730   3.272   3.714  13.059  0.1147 -0.6012 -0.1257
 5413TIP3    H237731   3.394   3.685  12.974  1.9962  0.2870  2.1391
 5414TIP3   OH237732   4.296   0.018  12.217 -0.0209 -0.0139 -0.0332
 5414TIP3    H137733   4.245   0.097  12.201 -0.3762 -0.0997  0.6580
 5414TIP3    H237734   4.381   0.035  12.177 -0.8117 -0.1515 -1.8732
 5415TIP3   OH237735   3.327   5.266  17.092 -0.2053 -0.3781 -0.1327
 5415TIP3    H137736   3.284   5.289  17.010 -1.0111 -0.2016  0.3181
 5415TIP3    H237737   3.413   5.307  17.087 -0.7238  0.7196 -0.3611
 5416TIP3   OH237738   0.172   6.548   2.065  0.6030  0.1208  0.1837
 5416TIP3    H137739   0.137   6.628   2.104 -0.1230 -0.7017  1.2858
 5416TIP3    H237740   0.264   6.547   2.092  0.6316  0.5865  0.1232
 5417TIP3   OH237741   2.460   2.388   0.954  0.2305 -0.1179  0.2457
 5417TIP3    H137742   2.551   2.415   0.965  0.2333  1.0005 -1.9638
 5417TIP3    H237743   2.422   2.392   1.042  2.8295 -2.8921  1.6901
 5418TIP3   OH237744   3.510   2.207   0.759  0.1398  0.2500 -0.5790
 5418TIP3    H137745   3.599   2.185   0.733  0.4917  1.6471 -0.6455
 5418TIP3    H237746   3.464   2.123   0.762  1.4894 -0.5060 -0.3818
 5419TIP3   OH237747   3.523   1.531   5.079 -0.0136 -0.1519  0.1473
 5419TIP3    H137748   3.509   1.480   5.159 -0.7134  0.9476  0.7661
 5419TIP3    H237749   3.461   1.494   5.016  1.6291 -2.0596 -0.4295
 5420TIP3   OH237750   6.007   2.432   1.234  0.2861 -0.1298 -0.1603
 5420TIP3    H137751   5.950   2.417   1.159  2.0010  0.7229 -1.7078
 5420TIP3    H237752   5.979   2.516   1.269 -1.4778 -1.1807  1.1449
 5421TIP3   OH237753   0.433   1.923  14.119  0.2784  0.4369  0.1134
 5421TIP3    H137754   0.397   1.858  14.180  0.4678  0.6637  0.4736
 5421TIP3    H237755   0.526   1.928  14.141  0.5573 -0.1937 -0.8544
 5422TIP3   OH237756   5.785   4.796   0.546 -0.4139  0.2588  0.5731
 5422TIP3    H137757   5.880   4.795   0.547 -0.4128 -0.3198  1.3591
 5422TIP3    H237758   5.761   4.884   0.572 -0.1029  0.5755 -0.1771
 5423TIP3   OH237759   1.309   2.834  15.450 -0.1604 -0.1784 -0.1987
 5423TIP3    H137760   1.355   2.750  15.446 -1.4147 -0.9685  1.2273
 5423TIP3    H237761   1.233   2.818  15.505 -0.2891  1.9795  0.3628
 5424TIP3   OH237762   2.115   3.806   3.222 -0.0644  0.0227 -0.2736
 5424TIP3    H137763   2.146   3.746   3.154 -1.7608 -0.4757 -0.6612
 5424TIP3    H237764   2.108   3.753   3.301 -2.9283 -0.7745 -0.9391
 5425TIP3   OH237765   6.675   1.945  14.998  0.1810 -0.1794  0.2448
 5425TIP3    H137766   6.747   1.908  15.050  0.1782  0.9229  1.0542
 5425TIP3    H237767   6.717   1.977  14.918  0.1373 -2.1902 -0.6541
 5426TIP3   OH237768   4.142   4.408   3.416  0.0908 -0.2741 -0.0556
 5426TIP3    H137769   4.121   4.449   3.333  0.9461 -0.3963 -0.3355
 5426TIP3    H237770   4.147   4.480   3.478  0.7671 -0.0410 -0.3781
 5427TIP3   OH237771   2.812   6.656  11.830  0.7082 -0.2485  0.6087
 5427TIP3    H137772   2.789   6.746  11.852  0.0479  0.0853 -1.2321
 5427TIP3    H237773   2.767   6.603  11.896  0.2875  0.7218  1.1323
 5428TIP3   OH237774   4.793   2.130   1.955 -0.4722  0.0055 -0.3179
 5428TIP3    H137775   4.853   2.204   1.950 -1.0017  0.4389 -0.2886
 5428TIP3    H237776   4.708   2.166   1.932 -0.8946 -0.3972  0.5774
 5429TIP3   OH237777   4.622   6.441  14.199  0.0847 -0.1607 -0.2470
 5429TIP3    H137778   4.620   6.536  14.199  1.5877 -0.1025 -0.7810
 5429TIP3    H237779   4.641   6.417  14.289  0.0413  0.0614 -0.1782
 5430TIP3   OH237780   0.518   4.252  16.720  0.0149 -0.5533 -0.2367
 5430TIP3    H137781   0.462   4.175  16.709 -1.2871  0.4099 -0.6243
 5430TIP3    H237782   0.595   4.234  16.668 -0.7174 -1.1923 -1.1146
 5431TIP3   OH237783   1.923   1.849  11.771 -0.1545 -0.3198 -0.1312
 5431TIP3    H137784   1.866   1.775  11.792  1.5045 -1.2015  1.6139
 5431TIP3    H237785   1.919   1.857  11.676 -0.7846 -2.3256 -0.3121
 5432TIP3   OH237786   4.859   6.589   4.002 -0.3014 -0.1758  0.1316
 5432TIP3    H137787   4.835   6.627   4.087 -1.8252  0.2895 -0.4793
 5432TIP3    H237788   4.816   6.503   4.002 -1.7799  0.5368 -0.8546
 5433TIP3   OH237789   6.702   1.108  13.683  0.2139  0.2106  0.1189
 5433TIP3    H137790   6.642   1.068  13.619  0.5087 -3.6556  1.9299
 5433TIP3    H237791   6.789   1.092  13.646  0.2933  0.4599  0.2024
 5434TIP3   OH237792   1.636   2.301  11.264 -0.3988  0.6504 -0.0297
 5434TIP3    H137793   1.597   2.297  11.352 -1.0072  0.0318 -0.3233
 5434TIP3    H237794   1.688   2.221  11.257  1.6953  1.8550  0.6835
 5435TIP3   OH237795   4.946   2.708   5.847 -0.1233  0.0299  0.1407
 5435TIP3    H137796   5.001   2.654   5.904  0.3637  0.2318 -0.1328
 5435TIP3    H237797   4.916   2.646   5.779  0.6749  0.1517 -0.3412
 5436TIP3   OH237798   4.963   6.787  16.638 -0.2568 -0.3486  0.2077
 5436TIP3    H137799   5.032   6.749  16.693  1.1871  1.7499 -0.0371
 5436TIP3    H237800   4.977   6.881  16.643 -2.2160  0.0835 -1.0786
 5437TIP3   OH237801   1.882   2.247  11.865 -0.1087 -0.1711  0.7086
 5437TIP3    H137802   1.812   2.255  11.800  2.0736  0.3519 -1.7618
 5437TIP3    H237803   1.849   2.184  11.929 -2.4359 -0.6724 -0.8596
 5438TIP3   OH237804   6.720   5.331  13.237 -0.2724 -0.5411  0.1372
 5438TIP3    H137805   6.730   5.240  13.266 -2.0683 -0.6520  0.4996
 5438TIP3    H237806   6.807   5.369  13.249 -0.1294 -1.4794  2.5643
 5439TIP3   OH237807   0.987   4.777   5.198  0.6254  0.0029 -0.3305
 5439TIP3    H137808   0.940   4.727   5.131  0.0696  0.5783 -0.3720
 5439TIP3    H237809   1.057   4.822   5.150  1.1747 -0.7744 -0.2821
 5440TIP3   OH237810   2.122   5.884  10.345 -0.0807  0.0898  0.4966
 5440TIP3    H137811   2.119   5.922  10.433  0.0567 -0.8094  0.9010
 5440TIP3    H237812   2.138   5.959  10.288 -1.5446  0.8972  1.0814
 5441TIP3   OH237813   2.616   5.163  10.136 -0.2746  0.5197 -0.1279
 5441TIP3    H137814   2.695   5.159  10.083  1.3207 -0.0871  2.1390
 5441TIP3    H237815   2.575   5.246  10.113  1.5237  1.2868 -0.6973
 5442TIP3   OH237816   1.301   6.046   3.700  0.1987  0.7787  0.1030
 5442TIP3    H137817   1.316   5.952   3.705 -0.0790  0.6994 -0.5131
 5442TIP3    H237818   1.385   6.086   3.723  0.2377  0.3886  0.6533
 5443TIP3   OH237819   2.993   5.923   0.988 -0.2613  0.6473  0.0810
 5443TIP3    H137820   2.931   5.955   1.052  0.3850 -1.2757  1.7797
 5443TIP3    H237821   3.030   6.002   0.948 -0.5475  1.9229  2.2005
 5444TIP3   OH237822   1.011   4.562   3.609 -0.0370  0.8236 -0.3918
 5444TIP3    H137823   1.097   4.570   3.567 -0.3128  0.6319 -1.0173
 5444TIP3    H237824   0.987   4.651   3.632  1.7354  0.6118  2.7564
 5445TIP3   OH237825   2.283   6.235   1.240  0.5329 -0.1105 -0.9058
 5445TIP3    H137826   2.322   6.238   1.327  0.7049  0.1516 -0.9898
 5445TIP3    H237827   2.300   6.146   1.209  1.7204  0.2055 -1.2266
 5446TIP3   OH237828   5.489   2.619  14.016  0.1386 -0.1274 -0.4584
 5446TIP3    H137829   5.493   2.702  13.969  0.4245  0.7404  1.0330
 5446TIP3    H237830   5.511   2.553  13.951 -1.8143  0.7679 -2.1175
 5447TIP3   OH237831   3.566   2.428  15.392  0.2300  0.1755  0.6120
 5447TIP3    H137832   3.552   2.356  15.454 -0.7244  0.5424  0.8473
 5447TIP3    H237833   3.539   2.506  15.439  2.2001  0.8378  0.6927
 5448TIP3   OH237834   5.304   1.823  14.033 -0.4642  0.0971  0.1016
 5448TIP3    H137835   5.237   1.888  14.010  0.7936  1.3111 -0.2159
 5448TIP3    H237836   5.299   1.758  13.963 -1.2038  0.2404  0.0040
 5449TIP3   OH237837   5.673   2.308   5.042  0.4085 -0.8452 -0.6140
 5449TIP3    H137838   5.696   2.372   5.108 -1.2549 -1.1818  0.3323
 5449TIP3    H237839   5.693   2.351   4.959 -0.5391  0.8583 -0.0066
 5450TIP3   OH237840   0.955   4.665   5.524  0.4129 -0.2229 -0.4511
 5450TIP3    H137841   0.908   4.748   5.528 -0.5091 -0.4177 -3.9640
 5450TIP3    H237842   0.886   4.598   5.520  0.9813 -0.7657 -2.1109
 5451TIP3   OH237843   3.368   6.496  16.073  0.2321 -0.1268 -0.0901
 5451TIP3    H137844   3.418   6.526  16.149  1.7000 -1.6467 -0.4087
 5451TIP3    H237845   3.349   6.404  16.091  0.3704 -0.4402 -1.4237
 5452TIP3   OH237846   0.596   6.507   0.010 -0.2902  0.0704 -0.0332
 5452TIP3    H137847   0.555   6.523   0.095  0.9579  2.0190  0.2751
 5452TIP3    H237848   0.558   6.426  -0.021 -3.1327  0.9274  0.9546
 5453TIP3   OH237849   1.353   5.142  14.021  0.1096 -1.1785  0.1738
 5453TIP3    H137850   1.278   5.114  14.074 -1.1324 -0.7757 -1.3132
 5453TIP3    H237851   1.363   5.075  13.955  2.1822 -2.1030  1.3168
 5454TIP3   OH237852   1.520   2.599   5.858  0.6631 -0.0350  0.1042
 5454TIP3    H137853   1.523   2.539   5.933  1.0388  3.0235  2.7472
 5454TIP3    H237854   1.612   2.616   5.838  0.6120  1.3687  0.9448
 5455TIP3   OH237855   0.741   0.368  11.057  0.1007 -0.5487 -0.4987
 5455TIP3    H137856   0.798   0.443  11.075 -0.6993  0.2160 -1.1028
 5455TIP3    H237857   0.797   0.292  11.072  0.8743  0.1542  0.3078
 5456TIP3   OH237858   1.725   0.714   2.081 -0.4914  0.1393 -0.5176
 5456TIP3    H137859   1.644   0.712   2.133  0.7978  0.2984  1.6297
 5456TIP3    H237860   1.745   0.622   2.065  0.2700 -0.0495  1.2977
 5457TIP3   OH237861   3.546   3.165  16.429 -0.5735  0.5445 -0.1873
 5457TIP3    H137862   3.520   3.229  16.363 -0.8718  0.2328 -0.3800
 5457TIP3    H237863   3.537   3.210  16.513 -3.2980 -0.0153 -0.0989
 5458TIP3   OH237864   4.756   3.686   6.445  0.2852  0.0311 -0.3605
 5458TIP3    H137865   4.847   3.657   6.456  0.7958  1.8318  0.4670
 5458TIP3    H237866   4.706   3.632   6.506  1.1132  0.3703  0.6514
 5459TIP3   OH237867   6.816   0.367   1.628  0.0005  0.3046  0.4428
 5459TIP3    H137868   6.727   0.336   1.616  0.5975 -1.1135 -0.6495
 5459TIP3    H237869   6.810   0.462   1.617 -1.1812  0.1092 -0.8106
 5460TIP3   OH237870   5.247   4.948   0.943 -0.1860  0.2013  0.1372
 5460TIP3    H137871   5.242   4.856   0.971 -1.2592  0.1462 -0.2086
 5460TIP3    H237872   5.189   4.953   0.867  1.1151  0.8140 -0.8491
 5461TIP3   OH237873   4.115   0.967   3.685 -0.5843  0.5359  0.1641
 5461TIP3    H137874   4.034   0.977   3.635 -1.5814 -0.2612  1.5404
 5461TIP3    H237875   4.139   0.875   3.674 -0.5372  0.4785  0.7090
 5462TIP3   OH237876   2.688   3.809   5.238 -0.0833 -0.1865 -0.3192
 5462TIP3    H137877   2.757   3.743   5.233  0.1529  0.0317 -0.0292
 5462TIP3    H237878   2.732   3.891   5.212 -0.0472  0.0801  0.5343
 5463TIP3   OH237879   2.372   3.665  16.799 -0.0090  0.4467 -0.2812
 5463TIP3    H137880   2.384   3.644  16.707  0.8035 -0.3312 -0.0136
 5463TIP3    H237881   2.447   3.720  16.822  0.5519 -0.5026  0.2396
 5464TIP3   OH237882   0.905   2.425  16.116 -0.3835  0.2677  0.1022
 5464TIP3    H137883   0.864   2.424  16.203  0.5924 -1.1388  0.5797
 5464TIP3    H237884   0.992   2.463  16.131  0.2448 -1.0727 -0.0114
 5465TIP3   OH237885   6.694   6.811   2.531  0.7625  0.0774 -0.5056
 5465TIP3    H137886   6.691   6.793   2.625 -2.7483  1.3572 -0.2147
 5465TIP3    H237887   6.696   6.906   2.525  1.4573  0.0048 -1.7659
 5466TIP3   OH237888   4.034   1.373   3.457 -0.0246 -0.0676 -0.4102
 5466TIP3    H137889   3.966   1.307   3.456  0.6646 -0.8015 -0.1185
 5466TIP3    H237890   4.114   1.326   3.435  0.6189  0.4986  0.5984
 5467TIP3   OH237891   4.596   5.485   5.593  0.0821 -0.6549  0.0114
 5467TIP3    H137892   4.685   5.450   5.598  0.7692  1.0926  1.3356
 5467TIP3    H237893   4.594   5.554   5.660 -2.2115 -0.4979 -0.1424
 5468TIP3   OH237894   1.374   3.257   1.718 -0.1180  0.0588  0.0070
 5468TIP3    H137895   1.294   3.299   1.687  0.1298  0.1929 -0.4580
 5468TIP3    H237896   1.363   3.251   1.813  0.1840  1.9273  0.1956
 5469TIP3   OH237897   3.127   3.588   5.893  0.4169  0.0761  0.1362
 5469TIP3    H137898   3.038   3.599   5.860  1.4058  1.6531 -2.2136
 5469TIP3    H237899   3.121   3.610   5.986 -1.7125 -0.4331  0.1752
 5470TIP3   OH237900   2.143   2.406  15.227 -0.2494  0.2028 -0.0222
 5470TIP3    H137901   2.232   2.398  15.262 -0.2282  0.1790 -0.0803
 5470TIP3    H237902   2.100   2.325  15.254 -0.3622  0.3772  0.3120
 5471TIP3   OH237903   5.750   3.926   0.083  0.3343 -0.2661  0.1519
 5471TIP3    H137904   5.811   3.855   0.103  2.7997  0.9736 -2.3021
 5471TIP3    H237905   5.712   3.903  -0.001 -1.4072 -0.2025  0.8789
 5472TIP3   OH237906   4.566   2.654  14.219 -0.3335  0.2355 -0.5693
 5472TIP3    H137907   4.547   2.716  14.290 -0.9763  1.4091 -1.7129
 5472TIP3    H237908   4.537   2.569  14.252 -1.7100  0.9518  0.1623
 5473TIP3   OH237909   6.338   6.505  13.506 -0.0258  0.0437  0.6457
 5473TIP3    H137910   6.377   6.417  13.511 -0.0265  0.0474  0.7132
 5473TIP3    H237911   6.305   6.521  13.594  0.4238  0.3163  0.7703
 5474TIP3   OH237912   1.379   0.502   2.772  0.4301 -0.3346  0.0489
 5474TIP3    H137913   1.373   0.489   2.866 -1.1193 -0.0394  0.0084
 5474TIP3    H237914   1.397   0.415   2.737  2.6814 -0.1963  0.7009
 5475TIP3   OH237915   5.665   0.337  14.065  0.1919 -0.1135  0.2357
 5475TIP3    H137916   5.650   0.259  14.010 -1.5642 -0.2099  0.7819
 5475TIP3    H237917   5.751   0.323  14.104  0.0589 -1.6309  0.0555
 5476TIP3   OH237918   1.108   3.141  16.994 -0.1264  0.2387 -0.3116
 5476TIP3    H137919   1.071   3.223  16.960 -1.3295 -0.5861 -1.0817
 5476TIP3    H237920   1.057   3.073  16.950  0.5916 -0.9179  0.6181
 5477TIP3   OH237921   1.479   3.757   0.640 -0.2464  0.3289  0.0056
 5477TIP3    H137922   1.542   3.825   0.617 -0.1919  0.5013  0.6412
 5477TIP3    H237923   1.409   3.766   0.576 -1.2272  2.3301  1.2390
 5478TIP3   OH237924   3.019   4.411  13.640  0.2162 -0.0079 -0.2901
 5478TIP3    H137925   2.981   4.480  13.586  0.6339  2.0361  1.8413
 5478TIP3    H237926   3.105   4.396  13.603 -0.5982 -0.8575 -1.9505
 5479TIP3   OH237927   4.706   6.758   1.095  0.3693  0.0755  0.5606
 5479TIP3    H137928   4.639   6.751   1.027  1.5043 -2.5763 -0.4421
 5479TIP3    H237929   4.657   6.762   1.177 -1.0223  0.4854 -0.2606
 5480TIP3   OH237930   0.017   5.813  15.770 -0.5992 -0.0230 -0.2698
 5480TIP3    H137931   0.061   5.869  15.707 -1.8120 -0.4283 -1.5345
 5480TIP3    H237932  -0.076   5.822  15.749 -1.0345 -0.2421  1.4241
 5481TIP3   OH237933   3.463   3.593  15.616  0.1478  0.2764 -0.0055
 5481TIP3    H137934   3.504   3.579  15.531  0.7933  0.3985  0.2765
 5481TIP3    H237935   3.440   3.506  15.647  1.3180  0.0800  0.3688
 5482TIP3   OH237936   1.928   6.052  12.638 -0.5055  0.2790 -0.3224
 5482TIP3    H137937   1.900   6.032  12.728 -1.1551  0.2324 -0.5252
 5482TIP3    H237938   1.896   5.978  12.586 -0.6394  0.5837 -0.6772
 5483TIP3   OH237939   0.284   6.314   3.010 -0.4246 -0.0702  0.2346
 5483TIP3    H137940   0.327   6.271   2.937  0.4387 -0.6971  1.0950
 5483TIP3    H237941   0.190   6.304   2.991 -0.2408  1.0017 -1.4669
 5484TIP3   OH237942   6.711   4.664   4.349  0.1108 -0.3784 -0.2086
 5484TIP3    H137943   6.771   4.737   4.359 -0.1959 -0.3459  1.8308
 5484TIP3    H237944   6.765   4.593   4.312  0.5583  0.6221 -1.5634
 5485TIP3   OH237945   5.119   1.273  15.786  0.6788 -0.2465  0.0480
 5485TIP3    H137946   5.104   1.366  15.768 -2.5704 -0.4956  0.7949
 5485TIP3    H237947   5.157   1.272  15.873 -1.9578  0.4100  1.3102
 5486TIP3   OH237948   6.452   4.026   1.566 -0.1192 -0.3053 -0.0460
 5486TIP3    H137949   6.429   3.936   1.586  1.0073 -0.5275  0.3500
 5486TIP3    H237950   6.543   4.022   1.536  0.7570  0.9015  2.1204
 5487TIP3   OH237951   5.063   4.235   4.025 -0.2501  0.7902  0.3139
 5487TIP3    H137952   5.047   4.153   4.072 -0.2338  0.1886 -0.6972
 5487TIP3    H237953   5.100   4.294   4.091  0.0361 -0.1169  0.9816
 5488TIP3   OH237954   3.050   5.045  12.148 -0.0352 -0.1850  0.4699
 5488TIP3    H137955   3.010   5.057  12.234 -0.5947  2.9651 -0.0995
 5488TIP3    H237956   3.018   5.119  12.097  1.8515 -0.8729 -1.8591
 5489TIP3   OH237957   6.277   1.980  15.419 -0.1631  0.2034 -0.3449
 5489TIP3    H137958   6.269   1.999  15.325 -3.2997  0.8419 -0.0254
 5489TIP3    H237959   6.188   1.961  15.448  0.3194  2.1255  2.9333
 5490TIP3   OH237960   4.419   3.073   1.975  0.4504 -0.3798 -0.4042
 5490TIP3    H137961   4.357   3.053   2.045 -1.4780  1.7800 -1.3476
 5490TIP3    H237962   4.450   2.988   1.945 -1.2318 -1.5075  0.8632
 5491TIP3   OH237963   5.858   2.455  11.876  0.2876 -0.2797 -0.4541
 5491TIP3    H137964   5.930   2.461  11.939  0.8588  0.4418 -1.1651
 5491TIP3    H237965   5.819   2.369  11.893  1.1129 -0.5476  0.1460
 5492TIP3   OH237966   5.482   0.152   5.869  0.4281 -0.0241  0.4528
 5492TIP3    H137967   5.551   0.201   5.914 -0.4301 -0.0605  1.8736
 5492TIP3    H237968   5.417   0.218   5.846 -0.5352 -0.3816  1.9972
 5493TIP3   OH237969   6.540   5.794  14.438  0.7153  0.6031 -0.4692
 5493TIP3    H137970   6.549   5.706  14.473  1.0680 -0.1474 -2.3561
 5493TIP3    H237971   6.515   5.782  14.347 -3.0258  2.4686  0.0946
 5494TIP3   OH237972   5.963   3.358   3.553 -0.1438  0.0641 -0.3221
 5494TIP3    H137973   5.894   3.324   3.496  0.1368  0.5329 -0.9628
 5494TIP3    H237974   6.034   3.294   3.546 -0.2319 -0.0428 -0.2439
 5495TIP3   OH237975   4.105   1.136  16.287 -0.4728  0.1762  0.4797
 5495TIP3    H137976   4.188   1.157  16.244 -0.1323  0.8684  1.4400
 5495TIP3    H237977   4.119   1.050  16.327  0.8186  1.4478  3.0331
 5496TIP3   OH237978   4.233   2.751  12.188  0.6000 -0.1061 -0.2561
 5496TIP3    H137979   4.237   2.659  12.216  2.5307  0.1057  0.3403
 5496TIP3    H237980   4.317   2.788  12.216  0.2005  1.6413 -1.2146
 5497TIP3   OH237981   5.774   2.675  13.910  0.2340  0.4919  0.4638
 5497TIP3    H137982   5.680   2.694  13.905  0.4901  1.6898  0.0053
 5497TIP3    H237983   5.781   2.612  13.982 -0.8970  0.5141  0.6230
 5498TIP3   OH237984   0.836   2.186  12.635  0.0674 -0.0826  0.1571
 5498TIP3    H137985   0.743   2.193  12.615  0.1272 -0.5124 -0.2689
 5498TIP3    H237986   0.879   2.244  12.572  0.1526 -0.5017 -0.1738
 5499TIP3   OH237987   6.497   4.151  14.893  0.7720  0.2614  0.4155
 5499TIP3    H137988   6.427   4.133  14.954 -1.2533  1.0593 -1.5332
 5499TIP3    H237989   6.526   4.065  14.863 -3.0443 -0.2515 -2.5680
 5500TIP3   OH237990   4.996   0.104   4.650 -0.1413  0.0301  0.2897
 5500TIP3    H137991   4.989   0.029   4.709 -0.6454  0.0184  0.2231
 5500TIP3    H237992   5.039   0.068   4.572  0.9837  0.1671  0.8423
 5501TIP3   OH237993   3.980   4.209  11.875 -0.3093 -0.9342  0.3154
 5501TIP3    H137994   4.013   4.131  11.920  0.6730 -0.6797  0.0588
 5501TIP3    H237995   3.914   4.244  11.934 -1.5916 -2.5784 -0.0657
 5502TIP3   OH237996   2.942   2.410  14.460  0.2374  0.4411 -0.0630
 5502TIP3    H137997   2.861   2.386  14.507  1.0909 -0.1565  1.1587
 5502TIP3    H237998   2.915   2.416  14.369 -1.6718  2.4251  0.5471
 5503TIP3   OH237999   4.278   1.527  13.552 -0.6302 -0.0111  0.2222
 5503TIP3    H138000   4.193   1.483  13.548 -0.0375 -1.3791  1.4535
 5503TIP3    H238001   4.309   1.509  13.640  0.9702  0.4104 -0.2325
 5504TIP3   OH238002   5.334   5.102  15.492 -0.6163 -0.1026  0.4006
 5504TIP3    H138003   5.259   5.067  15.539 -0.6603  0.0731  0.4618
 5504TIP3    H238004   5.311   5.093  15.400 -0.6391 -0.2087  0.4165
 5505TIP3   OH238005   0.792   6.473  13.268 -0.3499  0.1017 -0.4191
 5505TIP3    H138006   0.733   6.522  13.326  0.6471  0.4142  0.3422
 5505TIP3    H238007   0.737   6.403  13.232 -1.5821  1.2596 -0.8796
 5506TIP3   OH238008   5.900   2.387   3.805  0.2950 -0.0230 -0.3547
 5506TIP3    H138009   5.860   2.325   3.744 -1.3688  0.0673  0.5664
 5506TIP3    H238010   5.938   2.455   3.750 -0.8847 -0.1057 -1.3171
 5507TIP3   OH238011   4.016   4.690   2.831  0.1109 -0.1424  0.8575
 5507TIP3    H138012   4.093   4.711   2.883  0.4749  0.3463  0.1478
 5507TIP3    H238013   4.002   4.596   2.845  0.5543 -0.1374  1.3546
 5508TIP3   OH238014   1.189   5.022  11.580 -0.3846  0.1784  0.0477
 5508TIP3    H138015   1.138   5.066  11.512  0.2429  1.0770  0.1512
 5508TIP3    H238016   1.160   4.931  11.576 -0.6342  0.2944 -1.1594
 5509TIP3   OH238017   0.341   0.536  14.155 -0.5778 -0.5377 -0.0679
 5509TIP3    H138018   0.264   0.483  14.136 -1.3404  0.9664 -1.3614
 5509TIP3    H238019   0.406   0.508  14.091 -0.4492 -0.9465  0.2340
 5510TIP3   OH238020   3.419   0.187  15.089  0.3089  0.6511 -0.0366
 5510TIP3    H138021   3.422   0.102  15.044  0.3102  0.0000  1.1350
 5510TIP3    H238022   3.333   0.223  15.067 -0.3674 -0.4188  0.7537
 5511TIP3   OH238023   3.491   3.544   3.466  0.1646 -0.3031  0.2294
 5511TIP3    H138024   3.443   3.624   3.488 -1.1932 -0.3190 -2.3736
 5511TIP3    H238025   3.456   3.516   3.382  4.0539 -0.8686 -1.4335
 5512TIP3   OH238026   5.623   0.811   4.811 -0.5632 -0.2038  0.0141
 5512TIP3    H138027   5.560   0.882   4.821  0.3441  1.2246 -3.1095
 5512TIP3    H238028   5.571   0.738   4.778 -1.1480 -0.3569  1.2048
 5513TIP3   OH238029   6.186   1.165  12.149  1.1509  0.1759 -0.1410
 5513TIP3    H138030   6.143   1.206  12.074  0.2859  1.6441  1.1046
 5513TIP3    H238031   6.193   1.235  12.214 -0.3531 -1.5988  2.0927
 5514TIP3   OH238032   2.812   5.066  12.602 -0.4284 -0.6137  0.1389
 5514TIP3    H138033   2.758   5.141  12.625 -0.1725 -0.3997  0.0456
 5514TIP3    H238034   2.876   5.059  12.673  1.2921  0.9309 -1.1497
 5515TIP3   OH238035   3.686   5.850  13.553 -0.0199 -0.3349 -0.0102
 5515TIP3    H138036   3.772   5.884  13.577 -0.4105  1.3002 -0.7656
 5515TIP3    H238037   3.666   5.784  13.619 -0.3282  2.6971  3.1574
 5516TIP3   OH238038   3.286   2.843   1.350  0.0843 -0.0731  0.2074
 5516TIP3    H138039   3.349   2.838   1.278 -0.7331  0.1086 -0.5466
 5516TIP3    H238040   3.310   2.771   1.408 -0.8798 -2.0149 -1.6248
 5517TIP3   OH238041   4.619   0.377  15.079  0.3977  0.3299  0.3243
 5517TIP3    H138042   4.659   0.399  14.995 -2.4736  0.7893 -1.0461
 5517TIP3    H238043   4.622   0.458  15.130 -0.1179  0.7951 -0.3666
 5518TIP3   OH238044   3.254   3.957  15.339 -0.5569  0.4173 -0.2393
 5518TIP3    H138045   3.191   3.897  15.378  0.2987 -0.3836 -0.0545
 5518TIP3    H238046   3.235   4.041  15.380 -0.1360 -0.2591  1.4263
 5519TIP3   OH238047   6.073   0.459  13.164  0.4988  0.2522  0.2931
 5519TIP3    H138048   6.017   0.511  13.222  0.8452  0.0202  0.8420
 5519TIP3    H238049   6.162   0.486  13.186  0.9618 -2.8343  2.9374
 5520TIP3   OH238050   4.988   6.148   4.822 -0.0572 -0.0778  0.0182
 5520TIP3    H138051   4.903   6.107   4.804  1.0195 -1.6842 -1.8380
 5520TIP3    H238052   4.967   6.238   4.846 -2.3686 -0.8991  1.3656
 5521TIP3   OH238053   4.532   2.489  15.932 -0.1028 -0.2011  0.3151
 5521TIP3    H138054   4.505   2.569  15.888 -0.9248 -1.3675 -1.4006
 5521TIP3    H238055   4.569   2.435  15.863  0.7542 -1.1987  1.4978
 5522TIP3   OH238056   3.244   4.929  10.472  0.1018 -0.3992 -0.4280
 5522TIP3    H138057   3.193   4.947  10.394 -0.4369 -2.7197 -0.6912
 5522TIP3    H238058   3.180   4.897  10.536  0.9700 -2.0062 -0.3013
 5523TIP3   OH238059   1.685   4.054   5.622  0.1480  0.2068 -0.0357
 5523TIP3    H138060   1.730   4.017   5.698  1.2107 -0.3010 -0.8740
 5523TIP3    H238061   1.626   3.984   5.593  0.7911 -0.1432 -0.5159
 5524TIP3   OH238062   1.694   2.089   6.145  0.5127  0.3711  0.0628
 5524TIP3    H138063   1.639   2.149   6.195 -2.0882 -1.6107 -0.1765
 5524TIP3    H238064   1.747   2.044   6.211 -1.0099 -0.3931  0.8004
 5525TIP3   OH238065   5.479   0.030  16.075  0.1348  0.2984 -0.4469
 5525TIP3    H138066   5.445   0.100  16.131 -2.0518 -1.3838  0.4800
 5525TIP3    H238067   5.421   0.030  15.999  2.1122  1.5169 -2.0590
 5526TIP3   OH238068   1.152   1.451  16.394  0.0334 -0.3370  0.0123
 5526TIP3    H138069   1.182   1.542  16.396  1.1460 -0.6752 -0.7179
 5526TIP3    H238070   1.129   1.432  16.485  1.6410  0.0920  0.5473
 5527TIP3   OH238071   2.206   2.868   0.640  0.7334  0.5809  0.3203
 5527TIP3    H138072   2.239   2.815   0.568  1.1134  1.0301  0.1589
 5527TIP3    H238073   2.284   2.900   0.685  0.5024  0.4856  0.8060
 5528TIP3   OH238074   2.878   6.580   0.769 -0.5700  0.5472  0.2027
 5528TIP3    H138075   2.865   6.655   0.828  1.0765 -0.0646  1.4269
 5528TIP3    H238076   2.833   6.605   0.689 -2.1359  1.8073  1.3889
 5529TIP3   OH238077   1.200   2.349  11.760 -0.0588 -0.2162 -0.6190
 5529TIP3    H138078   1.136   2.298  11.711 -0.8127 -0.0063  0.1328
 5529TIP3    H238079   1.200   2.310  11.848  0.0787  0.4516 -0.3170
 5530TIP3   OH238080   3.529   4.406   0.007  0.2449  0.5240 -0.0097
 5530TIP3    H138081   3.597   4.429  -0.056 -0.0114 -0.5540 -0.7086
 5530TIP3    H238082   3.447   4.435  -0.033  0.0243 -0.6419 -0.4566
 5531TIP3   OH238083   1.738   6.128  15.558  0.3049 -0.3460  0.2434
 5531TIP3    H138084   1.700   6.192  15.617 -0.6379  0.2624 -0.9776
 5531TIP3    H238085   1.743   6.047  15.609 -1.6591 -0.1679  0.7781
 5532TIP3   OH238086   1.984   1.987  15.750 -0.0345 -0.2457  0.1513
 5532TIP3    H138087   2.045   1.964  15.680 -0.4271  0.9730 -0.6258
 5532TIP3    H238088   1.898   1.961  15.717  0.1045 -3.4629  1.8893
 5533TIP3   OH238089   1.909   6.494   0.264 -0.1696 -0.3280 -0.3346
 5533TIP3    H138090   1.942   6.559   0.201 -1.4339 -0.3735 -1.1033
 5533TIP3    H238091   1.841   6.541   0.313 -1.8182 -1.2802 -1.5878
 5534TIP3   OH238092   0.702   5.676  13.654  0.0617 -0.4137 -0.0518
 5534TIP3    H138093   0.797   5.685  13.649  0.0671 -0.7860 -0.7491
 5534TIP3    H238094   0.668   5.761  13.624  0.1701  0.0364  1.0499
 5535TIP3   OH238095   4.961   4.981   2.122  0.2983  0.7187  0.0623
 5535TIP3    H138096   5.047   5.022   2.112  0.5532  0.2868  0.4297
 5535TIP3    H238097   4.910   5.044   2.173  0.1896  1.2545 -0.6918
 5536TIP3   OH238098   4.126   0.876  16.466 -0.3245  0.2073 -0.0831
 5536TIP3    H138099   4.213   0.850  16.436 -0.3300  0.4133 -0.2765
 5536TIP3    H238100   4.138   0.904  16.556 -0.1936  0.2079 -0.1010
 5537TIP3   OH238101   3.073   0.676  10.636  0.5218  0.0657  0.2363
 5537TIP3    H138102   2.990   0.699  10.595  0.2804 -0.4689  0.4185
 5537TIP3    H238103   3.138   0.687  10.567  0.3118  0.5271  0.1041
 5538TIP3   OH238104   2.752   6.302   2.093  0.4586  0.0201 -0.3213
 5538TIP3    H138105   2.699   6.354   2.033 -1.3476 -0.0835  1.0713
 5538TIP3    H238106   2.824   6.269   2.040  0.7562  2.5225 -1.6553
 5539TIP3   OH238107   1.746   0.940   1.558  0.6914 -0.6786 -0.3639
 5539TIP3    H138108   1.780   0.872   1.501  1.1190 -2.0665  1.4495
 5539TIP3    H238109   1.688   0.894   1.619 -0.6845  0.9121 -0.3783
 5540TIP3   OH238110   5.919   3.688   1.659 -0.4531 -0.5114 -0.1612
 5540TIP3    H138111   5.941   3.632   1.584  3.0146  1.0256 -0.4898
 5540TIP3    H238112   5.940   3.635   1.736 -0.7132 -0.9176 -0.3700
 5541TIP3   OH238113   2.841   4.763   3.852  1.0923  0.0273 -0.0613
 5541TIP3    H138114   2.923   4.761   3.802  0.9975  0.4017 -0.2380
 5541TIP3    H238115   2.818   4.856   3.855  0.7600 -0.0622  0.1282
 5542TIP3   OH238116   1.222   1.441   0.564  0.9051  0.1534  0.0213
 5542TIP3    H138117   1.272   1.386   0.625 -0.2736  1.0841  1.9274
 5542TIP3    H238118   1.136   1.450   0.605  0.4944  1.9370 -1.1247
 5543TIP3   OH238119   3.607   0.375   3.924  0.0142  0.1075 -0.9369
 5543TIP3    H138120   3.610   0.393   4.018  1.3783 -0.0118 -0.9372
 5543TIP3    H238121   3.656   0.447   3.884  1.5465 -1.0990 -1.3251
 5544TIP3   OH238122   1.050   2.135   3.919  0.0058 -0.0755  0.4945
 5544TIP3    H138123   1.137   2.154   3.954  0.4458 -1.9939  0.5994
 5544TIP3    H238124   1.061   2.050   3.875 -1.1982  0.8954 -1.8173
 5545TIP3   OH238125   2.113   3.795   3.665 -0.1649 -0.4336 -0.5081
 5545TIP3    H138126   2.111   3.738   3.589 -0.1791  0.3039 -1.0673
 5545TIP3    H238127   2.060   3.749   3.731  1.0344 -1.7672 -0.4200
 5546TIP3   OH238128   6.316   6.645  15.247  0.7989 -0.2899  0.1269
 5546TIP3    H138129   6.320   6.733  15.285  0.8402 -0.2036 -0.0729
 5546TIP3    H238130   6.354   6.588  15.314  1.0239 -0.1171  0.1497
 5547TIP3   OH238131   1.371   4.193  16.355 -0.0621  0.1757  0.7017
 5547TIP3    H138132   1.305   4.250  16.315  0.7326  0.3457 -0.4202
 5547TIP3    H238133   1.418   4.250  16.416  0.6559  0.7128 -0.3294
 5548TIP3   OH238134   4.734   4.023  16.169 -0.2615 -0.3216  0.0237
 5548TIP3    H138135   4.781   3.976  16.100 -0.5524 -1.4056  0.5402
 5548TIP3    H238136   4.643   4.020  16.143 -0.0939  1.9729 -1.0857
 5549TIP3   OH238137   6.796   1.121   3.619  0.1593  0.2422  0.2242
 5549TIP3    H138138   6.742   1.171   3.557  1.4301  1.7606  0.2824
 5549TIP3    H238139   6.794   1.173   3.700  0.0630 -0.7352  0.8634
 5550TIP3   OH238140   1.195   1.683  12.896  0.1837  0.1954 -0.3574
 5550TIP3    H138141   1.271   1.729  12.930  0.2171  0.7529 -1.1586
 5550TIP3    H238142   1.196   1.701  12.802 -0.9791  0.2630 -0.3691
 5551TIP3   OH238143   1.348   2.764   1.222 -0.5251 -0.3488 -0.2096
 5551TIP3    H138144   1.294   2.828   1.269 -0.7599 -1.5585  1.2455
 5551TIP3    H238145   1.388   2.814   1.151 -3.6686  0.5813 -1.4782
 5552TIP3   OH238146   1.732   4.173  12.573 -0.3275 -0.4415  0.3813
 5552TIP3    H138147   1.705   4.174  12.664 -1.4403 -2.0850  0.1234
 5552TIP3    H238148   1.823   4.143  12.575  0.4447  1.8119  1.0597
 5553TIP3   OH238149   5.714   6.600  11.482 -0.0549  0.6565  0.2336
 5553TIP3    H138150   5.775   6.541  11.439 -0.5386 -1.0352  1.7661
 5553TIP3    H238151   5.666   6.545  11.544 -1.8971  2.2784  0.3433
 5554TIP3   OH238152   0.022   1.865   0.764  0.2588  0.0010  0.0745
 5554TIP3    H138153   0.039   1.782   0.721 -1.3572 -0.7255  0.7654
 5554TIP3    H238154   0.071   1.929   0.713 -0.8835 -0.9379 -2.3182
 5555TIP3   OH238155   5.698   5.552   2.155  0.4653  0.4138 -0.9479
 5555TIP3    H138156   5.618   5.573   2.201  1.4792  1.4959  0.3831
 5555TIP3    H238157   5.681   5.576   2.064 -0.8426  0.2172 -0.7628
 5556TIP3   OH238158   1.844   3.606   3.774  0.4719  0.6934 -0.1295
 5556TIP3    H138159   1.879   3.517   3.781  0.4191  0.5385 -1.5172
 5556TIP3    H238160   1.855   3.643   3.861 -0.1664 -0.9171  0.6950
 5557TIP3   OH238161   3.825   6.191  13.547  0.1957  0.3133 -0.0060
 5557TIP3    H138162   3.915   6.166  13.568  0.0575  0.7782  1.2184
 5557TIP3    H238163   3.807   6.266  13.604 -1.4218 -0.6377  0.7941
 5558TIP3   OH238164   5.323   5.670  12.387  0.4910  0.0439  0.4775
 5558TIP3    H138165   5.312   5.584  12.428  1.7223  0.0050  0.7746
 5558TIP3    H238166   5.314   5.654  12.293  0.6983 -0.4116  0.5346
 5559TIP3   OH238167   0.020   3.601   4.416 -0.5447 -0.4225  0.4578
 5559TIP3    H138168  -0.059   3.652   4.396 -0.9487 -1.0648  0.3849
 5559TIP3    H238169   0.047   3.631   4.503 -0.1334  0.7056 -0.0431
 5560TIP3   OH238170   4.372   4.319   5.265 -0.0876 -0.0060  0.2181
 5560TIP3    H138171   4.443   4.274   5.311 -0.5199 -1.8365 -0.7787
 5560TIP3    H238172   4.362   4.402   5.310  1.8981 -0.2025  1.1159
 5561TIP3   OH238173   1.644   2.594   2.029 -0.3827  0.2150  0.6843
 5561TIP3    H138174   1.648   2.525   1.963  1.0783  1.5110 -0.6761
 5561TIP3    H238175   1.557   2.632   2.020 -0.1286  0.5366 -0.7396
 5562TIP3   OH238176   4.878   0.587  11.313 -0.0369  0.5260  0.1398
 5562TIP3    H138177   4.788   0.577  11.283  0.5329  0.7552 -1.7299
 5562TIP3    H238178   4.881   0.675  11.350 -0.4017  0.8134 -0.4977
 5563TIP3   OH238179   2.432   4.976   5.323  0.2992 -0.2348  0.4619
 5563TIP3    H138180   2.508   5.032   5.340  0.5674 -0.9780  1.9098
 5563TIP3    H238181   2.436   4.958   5.229  0.8436  1.2279  0.1803
 5564TIP3   OH238182   1.301   6.058   4.581 -0.4803  0.0641  0.1016
 5564TIP3    H138183   1.319   5.973   4.622 -2.8312  0.4274  2.1137
 5564TIP3    H238184   1.310   6.121   4.653  0.5079  1.4848 -1.2020
 5565TIP3   OH238185   3.830   5.931   2.318 -0.1068  0.0740  0.5920
 5565TIP3    H138186   3.765   5.955   2.252 -0.5080  0.4322  1.1095
 5565TIP3    H238187   3.810   5.987   2.393  2.1473  1.8088  0.0111
 5566TIP3   OH238188   0.680   3.285  11.371 -0.4139  0.1155  0.1840
 5566TIP3    H138189   0.768   3.247  11.372  0.8152  2.7214 -0.7139
 5566TIP3    H238190   0.684   3.356  11.435 -2.3092 -0.5158  1.0675
 5567TIP3   OH238191   5.877   4.145  15.291 -0.5578  0.0388  0.4249
 5567TIP3    H138192   5.959   4.163  15.337  0.1660 -1.0315 -0.3795
 5567TIP3    H238193   5.835   4.076  15.344 -0.9964  0.6482  0.8844
 5568TIP3   OH238194   6.202   0.116  16.710  0.5165 -0.2020 -0.2424
 5568TIP3    H138195   6.226   0.109  16.803  0.3050 -1.5038 -0.2726
 5568TIP3    H238196   6.206   0.210  16.692  0.2390  0.1097  1.1694
 5569TIP3   OH238197   0.306   2.579  15.114 -0.7688  0.1175  0.3459
 5569TIP3    H138198   0.224   2.560  15.068 -0.8910 -0.5937  0.8356
 5569TIP3    H238199   0.372   2.531  15.065 -0.8099 -0.1720  0.5735
 5570TIP3   OH238200   0.866   3.827  15.830  0.1412  0.4063 -0.3224
 5570TIP3    H138201   0.904   3.748  15.869  1.3181  0.9969 -0.2329
 5570TIP3    H238202   0.832   3.876  15.905 -1.3675 -0.3775 -0.4490
 5571TIP3   OH238203   3.905   2.988   1.350 -0.0986  0.5814 -0.1614
 5571TIP3    H138204   3.973   2.924   1.372  0.9689  1.9550  0.8012
 5571TIP3    H238205   3.878   2.965   1.262  0.0184 -1.3567  0.2534
 5572TIP3   OH238206   0.290   4.624   6.202 -0.1204 -0.2749 -0.2568
 5572TIP3    H138207   0.227   4.620   6.274  0.8078  0.0688  0.5985
 5572TIP3    H238208   0.368   4.579   6.236 -0.2742 -1.7654 -1.7185
 5573TIP3   OH238209   0.049   2.742  14.724 -0.1580 -0.2368 -0.2151
 5573TIP3    H138210   0.030   2.720  14.815 -0.9140 -0.8113 -0.4957
 5573TIP3    H238211  -0.002   2.822  14.708  1.0845  0.6753  0.2568
 5574TIP3   OH238212   3.436   4.514  13.462  0.6626  0.3083 -0.3023
 5574TIP3    H138213   3.486   4.554  13.390  0.8160  0.0600 -0.3326
 5574TIP3    H238214   3.495   4.515  13.537  0.0631  1.7674  0.1901
 5575TIP3   OH238215   1.412   4.929   5.594 -0.1378  0.0102  0.3645
 5575TIP3    H138216   1.501   4.953   5.571  0.2547 -0.4256  1.3691
 5575TIP3    H238217   1.410   4.931   5.690 -1.2706  0.2401  0.3597
 5576TIP3   OH238218   2.674   5.946  14.913 -0.4950 -0.0622  0.0852
 5576TIP3    H138219   2.768   5.943  14.930 -0.6637  1.6108  1.5944
 5576TIP3    H238220   2.639   6.000  14.983 -2.0890  2.4093 -2.4278
 5577TIP3   OH238221   6.157   4.146   4.241 -0.0478 -0.4975  0.0416
 5577TIP3    H138222   6.064   4.167   4.243 -0.4077 -1.9869  1.5029
 5577TIP3    H238223   6.171   4.104   4.156 -0.8810 -0.9545  0.1250
 5578TIP3   OH238224   5.540   0.754  14.739 -0.1105 -0.0906  0.1444
 5578TIP3    H138225   5.552   0.826  14.801  1.2985 -1.5784  1.7177
 5578TIP3    H238226   5.490   0.689  14.788  0.6811 -1.1324 -0.3759
 5579TIP3   OH238227   0.121   0.871   5.952 -0.3056 -0.3001  0.0344
 5579TIP3    H138228   0.105   0.956   5.992  1.0925 -1.2492  2.8399
 5579TIP3    H238229   0.207   0.879   5.912  1.1499 -1.1166  2.7847
 5580TIP3   OH238230   3.658   2.101  15.327 -0.2143 -0.3750  0.3806
 5580TIP3    H138231   3.615   2.134  15.406  2.1857  0.5394  1.4061
 5580TIP3    H238232   3.683   2.180  15.279  1.4089 -0.7856  0.4891
 5581TIP3   OH238233   0.163   3.007   5.537 -0.0136 -0.1022 -0.2090
 5581TIP3    H138234   0.110   3.074   5.494 -0.1476  0.0335  0.1615
 5581TIP3    H238235   0.225   2.978   5.470 -1.7253 -1.5982 -1.2697
 5582TIP3   OH238236   0.458   4.489   4.657  0.3858 -0.3766  0.1139
 5582TIP3    H138237   0.439   4.577   4.626  0.3644  0.2981  1.8885
 5582TIP3    H238238   0.461   4.498   4.753  1.3842 -2.1058  0.2827
 5583TIP3   OH238239   3.131   5.456   0.756 -0.3855  0.4860  0.3027
 5583TIP3    H138240   3.196   5.388   0.738 -0.3134 -0.0286  2.1901
 5583TIP3    H238241   3.181   5.537   0.759  0.3969  0.0073  2.4577
 5584TIP3   OH238242   2.064   3.684   0.941 -0.3297 -0.3910 -0.5023
 5584TIP3    H138243   2.043   3.682   0.848 -1.0625  1.8434 -0.4206
 5584TIP3    H238244   2.143   3.737   0.947 -1.4750  1.2941  0.3163
 5585TIP3   OH238245   2.793   4.892   4.325 -0.3381  0.5709 -0.0856
 5585TIP3    H138246   2.862   4.911   4.261  0.3858 -0.4921  0.3299
 5585TIP3    H238247   2.784   4.973   4.375  0.4421  0.8195 -0.3217
 5586TIP3   OH238248   1.623   1.662   1.719  0.3950 -0.4964  0.2689
 5586TIP3    H138249   1.666   1.629   1.797 -0.7724 -0.7686  0.8201
 5586TIP3    H238250   1.557   1.596   1.698  0.6878 -0.4363 -0.9650
 5587TIP3   OH238251   3.100   4.692   5.482 -0.5444 -0.1738 -0.0327
 5587TIP3    H138252   3.025   4.717   5.536  1.0712  0.9992  1.8217
 5587TIP3    H238253   3.172   4.744   5.517  1.0779 -1.0298 -1.9463
 5588TIP3   OH238254   2.489   4.771  13.649  0.2956 -0.0143  0.1023
 5588TIP3    H138255   2.553   4.839  13.629 -1.1023  0.8810 -1.5136
 5588TIP3    H238256   2.539   4.689  13.642  1.5208  0.7093  0.0513
 5589TIP3   OH238257   5.513   3.933   0.242 -0.1881 -0.3191 -0.5685
 5589TIP3    H138258   5.522   4.028   0.249 -0.6503 -0.3926  2.4295
 5589TIP3    H238259   5.600   3.902   0.218 -0.0388  0.8305 -1.6107
 5590TIP3   OH238260   1.153   1.491  14.662 -0.5913 -0.8821  0.1152
 5590TIP3    H138261   1.102   1.489  14.581 -1.6785 -0.7558  0.7640
 5590TIP3    H238262   1.149   1.582  14.690 -3.8689 -1.5407  2.4430
 5591TIP3   OH238263   3.136   2.304   0.747 -0.0577  0.4990  0.3371
 5591TIP3    H138264   3.099   2.318   0.660 -0.6884 -0.9109  0.3581
 5591TIP3    H238265   3.119   2.212   0.766 -0.9036  1.0333  2.4144
 5592TIP3   OH238266   0.959   3.775   3.075  0.4622 -0.2619 -0.1363
 5592TIP3    H138267   0.939   3.868   3.068  0.5686 -0.3150 -1.4345
 5592TIP3    H238268   0.941   3.740   2.987  3.3089 -0.8761 -0.5895
 5593TIP3   OH238269   4.856   6.237   3.755  0.6104 -0.2641 -0.2940
 5593TIP3    H138270   4.810   6.200   3.830  2.4473 -2.5226 -0.1661
 5593TIP3    H238271   4.787   6.255   3.691 -0.7113 -0.9203  0.8952
 5594TIP3   OH238272   3.317   6.831  11.578 -0.0214 -0.3016  0.1144
 5594TIP3    H138273   3.296   6.836  11.484 -0.7888 -0.6884  0.2581
 5594TIP3    H238274   3.410   6.806  11.580  0.3431  0.9201 -0.5364
 5595TIP3   OH238275   5.872   6.518  12.503  1.0108 -0.2141 -0.3766
 5595TIP3    H138276   5.794   6.467  12.480  2.1717 -2.5772  0.6298
 5595TIP3    H238277   5.851   6.559  12.587  0.6729 -0.4473 -0.3478
 5596TIP3   OH238278   2.131   1.086  15.800  0.0025 -0.3250  0.7230
 5596TIP3    H138279   2.037   1.100  15.789 -0.0619 -1.2204 -0.0044
 5596TIP3    H238280   2.159   1.156  15.859 -0.4935  2.1042 -1.7131
 5597TIP3   OH238281   2.283   2.699   2.160  0.4063 -0.3791  0.2646
 5597TIP3    H138282   2.282   2.646   2.081  0.8929 -1.1934  0.7960
 5597TIP3    H238283   2.208   2.759   2.150  1.2140  0.4187 -1.3861
 5598TIP3   OH238284   0.217   5.027  14.046  0.7015 -0.0226  0.3377
 5598TIP3    H138285   0.225   5.116  14.012  1.1743 -0.8519 -1.8857
 5598TIP3    H238286   0.276   5.024  14.122 -0.8146  2.0577  1.7013
 5599TIP3   OH238287   5.267   2.225   5.072 -0.3293 -0.5792 -0.2795
 5599TIP3    H138288   5.346   2.204   5.022  0.9080  0.8872  0.9263
 5599TIP3    H238289   5.238   2.140   5.106  0.4478 -1.2191 -1.1458
 5600TIP3   OH238290   5.307   0.798   4.955 -0.4846 -0.3202  0.3353
 5600TIP3    H138291   5.367   0.766   5.023  0.8728  0.6537 -0.3381
 5600TIP3    H238292   5.295   0.723   4.897  0.6879 -0.3518  0.1000
 5601TIP3   OH238293   4.518   5.673  10.972 -0.1565 -0.3150 -0.3493
 5601TIP3    H138294   4.439   5.620  10.973  0.3093 -1.0228 -0.0043
 5601TIP3    H238295   4.577   5.627  10.912 -0.8602  1.5163 -2.5652
 5602TIP3   OH238296   3.047   1.234   6.070 -0.2361 -0.1682 -0.2262
 5602TIP3    H138297   3.046   1.168   6.001  1.5994  1.5761 -2.0528
 5602TIP3    H238298   2.959   1.274   6.066  0.0495  0.3545 -2.0744
 5603TIP3   OH238299   4.622   2.597  14.916  0.1304  0.0461 -0.1783
 5603TIP3    H138300   4.651   2.578  15.006  1.2316  3.3630  0.2944
 5603TIP3    H238301   4.655   2.523  14.865  2.4431 -0.3463  1.6639
 5604TIP3   OH238302   4.083   2.105   1.224 -1.0963  0.0846 -0.7301
 5604TIP3    H138303   4.069   2.012   1.240  0.3820 -0.2797 -1.3706
 5604TIP3    H238304   4.174   2.111   1.196 -0.6869  1.9035  0.7548
 5605TIP3   OH238305   6.010   5.339  12.645 -0.5568  0.4103 -0.0424
 5605TIP3    H138306   6.010   5.432  12.666  3.2860  0.1909  1.9491
 5605TIP3    H238307   5.989   5.296  12.727  1.2994 -0.4396  0.0316
 5606TIP3   OH238308   1.318   4.831   1.432 -0.5156 -0.8633  0.2184
 5606TIP3    H138309   1.381   4.787   1.488 -1.0602 -3.7903 -1.2189
 5606TIP3    H238310   1.368   4.899   1.387  0.6011 -0.4608  1.9879
 5607TIP3   OH238311   3.459   6.096  13.859 -0.7760 -0.1236  1.2524
 5607TIP3    H138312   3.473   6.151  13.783 -1.8580 -1.9705 -0.3678
 5607TIP3    H238313   3.546   6.061  13.879 -0.4271  0.6332  1.0872
 5608TIP3   OH238314   4.774   3.319   4.233 -0.4015 -0.4851 -0.4569
 5608TIP3    H138315   4.720   3.393   4.205 -0.3933 -0.8522 -1.4543
 5608TIP3    H238316   4.860   3.336   4.197 -0.2395 -0.6808 -0.1709
 5609TIP3   OH238317   1.014   1.672  16.023  0.4400 -0.4833 -0.1436
 5609TIP3    H138318   1.015   1.586  15.982  1.5809  0.2207 -1.6713
 5609TIP3    H238319   1.005   1.733  15.950  1.6026  0.7723  0.7282
 5610TIP3   OH238320   1.243   0.203   0.623  0.2927 -0.2790  0.1393
 5610TIP3    H138321   1.221   0.129   0.679  0.0474 -0.1395  0.2333
 5610TIP3    H238322   1.315   0.172   0.569  0.7952 -0.2942  0.7987
 5611TIP3   OH238323   3.481   0.266  13.317 -0.1563 -0.0881 -0.1694
 5611TIP3    H138324   3.508   0.174  13.327 -0.0064  0.0510  0.7756
 5611TIP3    H238325   3.387   0.265  13.331 -0.5303 -0.4001 -2.3253
 5612TIP3   OH238326   1.343   1.265   0.759  0.6079 -0.3773 -0.1603
 5612TIP3    H138327   1.281   1.221   0.818  1.5788  0.0478  1.2265
 5612TIP3    H238328   1.416   1.203   0.752  0.4393 -0.4832 -1.0516
 5613TIP3   OH238329   4.180   2.650   0.671 -0.2513 -0.2504 -0.2484
 5613TIP3    H138330   4.231   2.570   0.686 -0.1467 -0.4165 -1.4207
 5613TIP3    H238331   4.234   2.702   0.612 -0.0612  0.9622  0.9506
 5614TIP3   OH238332   6.332   2.663   4.493  0.9907  0.1237 -0.1017
 5614TIP3    H138333   6.313   2.577   4.455 -0.8617  0.4259  0.0489
 5614TIP3    H238334   6.407   2.648   4.550  1.4709 -1.1233 -1.0283
 5615TIP3   OH238335   5.878   0.666   4.196  0.3554 -0.2602 -0.3920
 5615TIP3    H138336   5.866   0.759   4.179 -1.5239 -0.5586 -0.9379
 5615TIP3    H238337   5.954   0.641   4.144  0.5282  0.8514 -0.6917
 5616TIP3   OH238338   1.331   3.338   3.553  0.4826 -0.4701  0.1217
 5616TIP3    H138339   1.280   3.258   3.563 -1.9346  1.0834  1.1137
 5616TIP3    H238340   1.356   3.362   3.642 -0.7968  1.0314  0.1162
 5617TIP3   OH238341   2.485   2.541  15.490 -0.0427 -0.1772 -0.2802
 5617TIP3    H138342   2.465   2.525  15.582  2.3012  2.0497  0.7460
 5617TIP3    H238343   2.432   2.617  15.467  0.7235  0.4070 -0.1641
 5618TIP3   OH238344   1.793   0.439  13.129 -0.0240  0.4820  0.2936
 5618TIP3    H138345   1.797   0.496  13.206 -0.4445  1.0218 -0.0809
 5618TIP3    H238346   1.794   0.499  13.055  0.3879 -0.0372 -0.1277
 5619TIP3   OH238347   6.086   5.408  17.011  0.1477  0.4177 -0.1434
 5619TIP3    H138348   6.140   5.387  17.087  0.2897 -0.4448 -0.4644
 5619TIP3    H238349   5.998   5.381  17.037  0.5689 -2.2372 -1.1110
 5620TIP3   OH238350   6.758   6.387   4.534 -0.5919 -0.0048  0.6074
 5620TIP3    H138351   6.802   6.460   4.578 -1.2525  1.0858 -0.4667
 5620TIP3    H238352   6.677   6.424   4.500 -1.5919 -1.5848  1.1453
 5621TIP3   OH238353   2.695   1.448  15.624  0.3109 -0.1413  0.0929
 5621TIP3    H138354   2.651   1.441  15.709 -0.8139 -0.2322 -0.4654
 5621TIP3    H238355   2.682   1.539  15.598  0.6547 -0.1127  0.0199
 5622TIP3   OH238356   4.345   3.574  11.774 -0.2856  0.1580 -0.2049
 5622TIP3    H138357   4.281   3.588  11.844  1.1436 -0.0470  1.2242
 5622TIP3    H238358   4.415   3.637  11.793  0.2886 -0.1321 -1.2809
 5623TIP3   OH238359   1.353   5.740  16.122  0.1305 -0.0944 -0.7736
 5623TIP3    H138360   1.271   5.695  16.103 -0.5204  0.0447  1.3533
 5623TIP3    H238361   1.362   5.805  16.052 -2.4603  0.9918 -0.2344
 5624TIP3   OH238362   3.467   1.890  15.592  0.2005 -0.2639  0.4843
 5624TIP3    H138363   3.534   1.867  15.528 -0.8976 -2.1890 -0.0549
 5624TIP3    H238364   3.510   1.954  15.649  1.9141 -0.1398 -0.8382
 5625TIP3   OH238365   3.738   4.255   1.077  0.0438  0.1584  0.1944
 5625TIP3    H138366   3.817   4.294   1.040 -1.1615  2.5131 -0.0447
 5625TIP3    H238367   3.770   4.179   1.126  2.2522  0.0507 -1.2524
 5626TIP3   OH238368   0.313   6.468   1.260  0.1183 -0.2195 -0.1485
 5626TIP3    H138369   0.278   6.551   1.292 -2.2372 -1.6226  1.2192
 5626TIP3    H238370   0.294   6.468   1.167 -0.5650  0.4929 -0.0189
 5627TIP3   OH238371   1.485   3.293   5.518  0.4249 -0.1784  0.1447
 5627TIP3    H138372   1.401   3.270   5.478  0.5331 -2.3582  1.0682
 5627TIP3    H238373   1.466   3.374   5.567  0.0961  2.1185 -3.4328
 5628TIP3   OH238374   0.515   4.229  17.009 -0.3489  0.5263 -0.2474
 5628TIP3    H138375   0.543   4.248  16.919  0.1517 -1.2839 -0.4998
 5628TIP3    H238376   0.593   4.245  17.062  0.8455 -2.9493 -0.7570
 5629TIP3   OH238377   3.176   4.452   1.249 -0.5864 -0.1297  0.8211
 5629TIP3    H138378   3.097   4.502   1.267 -0.4867  0.6150 -0.6411
 5629TIP3    H238379   3.246   4.517   1.248 -0.2860 -0.4519 -0.0050
 5630TIP3   OH238380   2.079   0.395  11.614  0.1147  0.6987 -0.5369
 5630TIP3    H138381   1.997   0.400  11.664 -1.0870  0.7048 -2.3913
 5630TIP3    H238382   2.127   0.474  11.638  0.2372  0.0494  1.5845
 5631TIP3   OH238383   3.581   1.134  14.269  0.7868 -0.7159 -0.0240
 5631TIP3    H138384   3.649   1.157  14.205 -1.2744  1.4158 -1.6539
 5631TIP3    H238385   3.557   1.218  14.309  2.3865 -2.0291  4.1771
 5632TIP3   OH238386   6.417   4.275   0.834  0.2909 -0.4120 -0.2238
 5632TIP3    H138387   6.447   4.232   0.914 -0.3423 -0.0660  0.1990
 5632TIP3    H238388   6.341   4.326   0.860 -0.5777 -1.1202 -1.2440
 5633TIP3   OH238389   6.047   1.070  16.204  0.9081  0.0422 -0.0658
 5633TIP3    H138390   6.119   1.008  16.194  1.0270  0.2427 -0.4865
 5633TIP3    H238391   5.973   1.028  16.159  1.3730  0.8256 -1.6579
 5634TIP3   OH238392   2.152   1.748   2.489  0.6260 -0.1366  0.5828
 5634TIP3    H138393   2.115   1.834   2.511 -0.7204 -0.0711 -1.6327
 5634TIP3    H238394   2.143   1.697   2.570 -0.3085  1.2413  1.3930
 5635TIP3   OH238395   1.231   0.206   2.361  0.2690  0.5971  0.4848
 5635TIP3    H138396   1.144   0.245   2.354 -0.0102  0.0067  0.5724
 5635TIP3    H238397   1.289   0.279   2.382 -0.5961  0.6641  3.0157
 5636TIP3   OH238398   5.195   0.405  14.097 -0.1415  0.5287 -0.1987
 5636TIP3    H138399   5.251   0.456  14.156  1.6295 -0.7437 -0.6927
 5636TIP3    H238400   5.251   0.333  14.068 -1.8512 -0.4143 -1.2872
 5637TIP3   OH238401   3.337   0.276   3.930  0.2414  0.6938  0.0371
 5637TIP3    H138402   3.426   0.309   3.920  0.7790 -0.6256  0.2058
 5637TIP3    H238403   3.292   0.341   3.984  1.4049  0.8591  0.8233
 5638TIP3   OH238404   0.805   6.531  17.045 -0.1021  0.0082  0.3944
 5638TIP3    H138405   0.775   6.513  16.956 -1.6862  1.7505  0.4944
 5638TIP3    H238406   0.725   6.527  17.098  0.4712  1.0065  1.3740
 5639TIP3   OH238407   6.327   0.027   1.996  0.2984 -0.2288 -0.4391
 5639TIP3    H138408   6.319   0.034   2.092 -0.4051 -0.2141 -0.4946
 5639TIP3    H238409   6.417   0.053   1.978  0.3079  0.2050  0.1800
 5640TIP3   OH238410   4.852   1.410  12.191 -0.3284 -0.4052 -0.6419
 5640TIP3    H138411   4.828   1.318  12.181  1.5505 -0.9399 -0.4603
 5640TIP3    H238412   4.942   1.415  12.160  0.6974  0.7504  2.2280
 5641TIP3   OH238413   3.703   4.089   2.389  0.2477  0.4209  0.1327
 5641TIP3    H138414   3.726   4.179   2.413  2.4716 -0.1252  0.2765
 5641TIP3    H238415   3.771   4.063   2.326 -1.0556 -0.7755 -0.8387
 5642TIP3   OH238416   5.253   0.076  16.703 -0.3462  0.4615  0.0398
 5642TIP3    H138417   5.210   0.041  16.781  0.0994  0.4941  0.3042
 5642TIP3    H238418   5.311   0.145  16.736  0.9677 -0.5105 -0.1267
 5643TIP3   OH238419   6.401   2.069  12.993 -0.3114 -0.3605  0.1623
 5643TIP3    H138420   6.473   2.109  12.944  0.2631 -1.1907  0.3061
 5643TIP3    H238421   6.367   2.140  13.047 -0.0875  0.2331 -0.4563
 5644TIP3   OH238422   2.780   0.431  12.107  0.0226  0.2007  0.0075
 5644TIP3    H138423   2.694   0.455  12.073 -0.5218 -2.6457 -0.9485
 5644TIP3    H238424   2.834   0.420  12.028  0.2546 -1.3108  0.3439
 5645TIP3   OH238425   2.742   5.549   4.121  0.2136 -0.9435  0.5917
 5645TIP3    H138426   2.800   5.514   4.188  1.3636  0.9172  0.6446
 5645TIP3    H238427   2.765   5.642   4.115 -1.3458 -0.5922 -0.8628
 5646TIP3   OH238428   2.863   4.581  12.027 -0.0743  0.6591  0.3224
 5646TIP3    H138429   2.937   4.641  12.036  0.2806  0.2746 -0.0050
 5646TIP3    H238430   2.902   4.494  12.035  0.0314  0.2783 -2.9241
 5647TIP3   OH238431   4.130   4.258   2.810  0.3089 -0.0341  0.2511
 5647TIP3    H138432   4.160   4.288   2.896  0.1036  1.9802 -0.3510
 5647TIP3    H238433   4.211   4.246   2.760  0.3404  1.5765 -0.1366
 5648TIP3   OH238434   4.312   6.021   2.319  0.6368  0.2146  0.2384
 5648TIP3    H138435   4.359   5.980   2.246 -0.3295 -4.2598  1.8173
 5648TIP3    H238436   4.231   6.054   2.279 -0.1243 -2.5944 -0.7888
 5649TIP3   OH238437   1.324   3.450  16.604  0.1220  0.2985 -0.1379
 5649TIP3    H138438   1.335   3.361  16.637 -1.5019  0.4093  0.8061
 5649TIP3    H238439   1.289   3.499  16.678 -1.5119  1.0833 -1.3798
 5650TIP3   OH238440   0.168   4.397   6.058 -0.1744  0.3366  0.1299
 5650TIP3    H138441   0.228   4.380   6.131  1.7714 -0.6893 -1.5860
 5650TIP3    H238442   0.090   4.434   6.098  0.5051 -0.9032  2.7974
 5651TIP3   OH238443   2.843   2.797   5.922 -0.1421  0.3671  0.3737
 5651TIP3    H138444   2.776   2.735   5.894  1.9603 -1.8225 -0.1876
 5651TIP3    H238445   2.851   2.782   6.017  1.3330 -1.4276  0.0466
 5652TIP3   OH238446   2.679   4.270   5.042 -0.0745 -0.4575 -0.0707
 5652TIP3    H138447   2.667   4.283   5.136  0.1342  0.7906 -0.2056
 5652TIP3    H238448   2.592   4.285   5.005  0.5434  2.9885 -0.4509
 5653TIP3   OH238449   3.343   4.575  11.144 -0.4525  0.1208  0.5172
 5653TIP3    H138450   3.286   4.508  11.106 -0.0276  0.4671 -0.7892
 5653TIP3    H238451   3.285   4.649  11.160 -0.8047 -0.3273  1.3914
 5654TIP3   OH238452   1.075   1.280  15.627  0.1332  0.0337  0.1548
 5654TIP3    H138453   1.085   1.228  15.548  0.8283 -0.0409  0.2843
 5654TIP3    H238454   1.133   1.238  15.691  1.2121  1.3247  0.0690
 5655TIP3   OH238455   5.057   2.699   2.231  0.1805 -0.0481 -0.4868
 5655TIP3    H138456   4.993   2.770   2.242  0.7015  0.4596 -0.6790
 5655TIP3    H238457   5.043   2.667   2.142 -0.3238 -0.4561 -0.2629
 5656TIP3   OH238458   2.794   4.267  17.131 -0.2994 -0.7993  0.0812
 5656TIP3    H138459   2.754   4.281  17.217 -1.4272  1.7142 -0.7439
 5656TIP3    H238460   2.872   4.323  17.131  0.5197 -1.9078 -0.0505
 5657TIP3   OH238461   1.916   0.206   1.827  0.2123 -0.2709 -0.3255
 5657TIP3    H138462   1.820   0.207   1.823  0.2374 -0.0842 -1.0957
 5657TIP3    H238463   1.937   0.260   1.903 -0.2830  0.2723 -0.5646
 5658TIP3   OH238464   2.358   6.717   0.249  0.2386  0.1428 -0.1951
 5658TIP3    H138465   2.302   6.642   0.267 -0.6707  0.6780 -0.7150
 5658TIP3    H238466   2.443   6.679   0.227  0.3575 -0.6564  1.5038
 5659TIP3   OH238467   0.594   5.086   4.636  0.3472 -0.2434  0.1130
 5659TIP3    H138468   0.643   5.136   4.570  1.8124 -0.9952  0.5754
 5659TIP3    H238469   0.502   5.103   4.616  0.7578 -0.0535 -1.7988
 5660TIP3   OH238470   6.588   4.402  16.775  0.1456  0.5371  0.0501
 5660TIP3    H138471   6.612   4.492  16.753  1.4892  0.5834  1.4671
 5660TIP3    H238472   6.499   4.409  16.810 -0.1235  1.1622 -0.7278
 5661TIP3   OH238473   5.075   3.729   6.625  0.0588 -0.2147 -0.0800
 5661TIP3    H138474   5.016   3.654   6.628  1.2014 -1.1112  1.5006
 5661TIP3    H238475   5.025   3.801   6.663 -0.7964 -0.3589 -0.9159
 5662TIP3   OH238476   0.537   3.016  13.822  0.0775  0.1123  0.5449
 5662TIP3    H138477   0.482   2.987  13.895 -0.3747  2.0527  1.0322
 5662TIP3    H238478   0.550   3.109  13.837  0.3355  0.4874 -1.6219
 5663TIP3   OH238479   4.653   6.411   2.323 -0.0512 -0.1930  0.5364
 5663TIP3    H138480   4.662   6.474   2.252 -0.2650 -0.2873  0.4257
 5663TIP3    H238481   4.564   6.425   2.356 -0.1452 -0.5321  0.4231
 5664TIP3   OH238482   1.183   1.035  11.925  0.0930  0.4137 -1.2691
 5664TIP3    H138483   1.251   1.030  11.992  0.1181  1.8842 -1.1481
 5664TIP3    H238484   1.163   0.944  11.903  1.1731 -0.0535 -0.3728
 5665TIP3   OH238485   0.563   6.000   5.510 -0.2990 -0.1111  0.1736
 5665TIP3    H138486   0.475   6.026   5.536  0.0389 -0.1237  1.3853
 5665TIP3    H238487   0.560   5.905   5.507 -0.9038 -0.0734 -1.9769
 5666TIP3   OH238488   1.615   3.858   4.471 -0.5722 -0.3764  0.1011
 5666TIP3    H138489   1.616   3.954   4.475  2.0803 -0.2908 -0.5606
 5666TIP3    H238490   1.603   3.838   4.379  0.3208 -0.6106  0.0251
 5667TIP3   OH238491   3.700   2.239   6.104  0.0367 -0.3599 -0.0384
 5667TIP3    H138492   3.613   2.228   6.066  0.1841  0.1476 -0.5282
 5667TIP3    H238493   3.696   2.188   6.185 -1.6258  1.8048  1.3641
 5668TIP3   OH238494   3.516   2.289   2.962 -0.1311  0.2226 -0.0157
 5668TIP3    H138495   3.433   2.258   2.999 -1.0179  0.1946 -1.9404
 5668TIP3    H238496   3.579   2.222   2.989 -0.7095  0.2161  1.4453
 5669TIP3   OH238497   2.326   1.357  13.183  0.1894  0.0709 -0.2685
 5669TIP3    H138498   2.296   1.359  13.274  0.9110 -0.8272  0.0094
 5669TIP3    H238499   2.316   1.447  13.152 -2.1444 -0.0323 -0.0028
 5670TIP3   OH238500   4.944   2.644  15.436 -0.2236 -0.2891 -1.0994
 5670TIP3    H138501   4.858   2.683  15.418 -0.2995  0.5618  0.9395
 5670TIP3    H238502   4.930   2.550  15.425 -1.5456 -0.1989 -0.3157
 5671TIP3   OH238503   5.578   2.314  13.280 -0.1491  0.3791 -0.1692
 5671TIP3    H138504   5.610   2.253  13.214  1.6412  2.6342 -1.5308
 5671TIP3    H238505   5.506   2.361  13.238 -1.5366 -0.7176  0.8759
 5672TIP3   OH238506   2.986   0.890   4.291  0.1943 -0.7724  0.2598
 5672TIP3    H138507   3.008   0.949   4.363 -1.0853 -0.2369  0.2518
 5672TIP3    H238508   2.946   0.814   4.333  0.2031 -0.8271  0.1706
 5673TIP3   OH238509   4.602   1.626   4.484 -0.6763 -0.5593  0.0048
 5673TIP3    H138510   4.529   1.578   4.445  0.1817 -1.2144 -0.8371
 5673TIP3    H238511   4.674   1.614   4.423  0.1642  0.0198  0.8542
 5674TIP3   OH238512   2.039   3.577  16.663 -0.2226 -0.2280  0.7943
 5674TIP3    H138513   2.059   3.667  16.639 -0.1214 -0.3389  0.4456
 5674TIP3    H238514   2.103   3.525  16.613 -1.5297 -0.6107 -0.5507
 5675TIP3   OH238515   5.651   3.018   1.350 -0.3029  0.0772 -0.8574
 5675TIP3    H138516   5.631   2.925   1.359  0.9803 -0.1434 -0.0068
 5675TIP3    H238517   5.628   3.056   1.435 -0.0242  0.3740 -0.9131
 5676TIP3   OH238518   0.261   2.798   4.057  0.3191 -0.4391  0.1826
 5676TIP3    H138519   0.355   2.816   4.055 -0.0025  1.6928  1.3032
 5676TIP3    H238520   0.233   2.828   4.143 -1.4236 -0.9658 -0.1659
 5677TIP3   OH238521   0.319   2.083   2.637 -0.0571 -0.0599 -0.4693
 5677TIP3    H138522   0.370   2.043   2.566 -1.3536  1.1821 -2.1938
 5677TIP3    H238523   0.232   2.096   2.600 -1.2822 -0.8330  1.9260
 5678TIP3   OH238524   4.804   4.311   2.270  0.1764 -0.0033  0.0027
 5678TIP3    H138525   4.823   4.385   2.326 -1.8856  1.1756 -0.7245
 5678TIP3    H238526   4.836   4.337   2.183 -1.0212  0.3266 -0.3690
 5679TIP3   OH238527   3.765   0.961   5.298 -0.0511  0.0861 -0.1469
 5679TIP3    H138528   3.716   0.879   5.292  0.4329 -0.0832 -2.5729
 5679TIP3    H238529   3.699   1.030   5.296 -0.3669 -0.1891  0.4151
 5680TIP3   OH238530   2.041   1.120  16.193  0.3632  0.6905 -0.2685
 5680TIP3    H138531   1.993   1.084  16.119 -0.5687  0.0278  0.6311
 5680TIP3    H238532   2.133   1.100  16.175  0.4417  2.5217 -2.3166
 5681TIP3   OH238533   4.828   6.704   3.503 -0.5117 -0.2436  0.5194
 5681TIP3    H138534   4.796   6.682   3.590  0.1150  0.0739  0.8369
 5681TIP3    H238535   4.920   6.727   3.516  0.0450 -1.7679 -0.4535
 5682TIP3   OH238536   3.152   6.012  12.857  0.3445  0.1970 -0.3463
 5682TIP3    H138537   3.080   5.954  12.883  0.1596  0.3469 -0.5148
 5682TIP3    H238538   3.127   6.042  12.769 -0.2075  1.5607  0.2442
 5683TIP3   OH238539   5.396   1.737  16.582 -0.1134  0.3850  0.1945
 5683TIP3    H138540   5.335   1.666  16.606 -1.3544  1.0469 -0.8820
 5683TIP3    H238541   5.472   1.723  16.639 -0.4832 -1.5717  0.2849
 5684TIP3   OH238542   0.831   5.717  12.687 -0.0386 -0.5211  0.0005
 5684TIP3    H138543   0.856   5.793  12.739  3.5376  0.2642 -2.5017
 5684TIP3    H238544   0.814   5.753  12.600  1.6249 -2.4605 -1.2081
 5685TIP3   OH238545   4.804   2.304   3.460  0.0816  0.6406 -0.8856
 5685TIP3    H138546   4.847   2.228   3.499  0.4168  1.0303 -0.4905
 5685TIP3    H238547   4.855   2.323   3.382  1.2512  1.6834  0.0734
 5686TIP3   OH238548   3.141   0.329  11.448 -0.0811 -0.5964 -0.1088
 5686TIP3    H138549   3.231   0.316  11.418  0.1610 -1.1653  0.8280
 5686TIP3    H238550   3.101   0.383  11.380  0.9565 -0.3622 -0.5557
 5687TIP3   OH238551   0.416   3.541   3.110 -0.1636  0.0056  0.3205
 5687TIP3    H138552   0.496   3.554   3.161  1.4174 -1.7737 -1.5446
 5687TIP3    H238553   0.427   3.597   3.033 -1.0768  0.2962  0.3876
 5688TIP3   OH238554   4.762   3.428  10.714  0.1215 -0.1535  0.0755
 5688TIP3    H138555   4.811   3.511  10.714 -1.0532  0.5917 -1.1977
 5688TIP3    H238556   4.811   3.372  10.653 -0.0424  0.2365 -0.4214
 5689TIP3   OH238557   2.471   2.842   2.322 -0.2278  0.0442 -0.6789
 5689TIP3    H138558   2.419   2.867   2.399  1.9613 -0.5130  1.0838
 5689TIP3    H238559   2.412   2.788   2.270 -1.4090 -0.6300  1.2623
 5690TIP3   OH238560   0.630   5.935   2.132  0.2699  0.5407  0.3522
 5690TIP3    H138561   0.690   5.876   2.180  1.9238  1.7803 -0.1003
 5690TIP3    H238562   0.543   5.913   2.166  1.0590 -0.7377  1.6780
 5691TIP3   OH238563   0.839   2.906  12.326  0.1316 -0.1163 -0.3521
 5691TIP3    H138564   0.770   2.969  12.303  0.4402  0.3337 -0.0617
 5691TIP3    H238565   0.903   2.958  12.375  0.7560 -0.4961 -0.7538
 5692TIP3   OH238566   5.293   0.719  15.383  0.2167 -0.1076 -0.4953
 5692TIP3    H138567   5.284   0.814  15.380 -2.1860 -0.1403  2.0273
 5692TIP3    H238568   5.375   0.704  15.430  0.0394  0.7483  0.0973
 5693TIP3   OH238569   4.091   6.491  15.000  0.3665 -0.6097  0.2368
 5693TIP3    H138570   4.027   6.528  15.061 -0.3385  0.7198 -1.2205
 5693TIP3    H238571   4.169   6.545  15.012 -0.4623  1.0773 -1.4528
 5694TIP3   OH238572   2.616   0.580   0.911 -0.6092  0.3715  0.0067
 5694TIP3    H138573   2.526   0.575   0.944 -1.0827  0.3535 -1.2387
 5694TIP3    H238574   2.607   0.616   0.823  0.7382  1.6440  0.3652
 5695TIP3   OH238575   2.620   5.755  12.854  0.3590 -0.4065  0.9706
 5695TIP3    H138576   2.554   5.735  12.788  1.6142 -1.4246 -0.0684
 5695TIP3    H238577   2.613   5.849  12.869 -0.1889 -0.2027 -0.4033
 5696TIP3   OH238578   3.016   6.608   5.948  0.1481 -0.1502  0.0663
 5696TIP3    H138579   2.978   6.692   5.972 -2.4412 -1.9623  3.2031
 5696TIP3    H238580   3.106   6.612   5.980  0.0536  1.3714  0.2252
 5697TIP3   OH238581   3.261   2.090  14.785  0.1546 -0.0756 -0.2299
 5697TIP3    H138582   3.181   2.071  14.735  0.3531  1.0155 -0.9999
 5697TIP3    H238583   3.273   2.013  14.841 -1.2770 -0.3850 -0.2999
 5698TIP3   OH238584   2.342   2.333   0.699  0.1914 -0.4496  0.0271
 5698TIP3    H138585   2.393   2.273   0.645  0.5996 -0.5309  0.4910
 5698TIP3    H238586   2.390   2.338   0.782  0.8780  1.5386 -0.4320
 5699TIP3   OH238587   0.320   4.735  12.766 -0.6861 -0.2880  0.7389
 5699TIP3    H138588   0.401   4.685  12.775 -0.4738  0.3945  3.3103
 5699TIP3    H238589   0.346   4.826  12.777 -1.6989 -0.0125  1.0075
 5700TIP3   OH238590   2.781   3.279  12.750  0.1227 -0.3593 -0.0756
 5700TIP3    H138591   2.861   3.329  12.736  0.1114 -0.1307  0.6828
 5700TIP3    H238592   2.778   3.219  12.675 -0.7030  1.8179 -1.8782
 5701TIP3   OH238593   3.455   1.205   3.573  0.1469  0.0589 -0.3601
 5701TIP3    H138594   3.470   1.157   3.492 -0.2511 -0.3231 -0.2102
 5701TIP3    H238595   3.493   1.149   3.641  1.9491  1.1228 -0.4353
 5702TIP3   OH238596   2.766   2.466  11.548 -0.3751 -0.2799  0.0376
 5702TIP3    H138597   2.721   2.397  11.500 -0.6064 -0.0796 -0.0292
 5702TIP3    H238598   2.858   2.440  11.546 -0.5481 -0.9876  0.6601
 5703TIP3   OH238599   6.707   4.872  14.677 -0.2387  0.2817  0.0835
 5703TIP3    H138600   6.693   4.792  14.729  0.0303 -1.3213 -2.1703
 5703TIP3    H238601   6.620   4.896  14.646 -0.5582  1.8389  1.9592
 5704TIP3   OH238602   5.485   0.565   1.404 -0.5521 -0.2265  0.2133
 5704TIP3    H138603   5.553   0.502   1.429 -0.8098  0.6666  3.6420
 5704TIP3    H238604   5.431   0.518   1.341  2.5449 -1.3170 -1.8931
 5705TIP3   OH238605   2.267   6.439   2.450  0.2921 -0.5233  0.2788
 5705TIP3    H138606   2.216   6.477   2.379 -1.3235 -2.1019  0.5210
 5705TIP3    H238607   2.347   6.407   2.407  0.0846  0.0143 -0.5250
 5706TIP3   OH238608   5.931   2.860   5.750  0.9456  0.5409  0.0440
 5706TIP3    H138609   5.973   2.896   5.828  1.1074  1.0091 -0.2524
 5706TIP3    H238610   6.003   2.848   5.688  0.6313  1.5112 -0.5336
 5707TIP3   OH238611   6.687   4.288   2.913  0.7553 -0.8102  0.7748
 5707TIP3    H138612   6.768   4.287   2.862  0.5195  0.2202  0.3500
 5707TIP3    H238613   6.717   4.299   3.004  1.0778  0.4264  0.5361
 5708TIP3   OH238614   6.705   6.595  14.541 -0.0619  0.8900  0.1611
 5708TIP3    H138615   6.734   6.555  14.459  0.3240  1.5701 -0.0411
 5708TIP3    H238616   6.757   6.551  14.609 -0.1163  0.5876  0.0097
 5709TIP3   OH238617   0.830   5.258   1.820  0.3121 -0.2799  0.5679
 5709TIP3    H138618   0.914   5.288   1.854  0.3632 -1.3854  1.4783
 5709TIP3    H238619   0.853   5.198   1.749  0.2482  0.4313 -0.0667
 5710TIP3   OH238620   0.078   4.920   1.072 -0.4232  0.3879  0.2163
 5710TIP3    H138621   0.004   4.874   1.033  0.5989 -2.4362  1.3245
 5710TIP3    H238622   0.103   4.986   1.006 -1.5517 -1.1352 -1.8534
 5711TIP3   OH238623   1.043   0.085   4.124  0.2171  0.4207  0.0387
 5711TIP3    H138624   0.959   0.080   4.079 -0.4790 -2.0726  1.4266
 5711TIP3    H238625   1.095   0.015   4.085  1.4135  1.4796 -0.3087
 5712TIP3   OH238626   3.231   4.928  13.863 -0.2245 -0.3688  0.0224
 5712TIP3    H138627   3.279   5.004  13.831  1.6287 -1.3254  0.4400
 5712TIP3    H238628   3.226   4.941  13.958 -2.6283  0.6931 -0.1471
 5713TIP3   OH238629   1.927   6.550  12.729  0.1326 -0.2922 -0.6470
 5713TIP3    H138630   2.010   6.556  12.682  0.1944  0.7780 -0.4373
 5713TIP3    H238631   1.894   6.640  12.730 -0.8122 -0.6318 -0.3349
 5714TIP3   OH238632   6.531   0.934   3.886  0.8891 -0.6087 -0.1480
 5714TIP3    H138633   6.558   0.977   3.967  1.7147 -1.2056 -0.0889
 5714TIP3    H238634   6.613   0.913   3.842  0.4571 -0.7285 -0.9091
 5715TIP3   OH238635   5.154   6.788  16.919 -0.4834 -0.5935 -0.2485
 5715TIP3    H138636   5.212   6.732  16.970 -0.0344 -0.5280 -0.6774
 5715TIP3    H238637   5.066   6.763  16.946 -0.2430  0.2043  1.3823
 5716TIP3   OH238638   4.110   2.354   6.707  0.1006  0.0275 -0.4426
 5716TIP3    H138639   4.045   2.402   6.758  1.4756  1.7450 -0.1938
 5716TIP3    H238640   4.078   2.264   6.706 -2.3476  0.7956 -0.4702
 5717TIP3   OH238641   0.073   1.875  14.024 -0.4935  0.5486  0.2176
 5717TIP3    H138642  -0.020   1.897  14.032 -1.0751 -1.2759 -0.9585
 5717TIP3    H238643   0.085   1.798  14.079  0.0349  0.0448 -0.5814
 5718TIP3   OH238644   3.720   1.469  16.142 -0.0922 -0.2407 -0.3209
 5718TIP3    H138645   3.774   1.421  16.079  1.7325 -0.2251  1.1525
 5718TIP3    H238646   3.758   1.557  16.144  0.8294 -0.6349  1.8091
 5719TIP3   OH238647   6.043   6.669  11.145 -0.3104  0.4368 -0.3445
 5719TIP3    H138648   6.094   6.595  11.178 -0.2178  0.0028 -1.4215
 5719TIP3    H238649   6.100   6.711  11.080 -1.1861  0.1081 -1.3681
 5720TIP3   OH238650   1.982   0.798  14.001  0.1429  0.0038 -0.1147
 5720TIP3    H138651   1.911   0.735  13.989 -1.4628  1.5259  0.9595
 5720TIP3    H238652   2.053   0.748  14.041 -1.3349 -0.9878  1.3594
 5721TIP3   OH238653   0.292   5.336   5.611 -0.1771 -0.4242 -0.0265
 5721TIP3    H138654   0.311   5.245   5.589 -0.5021 -0.3598 -0.6126
 5721TIP3    H238655   0.377   5.374   5.632 -0.2359 -1.3444  2.1847
 5722TIP3   OH238656   2.873   2.838   3.169 -0.1005 -0.1619  0.3000
 5722TIP3    H138657   2.832   2.912   3.214  0.3810 -0.7007  1.7056
 5722TIP3    H238658   2.854   2.763   3.226 -2.3906 -1.5657 -2.1229
 5723TIP3   OH238659   4.956   1.108  16.542  0.4213  0.1206 -0.3709
 5723TIP3    H138660   4.988   1.048  16.474  1.2551 -0.2436  0.3230
 5723TIP3    H238661   4.865   1.125  16.518  0.1024 -1.5716 -0.4948
 5724TIP3   OH238662   2.299   1.511  13.904  0.3517  0.4477 -0.2423
 5724TIP3    H138663   2.236   1.446  13.874  0.7787  0.9875 -2.5587
 5724TIP3    H238664   2.344   1.469  13.977 -3.1438  0.3709  2.0970
 5725TIP3   OH238665   0.059   1.054   5.315  0.3635  0.2529  0.2897
 5725TIP3    H138666   0.100   1.102   5.242 -1.4604  2.3135  0.5213
 5725TIP3    H238667   0.131   1.039   5.377  1.1036  2.4823  0.0603
 5726TIP3   OH238668   0.436   2.122   3.346  0.4962 -0.1167  0.3296
 5726TIP3    H138669   0.512   2.118   3.405  1.3436 -1.3577 -0.7845
 5726TIP3    H238670   0.441   2.041   3.295 -0.7271  0.4871 -0.8131
 5727TIP3   OH238671   5.015   4.541  13.897 -0.1705 -0.0443 -0.4784
 5727TIP3    H138672   4.984   4.629  13.875  1.2305  0.1182 -1.9833
 5727TIP3    H238673   4.966   4.483  13.838 -2.1269 -0.4993  1.4548
 5728TIP3   OH238674   2.610   5.905   5.395 -0.9940  0.1787 -0.5114
 5728TIP3    H138675   2.641   5.995   5.389 -0.9116  0.1434 -0.6180
 5728TIP3    H238676   2.555   5.893   5.317  0.1137 -0.2978 -1.2361
 5729TIP3   OH238677   2.470   4.910  11.212 -0.4426 -0.7631  0.3548
 5729TIP3    H138678   2.385   4.952  11.207 -1.4267 -2.7673 -2.1529
 5729TIP3    H238679   2.531   4.975  11.177 -1.2812 -0.0671  0.1450
 5730TIP3   OH238680   1.228   5.000  16.153  0.3533 -0.1161 -0.0412
 5730TIP3    H138681   1.271   5.085  16.166  0.3614 -0.1489  0.1548
 5730TIP3    H238682   1.230   4.986  16.059  1.1768 -0.3191 -0.0008
 5731TIP3   OH238683   5.250   2.648  14.157 -0.3908 -0.1602 -0.6548
 5731TIP3    H138684   5.266   2.574  14.215 -2.3188 -0.1522 -0.0303
 5731TIP3    H238685   5.332   2.659  14.108  0.4205 -1.7659  0.2632
 5732TIP3   OH238686   4.308   5.652   0.499 -0.6835  0.0833 -0.0293
 5732TIP3    H138687   4.251   5.644   0.576  1.3871 -1.0945  1.4703
 5732TIP3    H238688   4.349   5.738   0.508 -0.5385 -0.0009  0.1198
 5733TIP3   OH238689   2.797   5.331   5.223 -0.7095  0.0330  0.8163
 5733TIP3    H138690   2.867   5.364   5.279 -0.5478  0.6800  0.2349
 5733TIP3    H238691   2.804   5.236   5.231 -0.3743  0.1052  1.5063
 5734TIP3   OH238692   4.439   6.365   0.941  0.0477 -0.2217 -0.6047
 5734TIP3    H138693   4.505   6.417   0.896  1.2172  2.0166  3.2922
 5734TIP3    H238694   4.489   6.298   0.988 -0.4494  0.9795  1.7358
 5735TIP3   OH238695   2.671   0.692   1.577 -0.8429  0.1147 -0.1447
 5735TIP3    H138696   2.712   0.778   1.576  0.0055 -0.2788 -0.1055
 5735TIP3    H238697   2.621   0.691   1.659 -0.2858  0.3117  0.2071
 5736TIP3   OH238698   1.764   2.841  15.774  0.4063 -0.3693  0.4997
 5736TIP3    H138699   1.738   2.752  15.749 -1.7686  0.3411 -0.0358
 5736TIP3    H238700   1.711   2.861  15.851 -0.3175  0.9923 -0.3139
 5737TIP3   OH238701   6.256   5.635  12.719  0.1493 -0.1269  0.3695
 5737TIP3    H138702   6.343   5.645  12.757  0.7809  2.1161 -1.4434
 5737TIP3    H238703   6.257   5.692  12.642 -3.3992  1.1167  1.0748
 5738TIP3   OH238704   3.052   3.892   3.933 -0.4513 -0.7311  0.7484
 5738TIP3    H138705   2.958   3.898   3.945 -0.5830 -1.6525  0.2747
 5738TIP3    H238706   3.073   3.800   3.951  0.0793 -0.9513 -0.7877
 5739TIP3   OH238707   3.024   0.384  15.427  0.2959  0.3290 -0.1975
 5739TIP3    H138708   2.972   0.306  15.408 -1.1471  1.1374  0.2096
 5739TIP3    H238709   2.961   0.456  15.417  1.4872  1.3962 -0.1547
 5740TIP3   OH238710   5.583   1.782  14.909  0.7316  0.3981  0.2533
 5740TIP3    H138711   5.536   1.699  14.904  0.1800  0.7431 -0.5578
 5740TIP3    H238712   5.674   1.758  14.920  0.5714 -0.3198  0.0611
 5741TIP3   OH238713   4.746   3.137   4.702 -0.1119  0.5095 -0.2135
 5741TIP3    H138714   4.698   3.192   4.640  0.7061 -0.0677 -1.3704
 5741TIP3    H238715   4.833   3.127   4.665  0.6380  0.7249  1.3825
 5742TIP3   OH238716   2.908   2.702  13.121 -0.0070 -0.0467 -0.0416
 5742TIP3    H138717   2.870   2.702  13.033 -1.0483 -0.2844  0.3913
 5742TIP3    H238718   2.957   2.784  13.126 -0.9504  0.5591 -0.4284
 5743TIP3   OH238719   5.552   2.106  13.901  0.6726 -0.6562 -0.3611
 5743TIP3    H138720   5.509   2.065  13.976  1.2618  0.1369  0.4383
 5743TIP3    H238721   5.624   2.157  13.939 -0.2274  1.3962 -1.2363
 5744TIP3   OH238722   4.476   6.476  13.895 -0.2307 -0.2102 -0.1071
 5744TIP3    H138723   4.454   6.410  13.961  0.1097 -1.0560 -0.8122
 5744TIP3    H238724   4.565   6.503  13.916 -1.5171  2.7877  2.3940
 5745TIP3   OH238725   2.748   6.066   1.002 -0.4335  0.0629  0.0141
 5745TIP3    H138726   2.778   6.133   0.940 -0.7963  0.5907  0.3983
 5745TIP3    H238727   2.688   6.113   1.060 -0.9389 -0.6707  0.0947
 5746TIP3   OH238728   3.301   5.830  10.946 -0.3331  0.2095  0.4973
 5746TIP3    H138729   3.379   5.885  10.937 -0.8099  1.2822  2.4129
 5746TIP3    H238730   3.308   5.792  11.033 -2.4471  1.2082  1.1709
 5747TIP3   OH238731   6.024   3.246   0.203 -0.0733 -0.1729 -0.4589
 5747TIP3    H138732   6.094   3.295   0.246  0.7197 -0.8931 -0.8890
 5747TIP3    H238733   5.973   3.313   0.156 -0.7578  0.5772  1.2647
 5748TIP3   OH238734   6.459   4.535   1.676 -0.3692 -0.4776  0.0934
 5748TIP3    H138735   6.533   4.592   1.697 -1.2458  0.2560  1.2927
 5748TIP3    H238736   6.499   4.455   1.640  0.9248  0.4196 -0.5133
 5749TIP3   OH238737   2.477   1.281  12.108  0.0901 -0.5812  0.2571
 5749TIP3    H138738   2.500   1.374  12.114  1.2398 -0.9630  3.1468
 5749TIP3    H238739   2.537   1.246  12.042  1.2725  0.2751  0.8476
 5750TIP3   OH238740   4.055   6.130   0.749  0.1126  0.0915  0.1171
 5750TIP3    H138741   3.984   6.095   0.695  0.5495  0.3229 -0.6359
 5750TIP3    H238742   4.050   6.225   0.737  0.4874  0.1151  0.1228
 5751TIP3   OH238743   1.117   2.568   2.205  0.3557 -0.0395  0.1296
 5751TIP3    H138744   1.032   2.565   2.249  0.2243  1.4044  0.0260
 5751TIP3    H238745   1.098   2.606   2.119  1.1648  0.7744  0.2945
 5752TIP3   OH238746   2.163   1.027  13.412 -0.2607 -0.1540 -0.5910
 5752TIP3    H138747   2.189   0.935  13.404  0.8885 -0.0347  1.1882
 5752TIP3    H238748   2.238   1.077  13.378  0.5716  0.1358  1.5197
 5753TIP3   OH238749   2.192   4.538  11.217  0.8733 -0.1846 -0.5569
 5753TIP3    H138750   2.275   4.492  11.205  0.7150 -0.2602 -1.3890
 5753TIP3    H238751   2.206   4.590  11.296  0.6459 -2.5098  1.1082
 5754TIP3   OH238752   5.508   3.368  14.016  0.0370  0.0810 -0.1901
 5754TIP3    H138753   5.570   3.380  14.088 -0.5511 -0.4701  0.4295
 5754TIP3    H238754   5.423   3.385  14.055 -0.2656  0.1248 -0.8550
 5755TIP3   OH238755   1.376   3.961  17.205  0.1444 -0.3977  0.1839
 5755TIP3    H138756   1.384   4.047  17.247  2.4912 -0.0189 -0.8558
 5755TIP3    H238757   1.382   3.898  17.277  1.0071  0.2798  0.7190
 5756TIP3   OH238758   5.803   6.180  13.517 -0.8219  0.1583  0.5498
 5756TIP3    H138759   5.728   6.237  13.499 -0.7005  0.2742  0.4142
 5756TIP3    H238760   5.841   6.162  13.431 -1.1390 -0.5163  0.5436
 5757TIP3   OH238761   5.273   6.807   1.836 -0.0529 -0.3958 -0.3779
 5757TIP3    H138762   5.297   6.771   1.751 -0.6110 -0.6537 -0.4307
 5757TIP3    H238763   5.301   6.740   1.899 -0.2893 -0.5319 -0.4141
 5758TIP3   OH238764   0.137   2.020   0.275  1.0000 -0.4247  0.3622
 5758TIP3    H138765   0.226   1.996   0.248  0.8788  0.4658 -0.9349
 5758TIP3    H238766   0.114   1.956   0.342  2.5483 -0.7807  0.5970
 5759TIP3   OH238767   3.037   3.648  11.391  0.2884 -0.3126 -0.3875
 5759TIP3    H138768   3.130   3.667  11.405 -0.3349  1.2199  2.2334
 5759TIP3    H238769   3.005   3.721  11.339  0.3401 -0.3968 -0.5412
 5760TIP3   OH238770   1.397   2.900  11.410  0.2041  0.2280  0.1652
 5760TIP3    H138771   1.347   2.827  11.373 -0.2705 -0.0024  1.2222
 5760TIP3    H238772   1.472   2.910  11.350 -0.0835 -0.6739 -0.3724
 5761TIP3   OH238773   1.385   6.019   2.668  0.3958  0.0919  0.3645
 5761TIP3    H138774   1.456   6.000   2.607  1.5475 -0.7471  1.8753
 5761TIP3    H238775   1.314   6.053   2.614  1.5206 -0.1930 -1.3499
 5762TIP3   OH238776   0.678   1.890  14.180 -0.3851  0.0055  0.0432
 5762TIP3    H138777   0.702   1.883  14.273 -0.7322  2.5192  0.3736
 5762TIP3    H238778   0.738   1.956  14.145 -3.2085  2.5503 -0.3488
 5763TIP3   OH238779   6.230   3.943   2.879  0.1349  0.2982  0.0840
 5763TIP3    H138780   6.273   3.938   2.794 -1.1321  1.8636 -0.6867
 5763TIP3    H238781   6.159   3.879   2.875  0.1515  0.2845  0.0215
 5764TIP3   OH238782   4.170   3.280   2.317 -0.1251 -0.6053  0.3645
 5764TIP3    H138783   4.241   3.275   2.253  1.1068 -0.3267  1.6509
 5764TIP3    H238784   4.215   3.276   2.402 -1.4920  1.3964  1.2373
 5765TIP3   OH238785   1.491   4.684   5.288 -0.6408 -0.1560  0.1084
 5765TIP3    H138786   1.567   4.720   5.241 -1.3668 -0.5666 -1.4425
 5765TIP3    H238787   1.529   4.635   5.362  0.5591  0.2390 -0.2272
 5766TIP3   OH238788   0.939   2.900   5.941  0.1218 -0.3938  0.0728
 5766TIP3    H138789   1.026   2.922   5.975  0.5428 -0.6913 -0.8048
 5766TIP3    H238790   0.879   2.957   5.991  0.5588 -1.7837  2.3409
 5767TIP3   OH238791   0.570   0.259  16.740  0.3041  0.4607  0.1696
 5767TIP3    H138792   0.562   0.344  16.698  0.2504 -1.0938 -3.2638
 5767TIP3    H238793   0.664   0.241  16.740  0.1514 -1.3705 -3.6891
 5768TIP3   OH238794   5.247   6.366  14.388  0.6530  0.2512  0.3448
 5768TIP3    H138795   5.331   6.321  14.401  0.5621  0.0956  0.3927
 5768TIP3    H238796   5.184   6.296  14.375  0.9828  0.3874 -2.5615
 5769TIP3   OH238797   6.062   4.531  11.425 -0.0528 -0.0528  0.3451
 5769TIP3    H138798   6.015   4.612  11.411  1.0171  0.2194 -2.1752
 5769TIP3    H238799   6.110   4.545  11.508 -0.3254  1.6537  0.2480
 5770TIP3   OH238800   0.518   1.370   2.766  0.1546  0.3292 -0.5998
 5770TIP3    H138801   0.456   1.442   2.783  0.5994  0.4831  0.4296
 5770TIP3    H238802   0.493   1.337   2.680  0.4135  2.2151 -1.4558
 5771TIP3   OH238803   3.163   0.031  12.421 -0.6352 -0.3518  0.9118
 5771TIP3    H138804   3.122   0.055  12.504 -1.1864  0.0819  0.5217
 5771TIP3    H238805   3.090   0.026  12.359 -0.3616 -1.7121  0.6760
 5772TIP3   OH238806   0.091   6.604   1.065 -0.0496  0.1231 -0.2584
 5772TIP3    H138807   0.086   6.657   0.985 -1.4796 -1.0707 -1.0120
 5772TIP3    H238808   0.096   6.514   1.034  0.1420 -0.3260  1.0142
 5773TIP3   OH238809   1.826   6.745   4.391 -0.3507  0.0266 -0.4543
 5773TIP3    H138810   1.790   6.704   4.312 -1.8752 -0.1627  0.3091
 5773TIP3    H238811   1.776   6.825   4.402  0.9177  0.8558 -0.5264
 5774TIP3   OH238812   5.745   0.591  12.984 -0.6201 -0.0199  0.1738
 5774TIP3    H138813   5.739   0.679  12.947 -1.5362  0.3757  1.2045
 5774TIP3    H238814   5.838   0.580  13.003 -0.7346  1.5956  1.9794
 5775TIP3   OH238815   2.114   5.959  16.722 -0.0109  0.5321 -0.3193
 5775TIP3    H138816   2.181   5.951  16.654  0.2818  1.4647 -0.1607
 5775TIP3    H238817   2.157   6.010  16.791 -1.0949  1.7653 -0.5177
 5776TIP3   OH238818   6.116   6.084  10.796  0.5989  0.2180 -0.5579
 5776TIP3    H138819   6.190   6.130  10.757  0.7432 -1.3418 -2.2518
 5776TIP3    H238820   6.047   6.149  10.802  1.3122  1.0673 -1.3461
 5777TIP3   OH238821   4.108   5.129   2.908 -0.1000  0.0784 -0.3489
 5777TIP3    H138822   4.101   5.205   2.850 -0.9131  0.2111 -0.0913
 5777TIP3    H238823   4.029   5.078   2.890 -0.3658  0.1212  0.6448
 5778TIP3   OH238824   6.545   6.009   4.399  0.4234  0.1844 -0.2444
 5778TIP3    H138825   6.614   6.065   4.362 -0.1703  1.0470 -0.0717
 5778TIP3    H238826   6.466   6.063   4.396 -0.0664 -0.4807  0.3604
 5779TIP3   OH238827   2.788   3.347  13.830  0.1508 -0.7159 -0.2601
 5779TIP3    H138828   2.798   3.290  13.905 -1.3538  0.5184  0.9586
 5779TIP3    H238829   2.876   3.358  13.795  0.7801 -1.8103  0.9329
 5780TIP3   OH238830   5.985   1.598  16.439 -0.0639  0.0137 -0.0671
 5780TIP3    H138831   5.968   1.544  16.362 -0.6625  1.2410 -0.8175
 5780TIP3    H238832   6.058   1.655  16.413  2.5443 -2.2659  1.6683
 5781TIP3   OH238833   4.290   0.551  10.753 -0.4397  0.4302  0.2477
 5781TIP3    H138834   4.244   0.485  10.703 -0.0833  1.8022 -2.0398
 5781TIP3    H238835   4.354   0.502  10.804 -1.2470 -1.0930 -0.1513
 5782TIP3   OH238836   5.458   3.719   3.032 -0.1814 -0.0572 -0.3969
 5782TIP3    H138837   5.416   3.717   3.118 -3.3805  1.4267 -1.7356
 5782TIP3    H238838   5.459   3.812   3.008 -2.0756 -0.5863 -3.0403
 5783TIP3   OH238839   4.969   5.411   2.260  0.1989 -0.0577 -0.0165
 5783TIP3    H138840   4.934   5.497   2.234 -0.8112  0.2351  2.0823
 5783TIP3    H238841   4.899   5.349   2.238  0.5185 -0.2245 -0.5939
 5784TIP3   OH238842   5.586   6.379  15.207  0.2347  0.3193  0.0020
 5784TIP3    H138843   5.592   6.287  15.182 -0.5797  0.2871 -0.0990
 5784TIP3    H238844   5.537   6.379  15.290 -1.4983  0.7702 -0.9555
 5785TIP3   OH238845   1.568   6.023  16.202 -0.0724 -0.4477  0.4295
 5785TIP3    H138846   1.630   5.993  16.136 -0.2703 -1.0250  0.4986
 5785TIP3    H238847   1.516   6.091  16.158  1.6213  1.1915  0.8309
 5786TIP3   OH238848   0.201   3.468  11.950  0.1194 -0.3386 -0.1074
 5786TIP3    H138849   0.113   3.484  11.916  0.1296  1.2604  0.5043
 5786TIP3    H238850   0.188   3.443  12.042  0.2957 -0.2247 -0.0495
 5787TIP3   OH238851   5.251   0.212   0.526  0.0412  0.1228 -0.2225
 5787TIP3    H138852   5.165   0.170   0.517 -0.2623 -0.1167  2.7646
 5787TIP3    H238853   5.312   0.139   0.537 -0.3337  0.1806  3.8130
 5788TIP3   OH238854   4.971   3.029   3.988 -0.4370 -0.5992 -0.5929
 5788TIP3    H138855   4.885   3.031   4.030  0.2118  1.1931  0.7530
 5788TIP3    H238856   4.989   3.119   3.962  0.3843 -1.2023 -2.3119
 5789TIP3   OH238857   3.031   3.167  12.827  0.4585 -0.7131 -0.1499
 5789TIP3    H138858   3.029   3.249  12.878 -1.5001 -1.6165  1.3601
 5789TIP3    H238859   3.124   3.149  12.814  0.9433  1.1933  0.4102
 5790TIP3   OH238860   5.586   1.879  16.009 -0.7036 -0.1320 -0.0711
 5790TIP3    H138861   5.588   1.818  16.083 -1.5229  1.3473  1.2447
 5790TIP3    H238862   5.675   1.912  16.003 -0.8993  0.7256  1.1813
 5791TIP3   OH238863   0.061   5.853   0.370  0.1101  0.2740  0.7708
 5791TIP3    H138864   0.146   5.863   0.326 -0.3876 -1.5011 -0.7092
 5791TIP3    H238865   0.033   5.943   0.388 -0.0193  1.2365 -3.3230
 5792TIP3   OH238866   6.257   3.111  13.022 -0.3667 -0.3320  0.6468
 5792TIP3    H138867   6.210   3.184  13.063  0.3308  0.8885 -0.6317
 5792TIP3    H238868   6.207   3.090  12.944  0.1959 -0.2914  0.2741
 5793TIP3   OH238869   1.254   0.822  15.799 -0.0631  0.5534  0.7449
 5793TIP3    H138870   1.204   0.871  15.863  0.3053  1.8958  0.0352
 5793TIP3    H238871   1.290   0.748  15.848  2.3705  2.8835  2.7939
 5794TIP3   OH238872   3.534   2.433   2.357  0.1138 -0.1951 -0.3182
 5794TIP3    H138873   3.549   2.347   2.397 -0.5094 -1.4440 -2.5814
 5794TIP3    H238874   3.449   2.424   2.312 -0.3845  1.8998  0.0900
 5795TIP3   OH238875   3.569   6.592  14.947  0.2844  0.1109  0.4846
 5795TIP3    H138876   3.587   6.521  14.885 -0.6836 -0.6753  1.0653
 5795TIP3    H238877   3.637   6.656  14.930  1.4717 -1.1589  0.2417
 5796TIP3   OH238878   5.106   3.023   5.048  0.3180 -0.4911 -0.3108
 5796TIP3    H138879   5.142   3.075   5.120  0.4171  0.3719 -0.9653
 5796TIP3    H238880   5.173   2.958   5.029  1.5636  1.0283 -1.4442
 5797TIP3   OH238881   0.397   4.794  16.548 -0.2644 -0.1746  0.3418
 5797TIP3    H138882   0.419   4.812  16.640 -2.0941  1.6374  0.5060
 5797TIP3    H238883   0.374   4.701  16.547  0.2658 -0.3417  1.6119
 5798TIP3   OH238884   1.202   4.473   0.997  0.2771 -0.0499  0.6711
 5798TIP3    H138885   1.182   4.546   1.056  0.4593  0.8499 -0.3578
 5798TIP3    H238886   1.294   4.454   1.013  0.6344  0.9535 -0.1279
 5799TIP3   OH238887   2.767   4.491   3.646 -0.6784  0.0045 -0.3727
 5799TIP3    H138888   2.725   4.411   3.614  0.3658 -1.0435  0.7580
 5799TIP3    H238889   2.860   4.477   3.628 -0.6191  1.7270 -1.6803
 5800TIP3   OH238890   5.512   4.525   2.981 -0.5090 -0.6041  0.1957
 5800TIP3    H138891   5.562   4.584   3.037 -0.1950  1.6244 -2.2041
 5800TIP3    H238892   5.578   4.470   2.939  0.1816  2.1343 -2.7413
 5801TIP3   OH238893   3.767   0.779  13.646  0.6192 -0.1648  0.1405
 5801TIP3    H138894   3.700   0.711  13.641 -0.5237  0.8025  1.4189
 5801TIP3    H238895   3.827   0.759  13.574 -0.5155 -1.6138 -0.4640
 5802TIP3   OH238896   2.716   3.422  16.363  0.0512  0.3321  0.4666
 5802TIP3    H138897   2.632   3.412  16.318  0.3778 -0.1252 -0.0497
 5802TIP3    H238898   2.734   3.517  16.359 -1.8360  0.9013  3.1726
 5803TIP3   OH238899   1.934   1.908   2.012 -1.1144  0.2069 -0.2642
 5803TIP3    H138900   1.850   1.864   2.022 -1.1831  0.6597  1.4872
 5803TIP3    H238901   1.986   1.849   1.957 -1.7182 -1.3339  0.7382
 5804TIP3   OH238902   3.085   5.061  15.547  0.1679 -0.5894  0.3210
 5804TIP3    H138903   3.171   5.023  15.563  0.0161 -1.4752 -0.9209
 5804TIP3    H238904   3.052   5.082  15.635  1.4120 -0.7235  0.8409
 5805TIP3   OH238905   5.152   5.095  11.810  0.9808 -0.7598  0.0717
 5805TIP3    H138906   5.156   5.000  11.822  0.6031 -0.9624 -1.3014
 5805TIP3    H238907   5.194   5.111  11.726  0.0713  0.1729 -0.2220
 5806TIP3   OH238908   3.673   3.720   0.743 -0.1285  0.1536 -0.5569
 5806TIP3    H138909   3.722   3.682   0.670  0.8072 -0.1271  0.1960
 5806TIP3    H238910   3.627   3.646   0.782  0.7648 -0.0273  0.1923
 5807TIP3   OH238911   0.561   3.437   2.844 -0.3496 -0.0125  0.1530
 5807TIP3    H138912   0.594   3.435   2.933 -0.7155 -0.4762  0.2780
 5807TIP3    H238913   0.623   3.384   2.794 -0.2961  0.0261  0.1776
 5808TIP3   OH238914   1.187   4.573  16.305  0.1525 -0.2941  0.1162
 5808TIP3    H138915   1.235   4.577  16.387  1.0254  0.4390 -0.4084
 5808TIP3    H238916   1.100   4.605  16.326 -0.2601 -1.9782  1.1602
 5809TIP3   OH238917   5.193   2.546  10.905  0.2830 -0.2355 -0.3324
 5809TIP3    H138918   5.184   2.626  10.854  0.8796  0.9150  1.2674
 5809TIP3    H238919   5.257   2.494  10.857  1.8505  1.3951 -0.1405
 5810TIP3   OH238920   2.140   1.508   0.556 -0.1601 -0.5103  0.6417
 5810TIP3    H138921   2.221   1.556   0.577 -0.2050 -0.6515  1.1258
 5810TIP3    H238922   2.164   1.454   0.480  0.4666 -1.2495  1.3478
 5811TIP3   OH238923   1.438   1.639   4.554 -0.4454  0.4165  0.6778
 5811TIP3    H138924   1.522   1.602   4.528 -0.9616 -0.2683 -0.0651
 5811TIP3    H238925   1.373   1.572   4.530 -1.5473  2.2024 -1.8436
 5812TIP3   OH238926   4.242   4.953  13.351 -0.4070 -0.1333  0.3974
 5812TIP3    H138927   4.319   4.900  13.372 -1.3518 -1.4760  0.5976
 5812TIP3    H238928   4.235   4.950  13.256 -0.0175  0.2653  0.3578
 5813TIP3   OH238929   3.346   0.466   0.536 -0.0718 -0.2039 -0.0373
 5813TIP3    H138930   3.377   0.532   0.473  2.1246  0.4240  1.5800
 5813TIP3    H238931   3.306   0.398   0.481  0.4366  0.9825 -1.9921
 5814TIP3   OH238932   5.729   1.277  16.897  0.2208  0.1898  0.2715
 5814TIP3    H138933   5.736   1.246  16.806 -0.8930  0.8283 -0.0521
 5814TIP3    H238934   5.807   1.331  16.910  0.2529  0.3182 -0.4102
 5815TIP3   OH238935   6.026   1.934  14.894 -0.0440 -0.0996  0.3566
 5815TIP3    H138936   6.117   1.958  14.878  0.0787 -0.8034 -0.0293
 5815TIP3    H238937   5.980   2.018  14.898  0.3290  0.2198 -1.2469
 5816TIP3   OH238938   1.202   2.240  13.668 -0.0036  0.0305  0.3728
 5816TIP3    H138939   1.295   2.219  13.680  0.0020 -0.4984 -0.4581
 5816TIP3    H238940   1.196   2.265  13.576 -0.6826  0.0748  0.4288
 5817TIP3   OH238941   4.812   0.871   5.910  0.4906  0.0531  0.4312
 5817TIP3    H138942   4.784   0.896   5.821  0.0840  3.1656  1.3099
 5817TIP3    H238943   4.902   0.903   5.917 -0.1487  1.6962  1.7402
 5818TIP3   OH238944   0.553   1.933  16.541 -0.1819 -0.6077 -0.4331
 5818TIP3    H138945   0.622   1.978  16.492 -1.5092  0.2170 -1.6107
 5818TIP3    H238946   0.546   1.847  16.499 -0.5643 -0.3128 -0.9754
 5819TIP3   OH238947   3.658   5.280   5.553 -0.1243  0.1764  0.5498
 5819TIP3    H138948   3.679   5.326   5.634 -1.1190  2.8699 -0.5993
 5819TIP3    H238949   3.713   5.323   5.487 -1.6909  0.3364 -0.7242
 5820TIP3   OH238950   6.125   3.857  15.793 -0.0014  0.0205  0.1318
 5820TIP3    H138951   6.069   3.804  15.736 -0.1717 -1.3071  1.4850
 5820TIP3    H238952   6.211   3.852  15.751 -0.3761  0.1096 -0.6769
 5821TIP3   OH238953   5.990   0.484   3.355  0.5179  0.0577 -0.4743
 5821TIP3    H138954   5.963   0.474   3.264  0.3640 -0.0082 -0.4213
 5821TIP3    H238955   6.042   0.406   3.374  2.7635  1.2341 -1.2844
 5822TIP3   OH238956   2.545   2.423  14.232 -0.0315 -0.0499 -0.7113
 5822TIP3    H138957   2.474   2.403  14.171  0.4917 -2.3211 -0.6692
 5822TIP3    H238958   2.522   2.375  14.312  0.5720  0.8068 -0.0041
 5823TIP3   OH238959   2.999   1.547   1.628 -0.0099 -0.1884  0.6162
 5823TIP3    H138960   3.052   1.555   1.708 -1.7274 -2.1090  2.0689
 5823TIP3    H238961   3.059   1.513   1.562  1.5870  1.9558  0.8712
 5824TIP3   OH238962   1.101   0.485  15.238  0.2447  0.2891 -0.0152
 5824TIP3    H138963   1.093   0.405  15.186 -0.5471  0.2822  0.1023
 5824TIP3    H238964   1.145   0.547  15.180  1.3291 -0.3834  0.0752
 5825TIP3   OH238965   1.625   6.179  12.937 -0.1165  0.6926 -0.2485
 5825TIP3    H138966   1.681   6.107  12.909  0.5425  1.1252 -0.0518
 5825TIP3    H238967   1.631   6.244  12.867 -0.9244  0.4503 -0.5539
 5826TIP3   OH238968   5.498   5.862   0.893 -0.3923 -0.2518  0.1655
 5826TIP3    H138969   5.433   5.801   0.928 -0.8467  0.7331  1.1088
 5826TIP3    H238970   5.576   5.849   0.949 -0.0357 -0.8815 -0.4681
 5827TIP3   OH238971   2.389   0.211   6.248 -0.3697 -0.3123 -0.5902
 5827TIP3    H138972   2.436   0.161   6.314 -0.0855 -1.1278 -1.3955
 5827TIP3    H238973   2.305   0.232   6.289 -0.7069 -1.9068 -0.4229
 5828TIP3   OH238974   5.907   4.212  13.357  0.0446  0.1570 -0.0073
 5828TIP3    H138975   5.952   4.222  13.273 -0.8514  2.0218 -0.3196
 5828TIP3    H238976   5.943   4.282  13.411 -0.8529  0.2445  0.4849
 5829TIP3   OH238977   0.570   4.637  14.558  0.3004  0.1014 -0.1488
 5829TIP3    H138978   0.546   4.729  14.570 -2.1982 -0.6532  1.3625
 5829TIP3    H238979   0.539   4.594  14.638  0.2944 -2.2761 -1.3592
 5830TIP3   OH238980   5.690   4.353  11.241  0.4186 -0.1867  0.1273
 5830TIP3    H138981   5.764   4.293  11.231  0.3743 -0.4299  1.1816
 5830TIP3    H238982   5.718   4.416  11.307 -0.4878 -0.5724  0.9040
 5831TIP3   OH238983   5.622   2.430   5.850  0.0313 -0.0800  0.6684
 5831TIP3    H138984   5.711   2.426   5.814 -0.7865 -1.3247 -1.3687
 5831TIP3    H238985   5.598   2.522   5.844  0.9898  0.1809  0.7322
 5832TIP3   OH238986   3.965   0.395   4.349  0.2298  0.0251 -0.1043
 5832TIP3    H138987   4.024   0.468   4.368 -0.4946  0.9734 -1.3689
 5832TIP3    H238988   3.990   0.366   4.262  0.7124 -1.4769  0.5040
 5833TIP3   OH238989   4.619   4.832  15.759  0.1409  0.0677  0.1723
 5833TIP3    H138990   4.659   4.868  15.680 -1.1963 -2.1557 -1.6532
 5833TIP3    H238991   4.671   4.753  15.778 -0.5644 -0.3249  0.5114
 5834TIP3   OH238992   4.340   6.680  15.355  0.2916  0.0721  1.0389
 5834TIP3    H138993   4.359   6.587  15.362  0.6387  0.1212  0.7773
 5834TIP3    H238994   4.416   6.717  15.309 -1.7098 -0.2188 -2.9102
 5835TIP3   OH238995   2.751   1.769   1.953  0.2682  0.6628  0.0455
 5835TIP3    H138996   2.670   1.765   2.004 -0.0967  0.8157 -0.5022
 5835TIP3    H238997   2.774   1.678   1.937  0.6960  0.6028  0.9469
 5836TIP3   OH238998   0.305   3.224  14.940  0.3090  0.2482 -0.1641
 5836TIP3    H138999   0.236   3.161  14.961 -0.7290  0.7516 -1.8824
 5836TIP3    H239000   0.295   3.293  15.005 -1.2811  0.6508 -0.7907
 5837TIP3   OH239001   5.107   3.595   5.418 -0.4015  0.2129 -0.4131
 5837TIP3    H139002   5.141   3.680   5.392  2.1727 -0.5702  0.0219
 5837TIP3    H239003   5.069   3.609   5.505  0.0789  0.9111 -0.3096
 5838TIP3   OH239004   2.254   4.666  11.465 -0.3667  0.1917  0.0512
 5838TIP3    H139005   2.293   4.617  11.538 -0.5265 -0.4392 -0.2775
 5838TIP3    H239006   2.317   4.735  11.447  0.2484 -0.3647  0.0216
 5839TIP3   OH239007   0.967   5.080  12.381  0.3574  0.4483  0.5769
 5839TIP3    H139008   1.051   5.121  12.359 -0.6143  2.2882  0.0811
 5839TIP3    H239009   0.934   5.131  12.455  0.1605 -0.9700  1.4985
 5840TIP3   OH239010   5.282   4.896   4.440  0.3658 -0.4667  0.0468
 5840TIP3    H139011   5.214   4.951   4.478 -0.6366 -0.3518 -1.7723
 5840TIP3    H239012   5.363   4.947   4.452 -0.0866  0.0642  0.9425
 5841TIP3   OH239013   6.285   2.684   1.846 -0.0300  0.8606 -0.0611
 5841TIP3    H139014   6.356   2.748   1.834  0.6876  0.0582 -0.1562
 5841TIP3    H239015   6.208   2.738   1.864  0.2350  1.8345 -1.6524
 5842TIP3   OH239016   6.049   1.435   5.905 -0.3799 -0.3082  0.5055
 5842TIP3    H139017   5.989   1.420   5.978 -1.2029  0.1784 -0.0510
 5842TIP3    H239018   6.025   1.521   5.872  1.9763  0.8313  1.5187
 5843TIP3   OH239019   0.132   6.772   0.014  0.1593 -0.9217  0.2923
 5843TIP3    H139020   0.090   6.766  -0.072  0.3139 -1.0451  0.2256
 5843TIP3    H239021   0.193   6.845   0.006  0.0679 -0.8404  0.3413
 5844TIP3   OH239022   2.113   5.378   4.548  0.6107 -0.0329 -0.2899
 5844TIP3    H139023   2.113   5.430   4.628 -2.4484 -2.6481  1.6350
 5844TIP3    H239024   2.079   5.437   4.481 -1.0240  1.0371  1.3913
 5845TIP3   OH239025   4.609   5.761   1.868 -0.1095  0.6932  0.1107
 5845TIP3    H139026   4.618   5.817   1.791  0.2637  1.9879  1.0461
 5845TIP3    H239027   4.605   5.672   1.834  0.9990  1.1664 -1.3438
 5846TIP3   OH239028   2.925   4.701   2.087  0.2620 -0.2207  0.1832
 5846TIP3    H139029   2.843   4.723   2.041  0.4394 -0.6099 -0.3296
 5846TIP3    H239030   2.927   4.761   2.162 -0.0254  0.4506 -0.3292
 5847TIP3   OH239031   4.359   3.638   3.443  0.4462  0.2227 -0.1637
 5847TIP3    H139032   4.359   3.731   3.466  2.0411 -0.1906  1.7474
 5847TIP3    H239033   4.291   3.599   3.497  2.5208 -0.3339  2.1947
 5848TIP3   OH239034   3.603   5.954   4.857 -0.0317  0.5426  0.0722
 5848TIP3    H139035   3.607   5.898   4.779 -0.1975  0.1522  0.3394
 5848TIP3    H239036   3.688   5.997   4.860 -0.2676  1.0886 -0.7085
 5849TIP3   OH239037   1.763   4.808  14.594  0.3018 -0.3395  0.5215
 5849TIP3    H139038   1.838   4.837  14.543  2.9218 -2.8813  2.5912
 5849TIP3    H239039   1.725   4.889  14.629  2.3448  1.0337 -0.2583
 5850TIP3   OH239040   1.293   3.419  14.663 -0.3987  0.3080  0.0636
 5850TIP3    H139041   1.368   3.442  14.718  1.4307 -1.0982 -1.6978
 5850TIP3    H239042   1.235   3.495  14.669  1.7535  2.0195  0.5118
 5851TIP3   OH239043   2.551   4.691   5.484  0.0593  0.5534 -0.2137
 5851TIP3    H139044   2.559   4.662   5.393  0.2034  2.4530 -0.8457
 5851TIP3    H239045   2.545   4.610   5.535 -0.4336 -0.5320 -1.9409
 5852TIP3   OH239046   6.674   6.174  16.774 -0.3351 -0.2432 -0.0652
 5852TIP3    H139047   6.753   6.132  16.810 -0.5997  0.8557  1.9259
 5852TIP3    H239048   6.630   6.212  16.850  0.1647  4.2033 -1.7051
 5853TIP3   OH239049   4.499   5.637   5.800  0.0276  1.0934  0.0582
 5853TIP3    H139050   4.459   5.575   5.861 -0.6300  1.6073  0.1732
 5853TIP3    H239051   4.446   5.716   5.809  0.6455  1.5629 -0.3242
 5854TIP3   OH239052   6.199   3.890   4.079 -0.4426 -0.0084  0.0417
 5854TIP3    H139053   6.220   3.855   3.993 -2.3123 -2.2339  0.3896
 5854TIP3    H239054   6.273   3.865   4.134  0.5581  1.0466 -0.7846
 5855TIP3   OH239055   5.924   1.679  13.740 -0.2103 -0.2418  0.3299
 5855TIP3    H139056   6.009   1.698  13.699 -0.1492 -2.1064 -0.4993
 5855TIP3    H239057   5.914   1.584  13.732 -2.3084 -0.0888  0.5964
 5856TIP3   OH239058   5.034   4.541  14.212  0.4437 -0.7786  0.3692
 5856TIP3    H139059   5.020   4.449  14.231 -1.9714 -1.0414 -2.1181
 5856TIP3    H239060   5.058   4.543  14.119 -2.5353  1.1608 -0.5193
 5857TIP3   OH239061   2.575   5.144   4.571  0.2466 -0.2588 -0.3889
 5857TIP3    H139062   2.548   5.053   4.584 -1.2286  0.1142 -0.5972
 5857TIP3    H239063   2.656   5.138   4.521  0.2001 -1.4617 -0.3507
 5858TIP3   OH239064   4.383   0.865  16.346 -0.2368 -0.8037  0.0734
 5858TIP3    H139065   4.421   0.919  16.277 -2.3971  0.7293 -0.0265
 5858TIP3    H239066   4.392   0.776  16.314 -0.4447 -0.1898 -1.8418
 5859TIP3   OH239067   6.006   0.535  16.417 -0.2119 -0.2333  0.5415
 5859TIP3    H139068   6.099   0.540  16.395 -0.1619  0.1785  0.8455
 5859TIP3    H239069   5.963   0.523  16.332  0.2421 -2.5089  0.5511
 5860TIP3   OH239070   0.914   6.026  10.633  0.1659  0.2670 -0.2612
 5860TIP3    H139071   0.892   5.992  10.547  0.9945 -0.6273 -0.1422
 5860TIP3    H239072   0.894   5.954  10.693  0.4467  0.5502  0.1846
 5861TIP3   OH239073   1.658   2.580  15.412 -0.4855 -0.7121 -0.4667
 5861TIP3    H139074   1.702   2.658  15.446  0.7258 -0.5269 -2.3116
 5861TIP3    H239075   1.566   2.591  15.438 -0.1333  0.7697  0.2691
 5862TIP3   OH239076   3.664   1.989  13.140 -0.1342 -0.2658  0.2813
 5862TIP3    H139077   3.742   1.934  13.140  0.3231  0.3641  0.1836
 5862TIP3    H239078   3.604   1.946  13.200 -0.2518 -1.4963 -0.6844
 5863TIP3   OH239079   4.840   4.071  11.824 -0.3454 -0.2698 -0.0116
 5863TIP3    H139080   4.829   4.155  11.869 -0.8474  0.0274 -0.6746
 5863TIP3    H239081   4.767   4.068  11.762  0.2795 -0.7144 -0.7316
 5864TIP3   OH239082   4.133   3.809  11.419 -0.0411  0.2996 -0.3519
 5864TIP3    H139083   4.079   3.846  11.488 -0.5348 -0.0271 -0.5606
 5864TIP3    H239084   4.071   3.769  11.358  0.0363  3.6423 -2.8964
 5865TIP3   OH239085   3.068   1.258  16.323 -0.1024  0.0768 -0.3640
 5865TIP3    H139086   3.132   1.315  16.367 -0.2768 -0.7572  1.0345
 5865TIP3    H239087   3.048   1.190  16.388 -0.8253 -0.8778 -1.5484
 5866TIP3   OH239088   5.090   1.998   5.218  0.0379 -0.8728  0.3029
 5866TIP3    H139089   5.074   2.032   5.305  1.2140 -1.3594  0.7402
 5866TIP3    H239090   5.057   1.908   5.221 -4.0050  0.3565 -1.1556
 5867TIP3   OH239091   1.749   6.163  11.194 -0.1578 -0.0203  0.5691
 5867TIP3    H139092   1.682   6.150  11.261  0.8294 -0.9251  1.4209
 5867TIP3    H239093   1.830   6.178  11.244  0.5524 -0.5004 -0.4064
 5868TIP3   OH239094   3.957   1.551  11.321  0.0160  0.1553 -0.1316
 5868TIP3    H139095   3.911   1.554  11.405 -0.7136  0.3923 -0.5335
 5868TIP3    H239096   3.895   1.586  11.258  0.5215 -0.1179 -0.7957
 5869TIP3   OH239097   1.632   3.609  15.398  0.3044  0.3041  0.8050
 5869TIP3    H139098   1.605   3.544  15.332 -0.2690  0.5816  0.7660
 5869TIP3    H239099   1.708   3.569  15.440 -0.5092 -0.7406  1.3093
 5870TIP3   OH239100   2.403   5.358  11.043  0.2860  0.6340 -0.2694
 5870TIP3    H139101   2.474   5.416  11.073  0.5641  0.3947 -0.4615
 5870TIP3    H239102   2.415   5.352  10.949  1.0216 -0.7370 -0.1046
 5871TIP3   OH239103   1.402   0.144   1.098 -0.4965  0.4193 -0.2728
 5871TIP3    H139104   1.456   0.199   1.041  0.1125 -1.6327 -1.7959
 5871TIP3    H239105   1.450   0.062   1.106 -0.3700  0.6727  3.5908
 5872TIP3   OH239106   4.784   4.874  12.048 -0.3428  0.3040  0.0275
 5872TIP3    H139107   4.719   4.836  11.990 -0.5579  0.4776  0.1552
 5872TIP3    H239108   4.828   4.940  11.995  1.6998 -1.7420 -0.9832
 5873TIP3   OH239109   4.991   2.731   4.766  0.5332 -0.4343  0.8221
 5873TIP3    H139110   4.956   2.783   4.839  0.8670 -2.3380  2.4436
 5873TIP3    H239111   4.918   2.677   4.737  0.5118  0.0264  0.0215
 5874TIP3   OH239112   2.283   2.655  12.376 -0.5810  0.0562 -0.0067
 5874TIP3    H139113   2.370   2.650  12.336 -0.9878  1.5825 -1.1896
 5874TIP3    H239114   2.224   2.666  12.302 -1.7624 -0.7034  0.8021
 5875TIP3   OH239115   6.578   2.469   4.941 -0.1494 -0.0716 -0.2435
 5875TIP3    H139116   6.605   2.393   4.994 -3.2787 -0.8519  0.4826
 5875TIP3    H239117   6.584   2.439   4.851 -1.6920 -1.4292  0.0450
 5876TIP3   OH239118   5.171   0.045  16.078  0.3462  0.0667 -0.4347
 5876TIP3    H139119   5.134   0.125  16.117  0.0415 -0.8777  1.3325
 5876TIP3    H239120   5.201   0.072  15.991  2.2666  2.6680  0.8854
 5877TIP3   OH239121   1.830   6.029  16.761  0.5807  0.1270  0.6829
 5877TIP3    H139122   1.837   6.026  16.856  0.4798 -0.0276  0.6868
 5877TIP3    H239123   1.915   5.999  16.730  0.2788 -0.8267  0.7264
 5878TIP3   OH239124   3.461   2.929   5.712 -0.4650 -0.2146 -0.1692
 5878TIP3    H139125   3.487   2.843   5.745 -1.1885  0.4161  2.2074
 5878TIP3    H239126   3.400   2.963   5.777 -1.1595  1.6205 -1.6632
 5879TIP3   OH239127   4.660   5.031  13.626 -0.2165 -0.2814  0.3519
 5879TIP3    H139128   4.673   5.049  13.532  1.3019 -1.3383  0.3205
 5879TIP3    H239129   4.586   5.087  13.651 -0.9184 -0.2697 -1.5631
 5880TIP3   OH239130   6.169   3.699  14.162  0.2576 -0.4294 -0.3104
 5880TIP3    H139131   6.256   3.684  14.124  1.2578 -0.1979  1.7421
 5880TIP3    H239132   6.157   3.625  14.222 -1.5683 -1.1627 -1.5170
 5881TIP3   OH239133   1.970   2.871   1.216 -0.1377 -0.3999  0.0215
 5881TIP3    H139134   1.958   2.800   1.279 -0.6007  0.1871  0.6148
 5881TIP3    H239135   1.884   2.913   1.211  0.3722  0.7578  0.4774
 5882TIP3   OH239136   1.529   1.659  15.165 -0.4963  0.3512  0.3448
 5882TIP3    H139137   1.449   1.700  15.198  0.2877  0.7499  1.8664
 5882TIP3    H239138   1.599   1.697  15.219  0.5894 -0.7910 -0.2090
 5883TIP3   OH239139   4.277   1.095  13.214  0.3265  0.0068 -0.0635
 5883TIP3    H139140   4.324   1.076  13.134 -0.2069 -0.2245 -0.3269
 5883TIP3    H239141   4.209   1.028  13.218  0.4278 -0.0636  0.6475
 5884TIP3   OH239142   2.876   3.518  14.832  0.0059  0.0382 -0.3182
 5884TIP3    H139143   2.970   3.502  14.823  0.3542  0.8446  1.3992
 5884TIP3    H239144   2.857   3.589  14.770  0.6230  0.1320 -0.4037
 5885TIP3   OH239145   5.015   4.838  12.577  0.6166 -0.0033  1.1158
 5885TIP3    H139146   4.962   4.762  12.555  1.5912 -0.8725  1.6719
 5885TIP3    H239147   5.029   4.884  12.494 -1.3825  0.5316  1.0237
 5886TIP3   OH239148   0.511   4.396  12.521 -0.2754 -0.9721 -0.3760
 5886TIP3    H139149   0.470   4.406  12.607  2.2284 -3.1014  1.1988
 5886TIP3    H239150   0.482   4.310  12.491 -1.5613 -0.0248 -1.9962
 5887TIP3   OH239151   1.238   3.581   1.587 -0.1556  0.0690  0.0089
 5887TIP3    H139152   1.154   3.552   1.552  0.3076 -1.8451  0.3845
 5887TIP3    H239153   1.300   3.567   1.516 -0.2629  2.5760 -0.6889
 5888TIP3   OH239154   5.087   4.536   0.081  0.5985 -0.1864 -0.0584
 5888TIP3    H139155   5.106   4.572  -0.006  2.4249 -1.0639 -0.0632
 5888TIP3    H239156   5.136   4.592   0.141 -0.3246  0.1582  0.4010
 5889TIP3   OH239157   6.297   5.638   1.461  0.2889  0.1332  0.0927
 5889TIP3    H139158   6.278   5.709   1.522 -1.6002 -0.2916  0.0668
 5889TIP3    H239159   6.376   5.666   1.414  1.1553  0.9532  1.9535
 5890TIP3   OH239160   5.546   1.033   2.539 -0.2079  0.1290 -0.2276
 5890TIP3    H139161   5.639   1.014   2.548 -0.2689  0.2307  0.7117
 5890TIP3    H239162   5.529   1.026   2.445  0.1427 -2.7668 -0.1670
 5891TIP3   OH239163   0.979   2.238  13.814 -0.4299 -0.5763 -0.3341
 5891TIP3    H139164   1.050   2.242  13.751 -0.7761  0.8073 -0.6549
 5891TIP3    H239165   0.927   2.162  13.787 -1.2286  0.6484 -2.4403
 5892TIP3   OH239166   4.033   4.909  13.511 -0.0656 -0.1590  0.4051
 5892TIP3    H139167   4.092   4.923  13.436 -0.7124  0.5868  0.0196
 5892TIP3    H239168   4.064   4.971  13.577 -1.6384  1.7739 -0.5461
 5893TIP3   OH239169   3.539   3.094  11.993  0.0935 -0.1964 -0.6654
 5893TIP3    H139170   3.582   3.167  11.947  1.1902  0.0452  0.6423
 5893TIP3    H239171   3.612   3.047  12.035 -0.8709  0.0532  1.4113
 5894TIP3   OH239172   6.567   5.248   6.275  0.5575  0.2149 -0.2234
 5894TIP3    H139173   6.566   5.152   6.278  0.9908  0.2306  0.8461
 5894TIP3    H239174   6.522   5.275   6.355 -1.2847  0.9332 -1.4381
 5895TIP3   OH239175   4.004   3.272   5.500 -0.1558 -0.7611  0.0166
 5895TIP3    H139176   3.916   3.253   5.532 -0.5232  0.2996 -0.3340
 5895TIP3    H239177   4.033   3.189   5.461 -1.7409 -0.6596 -1.5373
 5896TIP3   OH239178   4.820   0.601   1.888 -0.0336 -0.5545 -0.2236
 5896TIP3    H139179   4.858   0.578   1.803 -1.6989  1.2623 -1.5536
 5896TIP3    H239180   4.790   0.691   1.877  1.1413  0.3599  2.8481
 5897TIP3   OH239181   6.616   2.924   5.843  0.2926 -0.6156 -0.4560
 5897TIP3    H139182   6.696   2.976   5.835 -0.4046  0.4962 -0.4781
 5897TIP3    H239183   6.585   2.913   5.753 -0.1263 -0.1388 -0.3754
 5898TIP3   OH239184   6.385   4.859  13.597 -0.0579 -0.2027  0.3341
 5898TIP3    H139185   6.410   4.893  13.511 -0.2990  2.8221  1.3611
 5898TIP3    H239186   6.322   4.789  13.578  0.8740 -0.5024 -1.9472
 5899TIP3   OH239187   5.934   3.045   6.467  0.2684 -0.3882 -0.5623
 5899TIP3    H139188   5.859   3.104   6.458  0.1695 -0.7776 -2.7018
 5899TIP3    H239189   5.904   2.980   6.531 -1.5726 -1.0089 -1.9696
 5900TIP3   OH239190   1.618   1.064   3.060 -0.5965 -0.1598 -0.6638
 5900TIP3    H139191   1.664   1.021   3.131 -0.9652 -0.5640 -0.6679
 5900TIP3    H239192   1.540   1.102   3.100 -0.3787  0.3402 -0.6974
 5901TIP3   OH239193   5.560   3.258  14.755 -0.3116 -0.4751  0.6523
 5901TIP3    H139194   5.612   3.300  14.686 -0.1445 -0.9678  0.4738
 5901TIP3    H239195   5.490   3.320  14.773 -0.1185 -0.1562  0.3316
 5902TIP3   OH239196   4.641   4.357  14.226 -0.1663  0.1356 -0.0227
 5902TIP3    H139197   4.670   4.363  14.317  0.5908  1.4083 -0.3183
 5902TIP3    H239198   4.559   4.308  14.230 -1.1387  1.7368  1.5951
 5903TIP3   OH239199   4.824   3.725   3.490 -0.2370  0.2186 -0.2355
 5903TIP3    H139200   4.864   3.649   3.447  2.9003  0.8402  1.2604
 5903TIP3    H239201   4.759   3.687   3.549  0.6827 -1.2740 -0.1103
 5904TIP3   OH239202   4.799   2.570  14.418  0.1882 -0.1226 -0.4868
 5904TIP3    H139203   4.772   2.657  14.388  1.9759  1.1518  1.3236
 5904TIP3    H239204   4.895   2.572  14.416  0.3683 -3.0546 -2.9131
 5905TIP3   OH239205   4.891   0.895   3.222  0.0402 -0.7373  0.3312
 5905TIP3    H139206   4.811   0.843   3.216 -0.7136  0.2980  0.9125
 5905TIP3    H239207   4.904   0.909   3.316  1.3333 -1.5005  0.2864
 5906TIP3   OH239208   2.404   3.548   1.028 -0.2205  0.1294 -0.0797
 5906TIP3    H139209   2.416   3.636   0.991  0.3004  0.5557  1.0532
 5906TIP3    H239210   2.346   3.562   1.103 -0.1209 -0.4990  0.1164
 5907TIP3   OH239211   0.520   2.130  16.945  0.6632 -0.6065 -0.3293
 5907TIP3    H139212   0.569   2.066  16.894  0.8317 -1.0629  0.3843
 5907TIP3    H239213   0.586   2.182  16.989  0.5197 -0.7596  0.0755
 5908TIP3   OH239214   6.557   1.968  11.939 -0.6567 -0.0707 -0.5632
 5908TIP3    H139215   6.544   2.026  12.013 -0.7059 -1.5341  0.6197
 5908TIP3    H239216   6.609   2.019  11.877 -1.4569  1.5292  0.0121
 5909TIP3   OH239217   1.468   2.682  13.244  0.1129 -0.1460  0.4087
 5909TIP3    H139218   1.539   2.744  13.233 -1.9085  2.2253 -0.1681
 5909TIP3    H239219   1.490   2.633  13.323  2.6719 -0.0187 -0.1418
 5910TIP3   OH239220   3.864   1.531  16.548 -0.7576  0.2128 -0.0140
 5910TIP3    H139221   3.899   1.492  16.468 -1.5281  0.7887 -0.6443
 5910TIP3    H239222   3.861   1.459  16.611  1.6032  0.1386  0.1062
 5911TIP3   OH239223   2.177   0.166   4.307 -0.1318  0.2711 -0.0885
 5911TIP3    H139224   2.172   0.077   4.271  2.2592 -0.4697  1.1802
 5911TIP3    H239225   2.139   0.158   4.395  1.1558  0.2019  0.4742
 5912TIP3   OH239226   1.343   5.858   3.320 -0.2532  0.3298 -0.4635
 5912TIP3    H139227   1.409   5.843   3.388 -1.2139 -1.1317  0.1890
 5912TIP3    H239228   1.394   5.875   3.240  0.8852  1.4242  0.4616
 5913TIP3   OH239229   5.400   5.219   4.436 -0.0349 -0.1405 -0.6005
 5913TIP3    H139230   5.400   5.302   4.484 -0.4985  0.3957 -1.5035
 5913TIP3    H239231   5.308   5.193   4.432 -0.4054  1.2016 -3.4388
 5914TIP3   OH239232   3.277   1.586  13.639  0.4607  0.5823  0.0471
 5914TIP3    H139233   3.270   1.491  13.647  0.8084  0.3568 -1.8515
 5914TIP3    H239234   3.187   1.617  13.640  0.0463 -0.1980 -3.0503
 5915TIP3   OH239235   1.619   3.725  17.110  0.4256  0.1755 -0.1776
 5915TIP3    H139236   1.598   3.799  17.053 -2.1633  1.8145  2.6160
 5915TIP3    H239237   1.555   3.658  17.087  0.1262  0.3973 -0.0023
 5916TIP3   OH239238   3.277   6.299  14.209  0.2824  0.1998  0.0126
 5916TIP3    H139239   3.212   6.235  14.238 -1.3608  0.3346 -2.8965
 5916TIP3    H239240   3.347   6.247  14.170 -0.5844  0.0890 -1.4616
 5917TIP3   OH239241   0.598   2.148   2.327  0.0321  0.4563  0.0495
 5917TIP3    H139242   0.643   2.171   2.409  2.5611 -0.4990 -0.9528
 5917TIP3    H239243   0.613   2.224   2.270  0.2139  0.2117 -0.2306
 5918TIP3   OH239244   2.469   2.626   0.780  0.3645 -0.0434 -0.1268
 5918TIP3    H139245   2.416   2.569   0.724  0.1258  0.9370 -0.9413
 5918TIP3    H239246   2.457   2.591   0.868 -0.7821 -0.4995 -0.4431
 5919TIP3   OH239247   5.834   1.208   5.826 -0.1057 -0.1075  0.4732
 5919TIP3    H139248   5.915   1.260   5.820  0.5896 -1.2484 -0.3804
 5919TIP3    H239249   5.771   1.256   5.772  0.0018  0.7478  1.0832
 5920TIP3   OH239250   2.812   1.326   3.577  0.0603  0.3916  0.2450
 5920TIP3    H139251   2.817   1.404   3.521 -1.3212  0.6412  0.4160
 5920TIP3    H239252   2.742   1.347   3.639 -1.3377 -1.5259 -0.5760
 5921TIP3   OH239253   2.934   1.352   1.040 -0.0901 -0.0866  0.3054
 5921TIP3    H139254   2.971   1.433   1.076  0.9949 -0.6208  0.4453
 5921TIP3    H239255   2.906   1.302   1.116 -0.4258 -0.0073  0.2373
 5922TIP3   OH239256   3.377   5.248  12.172 -0.2567 -0.1373 -0.2319
 5922TIP3    H139257   3.320   5.322  12.196  0.0750 -0.1819  0.7092
 5922TIP3    H239258   3.463   5.271  12.206  0.0688 -0.5362 -0.7651
 5923TIP3   OH239259   1.946   2.362   2.732  0.7086  0.4305 -0.4938
 5923TIP3    H139260   2.033   2.398   2.747 -0.3458  2.4818  1.3459
 5923TIP3    H239261   1.904   2.363   2.818 -1.8174  1.5517 -1.6105
 5924TIP3   OH239262   1.729   1.769  15.329  0.0639  0.1826 -0.3536
 5924TIP3    H139263   1.750   1.852  15.288 -0.1075  0.1673 -0.4709
 5924TIP3    H239264   1.803   1.712  15.306  1.6302  1.0758  2.0369
 5925TIP3   OH239265   4.283   6.763   5.234 -0.2274 -1.3624 -0.5950
 5925TIP3    H139266   4.290   6.752   5.139  1.2276 -2.3059 -0.4055
 5925TIP3    H239267   4.373   6.774   5.263 -0.6568 -1.1483  0.6991
 5926TIP3   OH239268   0.138   2.466  10.551 -0.1695 -0.0418  0.0674
 5926TIP3    H139269   0.217   2.444  10.503 -0.3912  0.1577 -0.3935
 5926TIP3    H239270   0.113   2.553  10.518 -1.4229 -0.7365 -0.8951
 5927TIP3   OH239271   1.423   0.837   4.324  0.9773  0.4060  0.5353
 5927TIP3    H139272   1.454   0.747   4.321 -1.7320 -0.6176  0.1488
 5927TIP3    H239273   1.377   0.850   4.241 -2.0469  0.7006  2.0740
 5928TIP3   OH239274   3.726   5.794  11.187 -0.2706 -0.0018 -0.5176
 5928TIP3    H139275   3.737   5.752  11.273 -2.2229 -0.0406 -0.2366
 5928TIP3    H239276   3.744   5.723  11.125 -1.0624 -0.5908 -0.0921
 5929TIP3   OH239277   0.754   0.021  12.739 -0.1970 -0.0338  0.1598
 5929TIP3    H139278   0.690   0.003  12.670 -0.0514  0.6651 -0.1603
 5929TIP3    H239279   0.702   0.048  12.814 -0.2977  0.2001  0.0062
 5930TIP3   OH239280   3.858   4.658   4.026  0.2477 -0.3351  0.0713
 5930TIP3    H139281   3.781   4.607   4.054  0.2303  0.2434  1.1415
 5930TIP3    H239282   3.928   4.630   4.084  0.1819  0.9986  0.8257
 5931TIP3   OH239283   2.580   0.301   6.050  0.1685 -0.0973 -0.4089
 5931TIP3    H139284   2.659   0.321   6.100 -1.0825  1.5314  1.0450
 5931TIP3    H239285   2.512   0.289   6.116 -1.2380  0.5707 -1.6817
 5932TIP3   OH239286   2.993   4.912  14.427  0.0191 -0.7255  0.0942
 5932TIP3    H139287   2.927   4.980  14.441 -0.9898 -1.7120  0.3077
 5932TIP3    H239288   3.074   4.960  14.411 -1.2618  0.6236 -3.1611
 5933TIP3   OH239289   1.467   3.951   3.204  0.4711 -0.3906  0.0469
 5933TIP3    H139290   1.382   3.911   3.222 -0.1258 -1.7865 -4.4174
 5933TIP3    H239291   1.531   3.880   3.217  0.5316 -0.2722  0.3882
 5934TIP3   OH239292   6.686   4.060   1.413 -0.3104  0.0565 -0.5127
 5934TIP3    H139293   6.715   3.995   1.348  1.1077  0.2568 -0.1132
 5934TIP3    H239294   6.717   4.143   1.378  0.6813  0.1387  0.5211
 5935TIP3   OH239295   6.802   5.275   0.419 -0.7240  0.0589 -0.1916
 5935TIP3    H139296   6.879   5.292   0.474 -1.3746 -0.8599  1.0600
 5935TIP3    H239297   6.836   5.226   0.345 -0.1945 -1.0779  0.7654
 5936TIP3   OH239298   3.245   1.078  16.182 -0.5706  0.6095 -0.1620
 5936TIP3    H139299   3.236   1.002  16.239  1.0270  0.5835  0.0960
 5936TIP3    H239300   3.179   1.140  16.214 -2.3276 -0.8688 -0.7728
 5937TIP3   OH239301   1.029   5.071   0.886 -0.1182 -0.7891 -0.4687
 5937TIP3    H139302   0.981   5.047   0.806 -1.5428  1.5349 -0.4083
 5937TIP3    H239303   0.996   5.158   0.908  0.4204 -1.2495  2.5402
 5938TIP3   OH239304   4.286   1.551   4.668 -0.6590 -0.0991 -0.4275
 5938TIP3    H139305   4.353   1.607   4.708 -1.6444 -0.6920  2.2920
 5938TIP3    H239306   4.334   1.473   4.640  0.4466  1.2978 -2.7138
 5939TIP3   OH239307   3.763   0.599  11.780 -0.1058 -0.4685 -0.6568
 5939TIP3    H139308   3.700   0.569  11.846  0.6451  0.8705  0.7470
 5939TIP3    H239309   3.720   0.675  11.739  0.5672  0.4953  0.3576
 5940TIP3   OH239310   5.266   3.663  15.893 -0.2785  0.2406  0.0725
 5940TIP3    H139311   5.343   3.654  15.950  2.2886  1.9640 -2.7985
 5940TIP3    H239312   5.255   3.758  15.882 -1.2433 -0.0187 -1.5176
 5941TIP3   OH239313   4.218   1.060   5.860  0.7586  0.1633  0.3760
 5941TIP3    H139314   4.305   1.022   5.845  0.5161 -0.4324  0.4745
 5941TIP3    H239315   4.172   0.995   5.913  1.4927  2.0290  3.5514
 5942TIP3   OH239316   1.445   0.468   0.974  0.5982  0.4743 -0.0752
 5942TIP3    H139317   1.408   0.483   0.887  2.1645 -2.4975 -1.4025
 5942TIP3    H239318   1.370   0.439   1.027  0.2101 -1.4912 -1.5920
 5943TIP3   OH239319   6.083   2.503   3.595 -0.1016  0.6653  0.3818
 5943TIP3    H139320   6.148   2.506   3.665  1.5940  2.5025 -1.1809
 5943TIP3    H239321   6.109   2.571   3.534 -2.4535  0.2147 -1.2746
 5944TIP3   OH239322   4.615   3.516  12.668  0.3609 -0.3639 -0.4069
 5944TIP3    H139323   4.538   3.476  12.707 -0.8246  0.4029 -1.8800
 5944TIP3    H239324   4.604   3.504  12.574  0.1763  2.8613 -0.9167
 5945TIP3   OH239325   5.014   1.549   0.234  0.0102 -0.3198  0.8865
 5945TIP3    H139326   5.082   1.518   0.174  0.2107  0.8309  0.4942
 5945TIP3    H239327   5.025   1.644   0.235 -1.8303 -0.0634  0.5101
 5946TIP3   OH239328   4.167   2.534   2.425 -0.1230 -0.5646 -0.8082
 5946TIP3    H139329   4.076   2.505   2.414 -1.1260  2.4991 -1.5229
 5946TIP3    H239330   4.177   2.546   2.520  0.0190 -2.1834 -0.5938
 5947TIP3   OH239331   2.284   3.035  11.540  0.2864 -0.3789  0.2038
 5947TIP3    H139332   2.246   3.123  11.540  1.9789  0.3884  1.1061
 5947TIP3    H239333   2.209   2.977  11.556 -0.5575  1.0493  1.7472
 5948TIP3   OH239334   2.026   0.737  16.093  0.2960  0.0517  0.5306
 5948TIP3    H139335   2.014   0.832  16.104  1.1384  0.3662 -0.9871
 5948TIP3    H239336   1.955   0.698  16.144 -1.0644  1.5360 -0.1393
 5949TIP3   OH239337   3.272   3.891   2.132 -0.1520 -0.0100 -0.2823
 5949TIP3    H139338   3.282   3.800   2.104 -0.4105 -0.1534  0.0886
 5949TIP3    H239339   3.358   3.931   2.114 -0.3348 -0.0659 -1.3586
 5950TIP3   OH239340   3.536   3.907  14.800 -0.8013 -0.1084  0.6815
 5950TIP3    H139341   3.500   3.960  14.729  1.6690 -1.2906 -1.6454
 5950TIP3    H239342   3.609   3.960  14.834  1.4059 -1.5999 -1.3697
 5951TIP3   OH239343   3.702   5.777   4.005 -0.0220  0.6344  0.1950
 5951TIP3    H139344   3.732   5.686   4.011 -0.3071  0.4946 -0.3926
 5951TIP3    H239345   3.660   5.783   3.919 -0.2638  1.2481  0.3476
 5952TIP3   OH239346   4.246   3.136   0.396  0.1753  0.0148  0.6774
 5952TIP3    H139347   4.179   3.127   0.464  0.0337 -0.1597  0.5160
 5952TIP3    H239348   4.202   3.107   0.316  0.7789 -1.1917  0.7584
 5953TIP3   OH239349   5.304   5.413   5.494  0.3652 -0.7401 -0.3727
 5953TIP3    H139350   5.379   5.471   5.505  0.6446 -0.9493 -1.0862
 5953TIP3    H239351   5.241   5.465   5.444  0.0108 -0.5533  0.2537
 5954TIP3   OH239352   4.057   4.384  13.126  0.1851  0.3026  0.3693
 5954TIP3    H139353   3.994   4.313  13.136  1.6308 -1.4116 -1.7145
 5954TIP3    H239354   4.079   4.384  13.033  3.1294  0.8577  0.9499
 5955TIP3   OH239355   3.186   2.267  17.025  0.6365  0.3421 -0.4055
 5955TIP3    H139356   3.231   2.189  17.058 -1.0983 -0.5077  0.1119
 5955TIP3    H239357   3.249   2.338  17.037  2.3445 -0.9884 -1.0558
 5956TIP3   OH239358   6.601   1.676  12.183  0.6567 -1.1885 -0.3138
 5956TIP3    H139359   6.659   1.633  12.245 -0.3354 -1.2479  0.5958
 5956TIP3    H239360   6.576   1.758  12.226  1.7021 -0.1629 -1.5769
 5957TIP3   OH239361   4.618   5.954   2.689  0.6992  0.5914  0.5483
 5957TIP3    H139362   4.611   6.050   2.695  1.3718  0.5563  2.2581
 5957TIP3    H239363   4.708   5.939   2.659  0.7505  0.4809  0.7590
 5958TIP3   OH239364   1.513   6.633   1.049  0.4451  0.2665  0.0741
 5958TIP3    H139365   1.575   6.706   1.058 -0.3738  0.9797 -0.0191
 5958TIP3    H239366   1.546   6.566   1.109  2.0535  0.1059 -0.9158
 5959TIP3   OH239367   2.865   0.335   1.932  0.0017  0.1980  0.2248
 5959TIP3    H139368   2.920   0.407   1.961 -0.5386 -0.4352  3.0727
 5959TIP3    H239369   2.913   0.256   1.956 -0.8973 -0.3712  0.2062
 5960TIP3   OH239370   4.488   1.279  15.247 -0.1863  0.3495 -0.2461
 5960TIP3    H139371   4.507   1.352  15.306  1.1609  0.1706 -0.4250
 5960TIP3    H239372   4.394   1.264  15.257 -0.0226  0.4196  1.7288
 5961TIP3   OH239373   0.409   0.193  16.428  0.0623  0.2211 -0.5203
 5961TIP3    H139374   0.487   0.247  16.439 -0.2514  0.6327 -0.3078
 5961TIP3    H239375   0.432   0.110  16.470  0.2590  0.4612 -0.1413
 5962TIP3   OH239376   4.013   0.972   4.004  0.0381  1.0283 -0.3547
 5962TIP3    H139377   4.085   1.003   4.059 -0.1341  1.5544 -0.4193
 5962TIP3    H239378   4.055   0.941   3.924  0.3122  0.0336  0.1587
 5963TIP3   OH239379   0.988   3.292  16.008  0.1708 -0.1656 -0.3962
 5963TIP3    H139380   0.910   3.337  15.975 -1.2638 -1.7364  0.6303
 5963TIP3    H239381   0.973   3.200  15.986  0.8447 -0.7569  1.4397
 5964TIP3   OH239382   2.414   5.491  10.617  0.0824  0.2548 -0.9215
 5964TIP3    H139383   2.443   5.520  10.530  1.4674 -1.5095 -1.1017
 5964TIP3    H239384   2.360   5.563  10.649 -0.9735  0.7157 -3.4878
 5965TIP3   OH239385   1.486   1.382  14.635  0.6223  0.1903  0.2526
 5965TIP3    H139386   1.401   1.385  14.591  1.1601  0.9067 -0.7802
 5965TIP3    H239387   1.477   1.441  14.710  0.7724  1.7957 -0.9483
 5966TIP3   OH239388   0.097   5.674   3.443 -0.4998  0.6588  0.3017
 5966TIP3    H139389   0.022   5.642   3.494 -0.6189 -0.3426 -0.4771
 5966TIP3    H239390   0.158   5.601   3.441  0.2199  1.2495  0.3742
 5967TIP3   OH239391   2.683   0.312   4.433  0.0254  0.0309 -0.4282
 5967TIP3    H139392   2.740   0.236   4.418 -2.0433 -2.0373  1.3643
 5967TIP3    H239393   2.733   0.368   4.493  0.3990 -1.5463  0.7978
 5968TIP3   OH239394   0.912   4.386  14.719  0.0019 -0.2118 -0.2086
 5968TIP3    H139395   0.919   4.374  14.625 -1.0203 -0.3700 -0.2713
 5968TIP3    H239396   0.830   4.433  14.732  0.3258  0.1740  0.5805
 5969TIP3   OH239397   2.512   2.450  15.779  0.1778  0.0542 -0.2828
 5969TIP3    H139398   2.550   2.413  15.858  0.4194 -0.3113 -0.5679
 5969TIP3    H239399   2.556   2.404  15.707  0.5964  0.9911 -0.6432
 5970TIP3   OH239400   1.234   0.337   3.287  0.9306 -0.2786  0.4856
 5970TIP3    H139401   1.207   0.428   3.299 -2.0460 -0.8968 -0.6262
 5970TIP3    H239402   1.274   0.335   3.200  2.8424  0.2533  1.2955
 5971TIP3   OH239403   0.112   4.222  13.078 -0.4247  0.3893  0.2223
 5971TIP3    H139404   0.152   4.301  13.114  0.5975  0.5183 -1.1311
 5971TIP3    H239405   0.096   4.167  13.155  1.1649  0.8679  0.9438
 5972TIP3   OH239406   0.721   0.162   4.306  0.2052 -0.0882  0.7424
 5972TIP3    H139407   0.798   0.116   4.339  1.4343  0.1440 -1.5993
 5972TIP3    H239408   0.754   0.215   4.233 -2.1960 -0.1486 -0.4866
 5973TIP3   OH239409   2.581   3.096  15.139  0.7737  0.3297 -0.1925
 5973TIP3    H139410   2.610   3.019  15.188  1.4773  0.0048 -1.0991
 5973TIP3    H239411   2.654   3.158  15.146  1.2928 -0.0973 -1.6363
 5974TIP3   OH239412   4.284   4.644   3.314  0.3042  0.2816 -0.4469
 5974TIP3    H139413   4.359   4.669   3.261 -0.3868  0.4906 -1.3617
 5974TIP3    H239414   4.240   4.726   3.335  0.9288  0.2617  1.0357
 5975TIP3   OH239415   3.957   5.639  14.333  0.2112 -0.5205 -0.2852
 5975TIP3    H139416   3.870   5.617  14.300 -0.1293 -0.3584  0.4805
 5975TIP3    H239417   4.000   5.554  14.343 -0.0593 -0.6433 -0.1380
 5976TIP3   OH239418   0.216   4.831   4.674 -0.6585 -0.5099 -0.3258
 5976TIP3    H139419   0.173   4.752   4.705 -0.5685  0.0132  1.2661
 5976TIP3    H239420   0.198   4.896   4.742 -2.2535  1.3890 -2.4140
 5977TIP3   OH239421   5.307   3.596   3.999 -0.0300  0.5132 -0.0759
 5977TIP3    H139422   5.272   3.623   4.084  0.2713  0.1243  0.1707
 5977TIP3    H239423   5.235   3.548   3.958  0.2815 -0.5078  0.5357
 5978TIP3   OH239424   2.296   6.267  12.879 -0.0044  0.1085  0.2499
 5978TIP3    H139425   2.271   6.314  12.799 -0.8386  0.5276  0.7414
 5978TIP3    H239426   2.254   6.316  12.950 -0.8861 -1.3563  0.7841
 5979TIP3   OH239427   4.552   4.564  16.920 -0.1164  0.3467  0.5467
 5979TIP3    H139428   4.470   4.562  16.870  1.6252 -2.6495 -2.5746
 5979TIP3    H239429   4.561   4.475  16.954  2.2423  0.3656  0.0995
 5980TIP3   OH239430   6.458   6.515  14.751  0.3934 -0.5609  0.0709
 5980TIP3    H139431   6.397   6.478  14.687 -1.8287  0.3331  1.5437
 5980TIP3    H239432   6.526   6.557  14.699 -0.4702 -1.2347 -1.6617
 5981TIP3   OH239433   4.108   3.938   5.749 -0.5108 -0.0300  0.3194
 5981TIP3    H139434   4.072   3.869   5.805  0.3998 -0.3022  0.5818
 5981TIP3    H239435   4.199   3.913   5.734  0.2007  1.6681  1.3706
 5982TIP3   OH239436   0.402   5.350  16.476  0.1964  0.5403 -0.1011
 5982TIP3    H139437   0.429   5.289  16.546 -1.2287 -0.4862 -0.3964
 5982TIP3    H239438   0.475   5.348  16.414 -0.3108 -1.8942 -0.7300
 5983TIP3   OH239439   6.442   4.965  11.597  0.5147  0.4491 -0.1210
 5983TIP3    H139440   6.415   5.018  11.521  0.7824 -0.1512 -0.6474
 5983TIP3    H239441   6.435   4.875  11.566  0.7295  0.2022  0.5451
 5984TIP3   OH239442   5.664   0.005   3.334 -0.1943 -0.4294  0.1492
 5984TIP3    H139443   5.664  -0.071   3.276 -1.0033  0.9019 -1.7324
 5984TIP3    H239444   5.685   0.079   3.277  2.1079  0.6306  2.1936
 5985TIP3   OH239445   1.974   2.435   0.030  0.2077  0.6324  0.0968
 5985TIP3    H139446   2.028   2.470   0.101  0.4303 -0.1007  0.2968
 5985TIP3    H239447   2.024   2.453  -0.050 -0.6939  2.7588 -0.0607
 5986TIP3   OH239448   3.118   0.103   0.690  0.0624 -0.5604 -0.6187
 5986TIP3    H139449   3.168   0.153   0.755  0.9273 -1.3710 -0.6488
 5986TIP3    H239450   3.026   0.118   0.714  0.3357  0.1364  0.0403
 5987TIP3   OH239451   4.777   1.775   5.792  0.2774 -0.3480  0.3628
 5987TIP3    H139452   4.758   1.726   5.712 -0.3773  1.4228 -0.6273
 5987TIP3    H239453   4.703   1.758   5.850  0.7838 -1.6835  0.6560
 5988TIP3   OH239454   5.739   2.079   3.817  0.6223 -0.1818 -0.0879
 5988TIP3    H139455   5.822   2.087   3.769  0.3035  2.3430 -0.3398
 5988TIP3    H239456   5.672   2.080   3.748  0.2863 -0.0091  0.2414
 5989TIP3   OH239457   2.944   4.611   1.251 -0.2669  0.9597  0.3414
 5989TIP3    H139458   2.856   4.577   1.237 -0.9625  2.2755  1.2350
 5989TIP3    H239459   2.954   4.679   1.184  0.1405  0.6769  0.1171
 5990TIP3   OH239460   2.965   4.341  12.121 -0.1990  0.1704  0.2622
 5990TIP3    H139461   3.008   4.346  12.207 -3.3558 -1.4180  2.1347
 5990TIP3    H239462   2.993   4.256  12.086  1.8388  1.2204 -0.8441
 5991TIP3   OH239463   1.039   0.590  15.529  0.1843 -0.1407  0.0463
 5991TIP3    H139464   1.060   0.562  15.440  1.1697  0.6001  0.0208
 5991TIP3    H239465   1.120   0.632  15.560 -0.2620 -0.0796  1.1603
 5992TIP3   OH239466   3.080   3.676   2.816  0.9408  0.2619  0.0205
 5992TIP3    H139467   3.116   3.753   2.860 -0.4305  1.3845 -0.7568
 5992TIP3    H239468   2.988   3.676   2.840 -0.0612  1.3545 -3.3313
 5993TIP3   OH239469   1.299   2.609  13.062  0.7146  0.0712 -0.2580
 5993TIP3    H139470   1.312   2.628  12.970 -1.3207 -0.1910 -0.6483
 5993TIP3    H239471   1.381   2.635  13.104  1.3777  0.9499 -2.0051
 5994TIP3   OH239472   5.050   1.062  15.597  0.1050 -0.3569 -0.0374
 5994TIP3    H139473   5.061   0.971  15.627 -2.6012 -0.3371  1.2869
 5994TIP3    H239474   5.085   1.115  15.668  1.4093 -0.3153 -0.6810
 5995TIP3   OH239475   2.478   3.570  11.613  0.8511  0.3983 -0.6382
 5995TIP3    H139476   2.483   3.481  11.579 -0.6911 -0.8994  2.1394
 5995TIP3    H239477   2.419   3.615  11.554  1.7144 -0.3459 -2.1383
 5996TIP3   OH239478   3.617   0.256  16.017  0.0064  0.3063  0.6202
 5996TIP3    H139479   3.598   0.322  16.083  2.2538 -0.9481  2.6790
 5996TIP3    H239480   3.685   0.201  16.056  0.5033 -1.3370 -2.2362
 5997TIP3   OH239481   4.078   3.512  14.437 -0.1710 -0.2034  0.0897
 5997TIP3    H139482   4.023   3.527  14.514 -0.4213  0.5174 -0.2187
 5997TIP3    H239483   4.032   3.443  14.389 -1.1728  0.8359 -0.4898
 5998TIP3   OH239484   5.464   0.337   6.265 -0.1423 -0.2150  0.6536
 5998TIP3    H139485   5.536   0.347   6.327  0.2426 -0.4828  0.2474
 5998TIP3    H239486   5.404   0.275   6.307  0.0388 -0.2729  0.8253
 5999TIP3   OH239487   6.062   0.866  12.866  0.5815 -0.0366 -0.1891
 5999TIP3    H139488   6.087   0.829  12.951  0.5656 -1.6701 -0.8559
 5999TIP3    H239489   6.142   0.862  12.814  0.8864  2.0014  0.0554
 6000TIP3   OH239490   5.867   6.493  12.029 -0.3480 -0.3165 -0.0322
 6000TIP3    H139491   5.826   6.411  12.000  0.7547 -0.8669 -0.0863
 6000TIP3    H239492   5.915   6.469  12.108  0.6108  0.1089 -0.4796
 6001TIP3   OH239493   3.750   0.370   1.938  0.2884 -0.3703  0.2046
 6001TIP3    H139494   3.720   0.284   1.968 -0.8091  0.0845  0.4653
 6001TIP3    H239495   3.697   0.388   1.860  0.8203 -0.1110 -0.1057
 6002TIP3   OH239496   0.393   3.184   1.971  0.0056 -0.3174  0.0013
 6002TIP3    H139497   0.424   3.211   2.057  0.1343 -1.3506  0.2840
 6002TIP3    H239498   0.438   3.102   1.953 -1.7495 -1.3109 -0.0310
 6003TIP3   OH239499   3.905   2.741  15.501  0.3894  0.1603 -0.4271
 6003TIP3    H139500   3.949   2.684  15.437 -0.6793  1.7661 -2.7469
 6003TIP3    H239501   3.932   2.829  15.476  0.1247  0.8487  1.5621
 6004TIP3   OH239502   1.965   2.439   3.905 -0.0490  0.3104  0.4118
 6004TIP3    H139503   2.014   2.517   3.876 -0.3472  0.2448 -0.2977
 6004TIP3    H239504   2.010   2.411   3.985 -0.4968  1.7558  1.2100
 6005TIP3   OH239505   6.480   4.626  14.846  0.2871 -0.3536 -0.0999
 6005TIP3    H139506   6.497   4.704  14.898  0.6394  0.7357 -1.7856
 6005TIP3    H239507   6.440   4.658  14.766  1.6108 -1.7443 -1.3938
 6006TIP3   OH239508   5.108   4.688   3.521  0.0605  0.1255  0.0437
 6006TIP3    H139509   5.166   4.705   3.447  0.5923 -0.3944  0.3324
 6006TIP3    H239510   5.162   4.639   3.583 -0.3408  0.6433  0.8280
 6007TIP3   OH239511   0.771   5.330   5.855  0.4300 -0.4031 -0.2709
 6007TIP3    H139512   0.763   5.236   5.870 -0.8523 -0.8536 -3.0353
 6007TIP3    H239513   0.696   5.368   5.900  0.9529 -0.6840  0.8585
 6008TIP3   OH239514   5.031   3.454  12.301  0.0997 -0.6581  0.2684
 6008TIP3    H139515   4.958   3.463  12.241  0.4370 -1.0309 -0.2032
 6008TIP3    H239516   5.001   3.497  12.382 -0.4760 -0.4472 -0.0513
 6009TIP3   OH239517   0.160   5.800  16.256  0.2613 -0.1210  0.2944
 6009TIP3    H139518   0.115   5.723  16.222 -0.1355 -0.1635  0.8937
 6009TIP3    H239519   0.135   5.871  16.197 -3.1709  0.5520  2.2670
 6010TIP3   OH239520   0.161   3.653  13.534  0.3680 -0.5913  0.5651
 6010TIP3    H139521   0.161   3.677  13.441  2.2504  0.4227  0.7727
 6010TIP3    H239522   0.141   3.560  13.535 -1.8579 -0.2020 -0.6761
 6011TIP3   OH239523   2.237   1.395  15.115 -0.6982 -0.2134 -0.5319
 6011TIP3    H139524   2.290   1.473  15.132 -0.3087  0.0643 -2.6765
 6011TIP3    H239525   2.269   1.330  15.178  0.9218  0.5273 -0.5450
 6012TIP3   OH239526   4.168   5.939   1.741 -0.1574 -0.4781 -0.1522
 6012TIP3    H139527   4.127   6.024   1.756 -0.1733 -0.3810 -0.7386
 6012TIP3    H239528   4.152   5.891   1.822 -0.1751  0.0616  0.1754
 6013TIP3   OH239529   2.674   3.319  14.142 -0.3710 -0.2201 -0.1926
 6013TIP3    H139530   2.733   3.264  14.089 -0.7027 -1.1849  0.4012
 6013TIP3    H239531   2.733   3.364  14.203 -0.1465 -0.4871 -0.2048
 6014TIP3   OH239532   2.148   6.372  13.804  0.4271  0.2806  0.1186
 6014TIP3    H139533   2.077   6.429  13.775  0.0016 -0.0038  0.5770
 6014TIP3    H239534   2.167   6.316  13.729  1.1709  1.3303 -0.4983
 6015TIP3   OH239535   3.364   0.712  12.754 -0.4739  0.1475 -0.6440
 6015TIP3    H139536   3.397   0.738  12.668  0.5823  2.0550  0.2850
 6015TIP3    H239537   3.401   0.625  12.769  0.6182  0.4537 -1.4641
 6016TIP3   OH239538   3.545   3.644  14.075  0.4542 -0.2897 -0.6068
 6016TIP3    H139539   3.480   3.577  14.094 -1.6103  1.4023 -1.3804
 6016TIP3    H239540   3.554   3.642  13.980 -1.2925  1.9070 -0.8937
 6017TIP3   OH239541   2.275   0.378   3.834  0.0037 -0.2550 -0.5455
 6017TIP3    H139542   2.222   0.301   3.855 -0.0038 -0.8777 -2.6325
 6017TIP3    H239543   2.299   0.367   3.742  1.6968  1.2531 -0.3536
 6018TIP3   OH239544   6.061   6.586   4.854 -0.5222  0.0969  0.2101
 6018TIP3    H139545   6.096   6.613   4.938 -0.6516 -0.7522  0.5463
 6018TIP3    H239546   6.139   6.570   4.800 -0.3962 -0.7602  0.6260
 6019TIP3   OH239547   4.191   3.806  15.599 -0.2374 -0.0799  0.6355
 6019TIP3    H139548   4.204   3.719  15.561  0.5535  0.3868 -0.1793
 6019TIP3    H239549   4.279   3.836  15.623 -0.3709  0.9002 -0.0185
 6020TIP3   OH239550   2.898   5.972  14.197 -0.4799 -0.0159 -0.4345
 6020TIP3    H139551   2.872   6.011  14.280 -1.2674  1.7403 -1.4564
 6020TIP3    H239552   2.867   5.881  14.202  2.0003 -0.8972  2.2834
 6021TIP3   OH239553   5.871   0.225  15.680  0.5131  0.2399 -0.2273
 6021TIP3    H139554   5.852   0.145  15.631  2.2937 -1.4431  1.6162
 6021TIP3    H239555   5.820   0.216  15.761 -1.5472  2.4511 -1.1408
 6022TIP3   OH239556   1.207   1.667  15.723  0.2001 -0.2617 -0.1735
 6022TIP3    H139557   1.163   1.640  15.804 -2.5295  2.5158 -0.5169
 6022TIP3    H239558   1.164   1.617  15.654  0.2659 -0.3304 -0.1641
 6023TIP3   OH239559   6.434   0.265   4.861 -0.1441 -0.1404 -0.1834
 6023TIP3    H139560   6.484   0.346   4.869  0.8531 -0.6513 -1.1092
 6023TIP3    H239561   6.348   0.294   4.829  0.3040  0.5184 -0.8185
 6024TIP3   OH239562   1.044   6.780  10.455  0.3651 -0.8525 -0.3563
 6024TIP3    H139563   0.982   6.738  10.515 -0.4825  1.2399  0.3087
 6024TIP3    H239564   0.990   6.808  10.380  1.1779 -2.1983 -1.5064
 6025TIP3   OH239565   3.217   4.053   3.070  0.2533 -0.3221 -0.0767
 6025TIP3    H139566   3.220   3.958   3.061  1.8835 -0.1843 -1.5689
 6025TIP3    H239567   3.244   4.070   3.160  1.7467 -1.2400 -0.3194
 6026TIP3   OH239568   5.823   1.988   1.243 -0.2652 -0.4551  0.4046
 6026TIP3    H139569   5.748   2.024   1.291 -1.9788  2.3466 -3.8439
 6026TIP3    H239570   5.784   1.939   1.170  2.0854 -0.7196 -0.7542
 6027TIP3   OH239571   6.437   2.178  12.649 -0.1311 -0.1013  0.2351
 6027TIP3    H139572   6.397   2.093  12.667 -1.0683  0.3789  0.4497
 6027TIP3    H239573   6.449   2.179  12.554 -2.7367  0.6292 -0.1674
 6028TIP3   OH239574   1.951   3.770   1.826  0.3269 -0.6369 -0.1097
 6028TIP3    H139575   1.881   3.794   1.886  0.6603  0.0505  0.0164
 6028TIP3    H239576   2.018   3.730   1.882  1.7700  2.3109  0.4557
 6029TIP3   OH239577   2.942   4.364  14.028 -0.0267 -0.2071  0.5886
 6029TIP3    H139578   2.979   4.276  14.016  0.3248  0.0598 -0.3344
 6029TIP3    H239579   2.879   4.374  13.958 -0.4331  0.0963  0.9917
 6030TIP3   OH239580   0.769   0.324   4.856 -0.1747  0.1062 -0.5159
 6030TIP3    H139581   0.705   0.368   4.799  2.1557  3.0896 -1.1008
 6030TIP3    H239582   0.836   0.292   4.796 -0.6256 -2.2691  0.1532
 6031TIP3   OH239583   3.561   6.357   1.815 -0.5692  0.1828  0.9643
 6031TIP3    H139584   3.593   6.292   1.879  0.0353  1.2513  1.7826
 6031TIP3    H239585   3.587   6.321   1.730  0.9782 -0.0113  1.4786
 6032TIP3   OH239586   2.760   0.832   2.574 -0.1955  0.0140  0.2039
 6032TIP3    H139587   2.823   0.766   2.603 -0.2870 -0.1038  0.1341
 6032TIP3    H239588   2.708   0.851   2.652 -0.6058 -0.4879  0.0557
 6033TIP3   OH239589   1.087   4.708   2.759 -0.4827 -0.1434 -0.3584
 6033TIP3    H139590   1.141   4.674   2.830  0.3514 -0.0939 -0.9541
 6033TIP3    H239591   1.133   4.787   2.730  0.7858 -1.6578 -2.8131
 6034TIP3   OH239592   4.536   4.571   0.024 -0.3385 -0.4864 -0.1132
 6034TIP3    H139593   4.562   4.478   0.023  0.2373 -0.3277 -0.5013
 6034TIP3    H239594   4.463   4.576  -0.037  2.4510  0.0751 -3.7366
 6035TIP3   OH239595   3.417   1.964   0.860  0.2437 -0.3145  0.2765
 6035TIP3    H139596   3.428   1.872   0.884  1.3316 -0.3496 -0.2941
 6035TIP3    H239597   3.323   1.980   0.867  0.2876 -0.7861  2.8373
 6036TIP3   OH239598   3.663   0.669   5.745  0.3200 -0.2201 -0.0731
 6036TIP3    H139599   3.644   0.737   5.810  1.9539 -0.9226  1.2069
 6036TIP3    H239600   3.667   0.715   5.662  1.9652  1.3787  0.8444
 6037TIP3   OH239601   2.590   0.944  12.420 -0.4183  0.0720  0.0975
 6037TIP3    H139602   2.601   0.850  12.408 -0.5522  0.1928 -1.0645
 6037TIP3    H239603   2.680   0.977  12.428 -0.3793 -0.1751  0.6833
 6038TIP3   OH239604   0.519   3.800  15.744 -0.4611 -0.1736 -0.2445
 6038TIP3    H139605   0.489   3.891  15.740 -0.8106 -0.3218 -2.5984
 6038TIP3    H239606   0.495   3.763  15.659 -1.4112 -2.8486  1.0639
 6039TIP3   OH239607   0.339   6.006  14.171 -0.0187 -0.4808 -0.4134
 6039TIP3    H139608   0.385   6.010  14.255 -0.3934 -2.5440 -0.0584
 6039TIP3    H239609   0.361   6.088  14.128  0.4647  0.4786  1.5525
 6040TIP3   OH239610   2.853   4.218   6.027 -0.3707  0.6915 -0.1226
 6040TIP3    H139611   2.849   4.298   6.079  1.6271 -0.4211  1.9416
 6040TIP3    H239612   2.945   4.208   6.005  0.2916 -2.9896  3.1994
 6041TIP3   OH239613   2.935   2.709  16.690 -0.2487  0.0891  0.1841
 6041TIP3    H139614   2.993   2.686  16.763 -0.3002 -0.2483  0.1190
 6041TIP3    H239615   2.966   2.795  16.662  0.6182 -0.3472 -0.2436
 6042TIP3   OH239616   6.489   6.284  12.003  0.3712 -0.6602  0.6752
 6042TIP3    H139617   6.462   6.365  11.959  1.9797 -0.8019 -0.6852
 6042TIP3    H239618   6.432   6.216  11.965  0.4082 -0.4723  0.2757
 6043TIP3   OH239619   3.575   4.065   3.831 -0.0305 -0.0579  0.8164
 6043TIP3    H139620   3.576   4.148   3.782 -1.2090  0.9035  2.3296
 6043TIP3    H239621   3.557   4.091   3.921 -0.8706 -2.0183  1.2597
 6044TIP3   OH239622   4.400   2.746   3.183  0.5437 -0.4781  0.1516
 6044TIP3    H139623   4.489   2.732   3.217  0.9610 -0.6784 -0.9735
 6044TIP3    H239624   4.345   2.689   3.235  1.4390 -2.2622 -0.7532
 6045TIP3   OH239625   1.249   3.156   3.972  0.3452  0.0586  0.0900
 6045TIP3    H139626   1.306   3.152   4.049  0.4145 -1.4832 -0.0232
 6045TIP3    H239627   1.283   3.089   3.914 -0.2548  0.6172 -0.9299
 6046TIP3   OH239628   5.373   4.248  16.571  0.0878  0.6192 -0.2977
 6046TIP3    H139629   5.412   4.224  16.655 -2.0912  1.5355  1.0500
 6046TIP3    H239630   5.297   4.301  16.593 -1.0235  0.2579 -2.8319
 6047TIP3   OH239631   5.119   4.438   2.933 -0.0359 -0.0277 -0.0904
 6047TIP3    H139632   5.066   4.400   2.862 -0.5246  1.2344 -0.4341
 6047TIP3    H239633   5.175   4.502   2.889  0.3753  0.0489  0.5342
 6048TIP3   OH239634   1.088   6.662  16.263 -0.6611 -0.8042  0.3033
 6048TIP3    H139635   1.060   6.584  16.215 -1.2389 -0.6660  0.4049
 6048TIP3    H239636   1.153   6.629  16.325 -1.2453 -1.2929  0.6738
 6049TIP3   OH239637   6.571   0.686  14.847 -0.7068 -0.2362 -0.1934
 6049TIP3    H139638   6.628   0.707  14.921  0.9343 -2.7305 -0.6079
 6049TIP3    H239639   6.584   0.757  14.785 -0.3889  0.7633  0.9814
 6050TIP3   OH239640   2.949   3.212   6.727 -0.1608  0.3015  0.1898
 6050TIP3    H139641   3.023   3.212   6.666 -0.6711 -1.0948 -0.4709
 6050TIP3    H239642   2.914   3.123   6.723 -0.0760  0.0727  2.7113
 6051TIP3   OH239643   1.172   2.810  14.550  0.3507 -0.1451  0.7081
 6051TIP3    H139644   1.173   2.843  14.640  1.4822  1.0683  0.2801
 6051TIP3    H239645   1.218   2.726  14.556  3.0783  1.2325  0.8722
 6052TIP3   OH239646   5.531   2.658   3.904 -0.7362 -0.0101 -0.1349
 6052TIP3    H139647   5.621   2.669   3.935 -0.1475  2.4587 -2.3127
 6052TIP3    H239648   5.478   2.661   3.984  1.0393 -1.0474  1.1646
 6053TIP3   OH239649   0.986   3.375  13.734 -0.6786  0.2762  0.0846
 6053TIP3    H139650   0.996   3.445  13.799 -0.5141  0.4437 -0.1215
 6053TIP3    H239651   0.910   3.400  13.683  0.2133  1.0418 -0.9060
 6054TIP3   OH239652   2.211   1.259  13.836  0.2834 -0.1540 -0.0789
 6054TIP3    H139653   2.284   1.200  13.854  0.7747  0.5515  0.2742
 6054TIP3    H239654   2.158   1.212  13.770  0.7863 -0.8745  0.0185
 6055TIP3   OH239655   2.724   3.900   4.698 -0.3852 -0.0806  0.3430
 6055TIP3    H139656   2.781   3.974   4.718  0.2769 -0.7933  1.1596
 6055TIP3    H239657   2.636   3.930   4.722 -0.2297  0.6598  0.0372
 6056TIP3   OH239658   5.102   6.358  13.715  0.8120 -0.5681 -0.4852
 6056TIP3    H139659   5.153   6.425  13.760  0.1135 -0.1278 -0.3380
 6056TIP3    H239660   5.136   6.275  13.748 -0.3702 -0.2599  1.6338
 6057TIP3   OH239661   4.517   0.221  11.125  0.0436 -0.5315  0.2928
 6057TIP3    H139662   4.485   0.292  11.069  0.0268  0.3847  1.4444
 6057TIP3    H239663   4.451   0.211  11.193  2.0096  1.2950  2.6276
 6058TIP3   OH239664   3.503   6.634   0.146  0.8471 -0.6723 -0.0213
 6058TIP3    H139665   3.593   6.652   0.173  0.5291 -0.9841  1.3144
 6058TIP3    H239666   3.469   6.575   0.213 -1.1413  1.3519  0.8611
 6059TIP3   OH239667   4.383   1.783   0.594 -0.1333 -0.3290  0.2420
 6059TIP3    H139668   4.433   1.755   0.671  0.3372  0.5338  0.2550
 6059TIP3    H239669   4.302   1.732   0.599  0.1493 -0.7210  0.9784
 6060TIP3   OH239670   6.213   0.277   0.685  0.1894 -0.1209 -0.5386
 6060TIP3    H139671   6.244   0.201   0.735 -1.1271 -0.2758  0.0862
 6060TIP3    H239672   6.243   0.260   0.595 -1.2816 -2.1289 -0.7276
 6061TIP3   OH239673   6.690   3.688  16.129  0.4685  0.3876  0.3705
 6061TIP3    H139674   6.653   3.656  16.046 -0.4613  0.7825  0.6203
 6061TIP3    H239675   6.782   3.705  16.109  0.1394  0.9771 -0.7406
 6062TIP3   OH239676   4.114   5.151  15.610  0.4498  0.5792  0.5548
 6062TIP3    H139677   4.135   5.229  15.662  0.5357  0.0424  1.3401
 6062TIP3    H239678   4.023   5.163  15.583  0.5225  1.0380  0.5073
 6063TIP3   OH239679   2.414   6.152  12.348  0.0314 -0.1845  0.4573
 6063TIP3    H139680   2.332   6.201  12.340 -0.9474 -2.0406 -3.5697
 6063TIP3    H239681   2.386   6.060  12.353  1.8089 -0.8398 -0.7965
 6064TIP3   OH239682   5.795   3.127   1.719 -0.7360 -0.7548  0.1697
 6064TIP3    H139683   5.857   3.068   1.675  1.6883  0.5959  1.4991
 6064TIP3    H239684   5.821   3.123   1.811 -0.2699  2.4756  0.2830
 6065TIP3   OH239685   2.460   3.337  15.412 -0.4466 -0.3447  0.5633
 6065TIP3    H139686   2.393   3.384  15.463 -0.8569 -0.9584  0.5972
 6065TIP3    H239687   2.536   3.395  15.413 -0.7702  0.0773  1.0608
 6066TIP3   OH239688   6.783   3.879  16.666  0.2348 -0.3466  0.0098
 6066TIP3    H139689   6.758   3.941  16.735 -1.2018 -0.2012 -0.5914
 6066TIP3    H239690   6.725   3.900  16.593  2.3726  0.1596 -1.6419
 6067TIP3   OH239691   3.572   0.855   2.349 -0.3223  0.1238 -0.3756
 6067TIP3    H139692   3.557   0.806   2.429 -1.4681 -0.6662 -1.0565
 6067TIP3    H239693   3.667   0.852   2.336 -0.1853 -0.1756  0.6569
 6068TIP3   OH239694   0.922   4.663   0.562  0.2936 -0.0327 -0.1705
 6068TIP3    H139695   0.987   4.723   0.526 -2.0736  1.1154 -2.9370
 6068TIP3    H239696   0.925   4.587   0.505  0.2870 -0.6757  0.6662
 6069TIP3   OH239697   2.460   4.012  15.989 -0.3957  0.3051  0.2284
 6069TIP3    H139698   2.435   3.951  16.058 -0.4704 -2.5091 -2.1004
 6069TIP3    H239699   2.556   4.014  15.992 -0.4213  0.9057  0.9361
 6070TIP3   OH239700   5.622   1.712  12.698  0.5211  0.0090 -0.4244
 6070TIP3    H139701   5.629   1.734  12.605  0.3868 -0.9925 -0.6881
 6070TIP3    H239702   5.586   1.790  12.739  0.1884  0.3202 -1.2900
 6071TIP3   OH239703   2.105   1.754  14.911 -0.4931  0.2116  0.2036
 6071TIP3    H139704   2.192   1.771  14.875 -1.1239  2.0296 -0.5762
 6071TIP3    H239705   2.067   1.689  14.851 -0.5749  1.2914 -0.9571
 6072TIP3   OH239706   1.860   0.527  11.148  0.2297 -0.2946  0.5573
 6072TIP3    H139707   1.908   0.479  11.216  1.0372  0.3439  0.4472
 6072TIP3    H239708   1.780   0.557  11.192 -0.6321 -2.2793  0.4635
 6073TIP3   OH239709   4.559   0.480   0.073  0.1927  0.1048 -0.1391
 6073TIP3    H139710   4.638   0.535   0.076 -0.6095  1.2511  0.3239
 6073TIP3    H239711   4.486   0.542   0.073 -0.8128 -0.9652  2.4171
 6074TIP3   OH239712   2.421   1.741   5.077 -0.2864 -0.1557  0.1938
 6074TIP3    H139713   2.378   1.824   5.053  1.2865  0.8280  0.5991
 6074TIP3    H239714   2.466   1.761   5.159  1.5454 -0.8678 -0.5721
 6075TIP3   OH239715   0.693   0.891   4.166 -0.1028  0.5734 -0.1046
 6075TIP3    H139716   0.784   0.907   4.192 -0.1202  1.1996 -0.4089
 6075TIP3    H239717   0.641   0.941   4.229 -0.2474  0.0365  0.2057
 6076TIP3   OH239718   3.247   3.128  12.322 -0.3161  0.6270 -0.5227
 6076TIP3    H139719   3.204   3.055  12.367 -1.2984 -0.2365 -2.6756
 6076TIP3    H239720   3.231   3.204  12.377  0.0961 -0.6369  1.4229
 6077TIP3   OH239721   4.737   0.834  12.480 -0.5416 -0.6819 -0.5306
 6077TIP3    H139722   4.684   0.913  12.488  0.2409 -0.0507 -1.2695
 6077TIP3    H239723   4.674   0.762  12.477 -1.3113 -0.0149 -0.6888
 6078TIP3   OH239724   4.285   3.764   0.263 -0.1524 -0.2780 -0.3841
 6078TIP3    H139725   4.368   3.728   0.232  0.3578 -0.5403  1.1992
 6078TIP3    H239726   4.223   3.692   0.251 -0.0614 -0.2318 -1.1696
 6079TIP3   OH239727   0.681   3.058  15.239 -0.2830  0.4085  0.0894
 6079TIP3    H139728   0.742   2.990  15.212  0.8584  1.5163 -0.2283
 6079TIP3    H239729   0.686   3.058  15.335 -0.7645 -0.3625  0.1197
 6080TIP3   OH239730   4.195   5.058   1.739  0.6033 -0.0798 -0.5500
 6080TIP3    H139731   4.275   5.006   1.730 -0.4151 -1.4971 -1.9345
 6080TIP3    H239732   4.147   5.017   1.810  0.8498  0.4702 -0.0509
 6081TIP3   OH239733   0.384   5.605  16.325 -0.1158  0.3244  0.2988
 6081TIP3    H139734   0.359   5.521  16.364  0.2310  0.9404  1.9296
 6081TIP3    H239735   0.301   5.642  16.293 -0.3140 -0.4920 -0.1604
 6082TIP3   OH239736   6.596   3.654   2.894  0.5592 -0.4155  0.2948
 6082TIP3    H139737   6.654   3.715   2.850 -1.5976 -0.5023 -3.0131
 6082TIP3    H239738   6.648   3.573   2.902  1.1933 -0.2868 -1.8849
 6083TIP3   OH239739   5.648   4.709   0.890 -0.1584 -0.2539  0.7648
 6083TIP3    H139740   5.734   4.704   0.930 -0.0499  1.4267  0.8164
 6083TIP3    H239741   5.657   4.775   0.822 -1.0923 -0.9803 -0.0909
 6084TIP3   OH239742   2.769   1.338   5.650 -0.0651 -0.1296  0.2263
 6084TIP3    H139743   2.733   1.251   5.633  1.4825 -0.8638  0.5532
 6084TIP3    H239744   2.693   1.397   5.648 -1.3015 -1.6355  1.1686
 6085TIP3   OH239745   5.164   1.423   2.067 -0.2197 -0.6740 -0.4931
 6085TIP3    H139746   5.192   1.391   2.153 -1.9549 -1.4128 -0.1634
 6085TIP3    H239747   5.239   1.407   2.010  0.6028 -1.0828  0.6697
 6086TIP3   OH239748   1.980   1.046  14.686  0.3833  0.0378 -0.0491
 6086TIP3    H139749   2.004   0.955  14.665 -1.5932 -0.4192 -0.4696
 6086TIP3    H239750   1.913   1.068  14.622  0.5765  1.7019  0.2868
 6087TIP3   OH239751   3.051   2.138  10.782 -0.2369  0.5895 -0.0399
 6087TIP3    H139752   3.030   2.160  10.872 -0.7649 -0.8483  0.2076
 6087TIP3    H239753   2.978   2.172  10.731  0.4026  2.0457 -0.0436
 6088TIP3   OH239754   2.910   2.336  15.579 -0.0724  0.2426  0.0572
 6088TIP3    H139755   2.976   2.381  15.526 -0.0305  0.4301  0.2683
 6088TIP3    H239756   2.845   2.403  15.599 -0.8352 -0.1618 -0.9582
 6089TIP3   OH239757   6.586   5.469  13.870 -0.5053 -0.3728  0.2656
 6089TIP3    H139758   6.546   5.551  13.900 -0.8890 -0.9351  1.3194
 6089TIP3    H239759   6.640   5.441  13.943  1.3718  0.0345 -0.8845
 6090TIP3   OH239760   5.668   6.281  16.015  0.1537  0.1633 -0.1202
 6090TIP3    H139761   5.732   6.290  15.945 -0.3360 -0.4589 -0.6718
 6090TIP3    H239762   5.584   6.270  15.969 -0.5907  2.3907  0.5858
 6091TIP3   OH239763   3.568   2.865  12.602  0.4631  0.1311 -0.0705
 6091TIP3    H139764   3.657   2.866  12.567  0.1912  2.6412 -0.9018
 6091TIP3    H239765   3.525   2.794  12.555  1.6770 -0.3007 -0.5777
 6092TIP3   OH239766   3.748   4.568   1.669 -0.4809  0.4132 -0.0665
 6092TIP3    H139767   3.795   4.547   1.588  2.1749  2.6404  0.7673
 6092TIP3    H239768   3.701   4.487   1.690  1.8753 -1.5620 -1.7616
 6093TIP3   OH239769   2.379   6.661  11.346 -0.5064  0.5021  0.6871
 6093TIP3    H139770   2.359   6.571  11.318 -0.2167  1.0391 -1.4083
 6093TIP3    H239771   2.441   6.693  11.281  0.7272  1.6874  2.3678
 6094TIP3   OH239772   4.478   0.575   4.407  0.4819  0.4454 -0.0151
 6094TIP3    H139773   4.482   0.484   4.434  1.7790  0.0639 -1.3868
 6094TIP3    H239774   4.522   0.578   4.322 -2.0936  1.8300 -1.4553
 6095TIP3   OH239775   2.074   1.337   1.428 -0.9248 -0.4217 -0.1809
 6095TIP3    H139776   1.980   1.336   1.407 -1.0494 -0.3918  0.3531
 6095TIP3    H239777   2.085   1.417   1.480 -0.5480 -0.2822 -0.4737
 6096TIP3   OH239778   2.104   6.397  11.490  0.7249  0.0931 -0.4201
 6096TIP3    H139779   2.068   6.474  11.534 -0.1445  0.7226 -2.1176
 6096TIP3    H239780   2.173   6.366  11.548 -2.2767 -0.9959  2.9215
 6097TIP3   OH239781   4.432   5.471   6.524 -0.4593  0.4174  0.2218
 6097TIP3    H139782   4.474   5.392   6.556 -2.6941 -1.2760 -0.7976
 6097TIP3    H239783   4.500   5.514   6.472  0.6834 -1.0243  0.4541
 6098TIP3   OH239784   0.450   6.791   5.256  0.3063 -0.1043  0.3560
 6098TIP3    H139785   0.425   6.705   5.225  1.6133 -0.0481 -0.9429
 6098TIP3    H239786   0.539   6.805   5.222  0.9036  0.9548  2.1540
 6099TIP3   OH239787   1.106   4.496  13.201 -0.4638 -0.4238 -0.0535
 6099TIP3    H139788   1.135   4.580  13.238  0.2766 -0.5020 -0.4304
 6099TIP3    H239789   1.122   4.433  13.271  1.3688 -0.6484 -0.6031
 6100TIP3   OH239790   5.642   3.112  11.805  0.0287  0.2149 -0.8711
 6100TIP3    H139791   5.652   3.202  11.835  0.7603  0.2656 -1.2356
 6100TIP3    H239792   5.732   3.077  11.803 -0.0805 -0.0324 -2.1976
 6101TIP3   OH239793   3.493   2.678  12.437  0.0948 -0.4176 -0.2625
 6101TIP3    H139794   3.522   2.757  12.391  1.7750  0.0752  1.5233
 6101TIP3    H239795   3.470   2.617  12.366  1.3622  0.7289 -1.7408
 6102TIP3   OH239796   2.540   0.323   2.438  0.0453  0.1847 -0.2908
 6102TIP3    H139797   2.621   0.272   2.436 -1.7962 -2.9843 -0.8405
 6102TIP3    H239798   2.543   0.375   2.358  1.8674  0.8052  0.1160
 6103TIP3   OH239799   5.813   2.577   6.567 -0.1944 -0.1114 -0.0267
 6103TIP3    H139800   5.850   2.536   6.489  1.5091 -1.2654  1.2930
 6103TIP3    H239801   5.793   2.504   6.625  0.4954  0.7650  1.3934
 6104TIP3   OH239802   5.551   1.054  16.528  0.2909  0.1989 -0.4603
 6104TIP3    H139803   5.569   1.008  16.446  0.4421 -1.5643  0.5219
 6104TIP3    H239804   5.480   1.115  16.506  0.5292 -0.0287 -1.9522
 6105TIP3   OH239805   4.174   0.759   1.734 -0.1492 -0.2862 -0.3086
 6105TIP3    H139806   4.200   0.781   1.645 -1.5275  1.9998 -0.2427
 6105TIP3    H239807   4.078   0.760   1.733 -0.2064 -1.0876  1.0169
 6106TIP3   OH239808   6.821   0.101  16.558 -0.4186 -0.0166 -0.2427
 6106TIP3    H139809   6.839   0.194  16.575  2.3830 -0.4355 -0.4268
 6106TIP3    H239810   6.901   0.069  16.516 -1.2253 -2.5828  0.0290
 6107TIP3   OH239811   1.839   0.770   3.602  0.5228 -0.2911  0.1776
 6107TIP3    H139812   1.928   0.735   3.598  0.3188 -0.8471  0.4581
 6107TIP3    H239813   1.808   0.748   3.690 -0.2217 -0.9104 -0.2277
 6108TIP3   OH239814   0.306   6.102   4.184 -0.7084  0.2646 -0.5018
 6108TIP3    H139815   0.246   6.057   4.243  0.7058 -1.4524 -0.2896
 6108TIP3    H239816   0.388   6.108   4.233 -0.3379  1.4389 -1.2351
 6109TIP3   OH239817   1.862   4.085   3.700  0.0299 -0.0133  0.9002
 6109TIP3    H139818   1.840   4.133   3.621  0.5704 -2.0647 -0.5770
 6109TIP3    H239819   1.780   4.043   3.727 -0.0089  0.1711  1.0756
 6110TIP3   OH239820   0.191   4.522  14.369  0.3466 -0.7199  0.5583
 6110TIP3    H139821   0.232   4.436  14.381  1.2030 -0.3833  0.1141
 6110TIP3    H239822   0.206   4.568  14.452  1.8577 -0.2086  0.0373
 6111TIP3   OH239823   5.691   3.455   2.399 -0.2228  0.1572  0.4078
 6111TIP3    H139824   5.726   3.460   2.488  2.1041  0.5633 -0.4538
 6111TIP3    H239825   5.639   3.536   2.389  1.2819  1.1995  0.7317
 6112TIP3   OH239826   6.412   3.760   1.503 -0.0876  0.3354 -0.2404
 6112TIP3    H139827   6.360   3.699   1.556  0.6886 -0.6998 -0.6338
 6112TIP3    H239828   6.349   3.796   1.440 -0.1767 -1.7446 -1.4347
 6113TIP3   OH239829   0.684   2.798  16.389 -0.3419 -0.6890  0.1399
 6113TIP3    H139830   0.751   2.843  16.440 -0.6377  0.1067 -0.1632
 6113TIP3    H239831   0.645   2.736  16.450 -0.0790 -0.3794  0.6249
 6114TIP3   OH239832   0.321   0.148   0.022 -0.1287  0.4496  0.0885
 6114TIP3    H139833   0.262   0.179   0.091  1.7618  1.7076  1.2558
 6114TIP3    H239834   0.409   0.167   0.056  0.9621 -1.0666 -1.6811
 6115TIP3   OH239835   5.908   0.631  13.341 -0.6917  0.3509  0.3452
 6115TIP3    H139836   5.815   0.649  13.348 -0.6627  0.3461  0.7865
 6115TIP3    H239837   5.948   0.716  13.324 -0.7395  0.4158  0.5516
 6116TIP3   OH239838   0.109   2.162  16.259 -0.0688  0.8477 -0.2434
 6116TIP3    H139839   0.023   2.189  16.292 -0.0150  0.6649  0.0520
 6116TIP3    H239840   0.156   2.132  16.337 -0.6299 -1.4640 -0.7107
 6117TIP3   OH239841   2.978   6.198   4.588 -0.0851 -0.1551  0.4085
 6117TIP3    H139842   2.928   6.173   4.666 -0.6109  0.4977  0.2932
 6117TIP3    H239843   3.065   6.161   4.602 -0.3703 -0.6261  0.9881
 6118TIP3   OH239844   6.222   3.364  12.294  0.4014  0.4937 -0.2618
 6118TIP3    H139845   6.247   3.429  12.360 -0.5951 -0.7523  1.4143
 6118TIP3    H239846   6.289   3.296  12.300 -1.1351 -0.9770  1.5282
 6119TIP3   OH239847   4.218   1.915   5.129  0.2287  0.0059  0.2383
 6119TIP3    H139848   4.197   1.920   5.222  0.6850  0.5519  0.3172
 6119TIP3    H239849   4.177   1.992   5.091 -1.5147 -1.1481 -0.3463
 6120TIP3   OH239850   4.931   1.126   3.986  0.0016  0.4238  0.1972
 6120TIP3    H139851   4.884   1.042   3.990  0.0287  0.3859 -0.2085
 6120TIP3    H239852   4.980   1.122   3.904 -2.6192  2.2083 -1.6124
 6121TIP3   OH239853   1.282   5.132  14.528  0.6716 -0.3804  0.0889
 6121TIP3    H139854   1.317   5.215  14.496  0.1486 -0.7355 -1.5212
 6121TIP3    H239855   1.211   5.157  14.587  1.0997  0.3130  0.3221
 6122TIP3   OH239856   4.587   3.737  13.765 -0.0367 -0.0288 -0.3059
 6122TIP3    H139857   4.530   3.694  13.829 -1.0399  0.6980 -0.6825
 6122TIP3    H239858   4.675   3.721  13.797 -0.4879 -0.4415  0.7777
 6123TIP3   OH239859   2.060   2.622  10.570 -0.3899 -0.3916  0.1720
 6123TIP3    H139860   2.137   2.578  10.607  0.3795  0.6971 -0.0505
 6123TIP3    H239861   2.090   2.712  10.556 -1.5302 -0.1021 -0.4928
 6124TIP3   OH239862   0.857   2.990  15.678 -0.2976 -0.1306  0.4881
 6124TIP3    H139863   0.949   3.006  15.659 -0.9347  0.4922 -2.5704
 6124TIP3    H239864   0.834   2.913  15.624 -2.1137  1.2756 -0.8879
 6125TIP3   OH239865   0.852   3.508  12.544 -0.0276  1.1336 -0.1417
 6125TIP3    H139866   0.762   3.536  12.526 -0.2073  0.3302 -0.5470
 6125TIP3    H239867   0.850   3.478  12.635 -0.1275  1.2679 -0.0989
 6126TIP3   OH239868   3.479   4.085   2.825  0.0671 -0.3181  0.0280
 6126TIP3    H139869   3.395   4.041   2.811 -0.1920  0.0145  0.4866
 6126TIP3    H239870   3.528   4.026   2.882  0.4377 -0.8518 -0.8201
 6127TIP3   OH239871   5.002   0.044  12.629 -0.0699 -0.6017 -0.6058
 6127TIP3    H139872   5.015  -0.025  12.563  0.9446  1.3696 -2.5996
 6127TIP3    H239873   4.981   0.122  12.578  0.9070  1.0719  1.4049
 6128TIP3   OH239874   5.075   6.567  11.836 -0.2289 -1.0227 -0.1601
 6128TIP3    H139875   5.038   6.546  11.922  0.9148  0.2479  0.6975
 6128TIP3    H239876   5.063   6.487  11.785 -0.0120 -2.1941  1.5147
 6129TIP3   OH239877   3.103   5.138  15.836  0.2709  0.0992 -0.7898
 6129TIP3    H139878   3.194   5.149  15.865  0.5713  0.8782 -1.9875
 6129TIP3    H239879   3.057   5.213  15.874 -0.1659 -0.9267  0.8292
 6130TIP3   OH239880   0.869   2.574  16.596  0.2062  0.1904  0.6136
 6130TIP3    H139881   0.877   2.668  16.578 -1.4474  0.2745  0.1630
 6130TIP3    H239882   0.869   2.569  16.692  0.0207  0.6789  0.6430
 6131TIP3   OH239883   0.383   2.391  16.682  0.2624 -0.0985  0.2837
 6131TIP3    H139884   0.430   2.404  16.765 -0.7073  1.3374  0.6363
 6131TIP3    H239885   0.332   2.311  16.696  1.1377 -0.6290  0.5665
 6132TIP3   OH239886   5.868   6.004  12.194  0.1187  0.0500  0.4327
 6132TIP3    H139887   5.904   5.986  12.107  0.3627 -0.4019  0.6203
 6132TIP3    H239888   5.776   6.022  12.179  0.4688  1.5416 -0.0915
 6133TIP3   OH239889   5.366   4.854   4.163  0.2337 -0.5798 -0.2487
 6133TIP3    H139890   5.290   4.911   4.146  0.5128  0.4103  1.6098
 6133TIP3    H239891   5.363   4.837   4.257  1.7773 -1.3091 -0.3047
 6134TIP3   OH239892   1.787   2.677   1.061 -0.6818 -0.4411 -0.2017
 6134TIP3    H139893   1.862   2.645   1.111 -0.7642  1.7120  1.4773
 6134TIP3    H239894   1.718   2.613   1.076 -0.7346  0.1708  2.6726
 6135TIP3   OH239895   5.757   2.163   5.464 -0.1268 -0.3317 -0.0978
 6135TIP3    H139896   5.760   2.110   5.384 -0.4770 -0.7846  0.1803
 6135TIP3    H239897   5.780   2.102   5.534 -2.9995 -0.8238  0.5656
 6136TIP3   OH239898   1.869   0.344  11.782  0.1274 -0.5017  0.0083
 6136TIP3    H139899   1.888   0.382  11.868  1.7648 -0.7905 -0.1926
 6136TIP3    H239900   1.774   0.354  11.772  0.0293  0.3472  1.4534
 6137TIP3   OH239901   1.097   2.967   5.273 -0.0752 -0.1239  0.0863
 6137TIP3    H139902   1.038   3.004   5.339 -1.7885 -0.2497 -1.2963
 6137TIP3    H239903   1.103   2.874   5.296  1.0610  0.2194  1.2683
 6138TIP3   OH239904   0.003   3.426  14.731  0.0304 -0.1680  0.1698
 6138TIP3    H139905   0.093   3.392  14.739 -0.1216 -0.6288 -0.0223
 6138TIP3    H239906   0.014   3.521  14.728  0.7009 -0.2418 -1.8354
 6139TIP3   OH239907   5.805   2.529   2.782  0.2034  0.1446 -1.2012
 6139TIP3    H139908   5.783   2.501   2.693 -0.9279 -0.8574 -0.6364
 6139TIP3    H239909   5.726   2.573   2.814  0.1786 -0.5416 -0.2872
 6140TIP3   OH239910   1.595   6.060  11.398  0.0382 -0.0940 -0.4055
 6140TIP3    H139911   1.685   6.033  11.418  0.3360  1.5992  0.7315
 6140TIP3    H239912   1.541   5.988  11.431  0.8966 -0.3983  0.3948
 6141TIP3   OH239913   1.515   2.835  14.519 -0.2146  0.4767  0.1290
 6141TIP3    H139914   1.610   2.840  14.507 -0.2657 -1.0403 -1.4052
 6141TIP3    H239915   1.492   2.748  14.485 -1.8364 -0.3101  2.9506
 6142TIP3   OH239916   1.947   4.294  12.323 -0.0835 -0.1198  0.3112
 6142TIP3    H139917   1.987   4.224  12.271 -0.8875 -0.8371  0.6456
 6142TIP3    H239918   1.932   4.255  12.409  0.2141  0.7230  0.7603
 6143TIP3   OH239919   4.329   4.403   5.856 -0.3420 -0.0463  0.0743
 6143TIP3    H139920   4.355   4.384   5.947 -0.6009  0.3145  0.2250
 6143TIP3    H239921   4.325   4.317   5.815 -0.9611 -0.2845  0.6091
 6144TIP3   OH239922   4.077   4.589   4.274 -0.4497 -0.1810 -0.1411
 6144TIP3    H139923   4.131   4.573   4.351  0.9919  1.1323 -0.8227
 6144TIP3    H239924   4.099   4.679   4.247 -2.1628  0.0003 -1.1103
 6145TIP3   OH239925   3.223   3.636   4.690  0.5750 -0.2626 -0.7807
 6145TIP3    H139926   3.266   3.565   4.738  2.3262  0.3282 -1.4037
 6145TIP3    H239927   3.272   3.714   4.713 -0.1787  0.4575 -1.5447
 6146TIP3   OH239928   1.251   0.373   1.799 -0.0214  0.4124 -0.2142
 6146TIP3    H139929   1.216   0.360   1.888  0.1257 -1.2726 -0.3758
 6146TIP3    H239930   1.318   0.441   1.810 -0.2584  0.4960  0.8974
 6147TIP3   OH239931   3.570   4.276  11.589  0.1573 -0.1310 -0.3481
 6147TIP3    H139932   3.634   4.205  11.578  0.4865 -0.0640  0.9485
 6147TIP3    H239933   3.620   4.356  11.573 -0.3006 -0.1807 -2.1764
 6148TIP3   OH239934   0.101   5.229  16.913  0.1264 -0.0460 -0.6396
 6148TIP3    H139935   0.069   5.290  16.846  0.0106  0.9726  0.3158
 6148TIP3    H239936   0.188   5.262  16.936 -0.5258  0.6653  0.9332
 6149TIP3   OH239937   6.124   3.183   2.806  0.1288 -0.1306  0.6660
 6149TIP3    H139938   6.068   3.240   2.754 -1.0665 -1.6414  0.2158
 6149TIP3    H239939   6.063   3.124   2.851  1.3039 -3.2302 -1.4415
 6150TIP3   OH239940   4.694   2.780  15.614 -0.1017 -0.2077  0.6110
 6150TIP3    H139941   4.775   2.731  15.629  0.4684  0.7786  0.8459
 6150TIP3    H239942   4.628   2.713  15.599  0.4155 -1.0808  2.0578
 6151TIP3   OH239943   3.919   0.659   3.522  0.1484 -0.2113  0.0536
 6151TIP3    H139944   3.908   0.748   3.487 -1.7207 -0.4162  0.0142
 6151TIP3    H239945   3.997   0.664   3.577  0.5356  1.2514 -0.5827
 6152TIP3   OH239946   6.655   6.633  12.011  0.2229 -0.9512  0.8703
 6152TIP3    H139947   6.659   6.724  12.040  1.0821 -1.3304  2.0093
 6152TIP3    H239948   6.562   6.611  12.018  0.0113 -0.1748  0.6165
 6153TIP3   OH239949   1.707   3.088   2.197 -0.1165  0.3461 -0.1230
 6153TIP3    H139950   1.735   3.088   2.105  1.2310 -0.0029  0.2704
 6153TIP3    H239951   1.665   3.002   2.209  0.0104  0.2563 -0.3158
 6154TIP3   OH239952   3.217   6.306  15.901  0.6059 -0.4484  0.1312
 6154TIP3    H139953   3.219   6.357  15.820  2.0858 -2.4805 -1.1991
 6154TIP3    H239954   3.179   6.366  15.965 -1.6949  0.8909 -2.2565
 6155TIP3   OH239955   0.374   0.014   2.910 -0.0544  0.1741  0.2025
 6155TIP3    H139956   0.469   0.023   2.922  0.4314  0.3001 -2.8570
 6155TIP3    H239957   0.364  -0.066   2.859 -1.6777 -0.1275  0.9407
 6156TIP3   OH239958   2.331   3.132  11.232  0.1072 -0.6815 -0.3228
 6156TIP3    H139959   2.305   3.070  11.300 -1.4724  1.0358  0.7484
 6156TIP3    H239960   2.424   3.147  11.248  0.2405 -1.8885  0.1210
 6157TIP3   OH239961   3.661   3.177  16.062 -0.5698  0.2080 -0.2763
 6157TIP3    H139962   3.728   3.242  16.080 -1.5759  0.7001  2.0895
 6157TIP3    H239963   3.578   3.221  16.082 -1.4785 -0.9483 -1.3064
 6158TIP3   OH239964   4.826   2.664  16.458 -0.2850  0.1190 -0.2123
 6158TIP3    H139965   4.797   2.663  16.367 -1.0008  0.5038  0.0027
 6158TIP3    H239966   4.920   2.683  16.453 -0.5141  1.2216 -0.8367
 6159TIP3   OH239967   2.546   1.005   1.692  0.1291 -0.1819 -0.1175
 6159TIP3    H139968   2.635   1.033   1.669  0.0058 -1.1573 -1.9366
 6159TIP3    H239969   2.546   0.910   1.680 -0.8467 -0.3534  1.0235
 6160TIP3   OH239970   0.134   2.856  11.926  0.1673 -0.1324 -0.5671
 6160TIP3    H139971   0.165   2.899  11.846  2.1037  0.5700  0.4952
 6160TIP3    H239972   0.079   2.923  11.969  1.8314  0.7433  0.2752
 6161TIP3   OH239973   0.153   2.562  14.456 -0.4077 -0.3268  0.0388
 6161TIP3    H139974   0.080   2.624  14.452  0.1028  0.2536 -0.7177
 6161TIP3    H239975   0.137   2.503  14.382 -0.1720 -0.2578 -0.0673
 6162TIP3   OH239976   0.593   5.514   0.132 -0.9673 -0.1889  0.5568
 6162TIP3    H139977   0.595   5.423   0.101  0.2716  0.2117 -0.6680
 6162TIP3    H239978   0.608   5.566   0.053  2.1559  0.9199  1.7453
 6163TIP3   OH239979   5.790   1.809   2.844 -0.4039  0.5664  0.6219
 6163TIP3    H139980   5.859   1.754   2.807 -0.7106 -0.2551  1.2489
 6163TIP3    H239981   5.732   1.826   2.770 -0.3705 -0.0653  0.4441
 6164TIP3   OH239982   6.266   6.570  16.259 -0.5268  0.2670 -0.1660
 6164TIP3    H139983   6.254   6.503  16.326  2.0601 -0.5268 -0.3842
 6164TIP3    H239984   6.313   6.640  16.303 -0.1633  0.4094 -0.7721
 6165TIP3   OH239985   5.728   4.388  15.457 -0.1170 -0.0983 -0.1191
 6165TIP3    H139986   5.780   4.402  15.378 -0.4532  2.1324 -0.0016
 6165TIP3    H239987   5.729   4.293  15.469  1.7220 -0.3354 -1.5798
 6166TIP3   OH239988   0.308   4.285  14.450 -0.0039 -0.3461 -0.6611
 6166TIP3    H139989   0.284   4.198  14.416  1.5144 -0.3858 -1.7115
 6166TIP3    H239990   0.389   4.271  14.499 -1.2723  0.0202  1.6932
 6167TIP3   OH239991   2.670   4.995   6.817 -0.0119 -0.5992 -0.0540
 6167TIP3    H139992   2.688   5.006   6.910  0.6758 -0.0083 -0.2468
 6167TIP3    H239993   2.658   5.084   6.784  0.4080 -0.7526 -0.6495
 6168TIP3   OH239994   5.886   5.609   1.734  0.0675  0.4179 -0.3712
 6168TIP3    H139995   5.875   5.515   1.753 -1.3483  0.3963 -1.1280
 6168TIP3    H239996   5.955   5.637   1.794 -1.0759 -0.6118  1.5637
 6169TIP3   OH239997   0.434   2.790   2.561 -0.1707 -0.2766 -0.1355
 6169TIP3    H139998   0.512   2.781   2.616  1.3018  0.9148 -1.8847
 6169TIP3    H239999   0.410   2.699   2.539  1.5023 -0.6650 -0.5380
 6170TIP3   OH240000   3.300   2.095   1.839  0.0587 -0.5864  0.2083
 6170TIP3    H140001   3.274   2.006   1.816 -1.7423  0.0333 -0.3125
 6170TIP3    H240002   3.358   2.123   1.768  0.1634 -1.1336  0.0771
 6171TIP3   OH240003   5.249   4.658   4.805 -0.5087  0.2314  0.1923
 6171TIP3    H140004   5.208   4.590   4.859  0.5991 -1.1798 -0.6463
 6171TIP3    H240005   5.343   4.645   4.818 -0.2409  0.5027 -1.2562
 6172TIP3   OH240006   1.022   0.690  10.751  0.0061 -0.3724  0.4766
 6172TIP3    H140007   1.060   0.777  10.745  0.7705 -0.6298  1.3957
 6172TIP3    H240008   0.940   0.703  10.798 -1.0826  0.1769 -1.4665
 6173TIP3   OH240009   3.924   1.188   4.526  0.2723 -0.1196  0.5564
 6173TIP3    H140010   3.943   1.146   4.610  2.3513 -0.4150 -0.0284
 6173TIP3    H240011   3.975   1.139   4.462 -2.6298 -1.0642 -1.2480
 6174TIP3   OH240012   6.446   3.084   4.711  0.3180 -0.1319 -0.4421
 6174TIP3    H140013   6.459   3.171   4.672 -1.7300 -0.0951 -1.1892
 6174TIP3    H240014   6.432   3.026   4.636 -1.4292 -0.4833  0.1073
 6175TIP3   OH240015   1.737   3.053  12.788  0.0267  0.2440  0.2381
 6175TIP3    H140016   1.798   3.039  12.860 -0.3618  0.1778  0.5555
 6175TIP3    H240017   1.676   3.119  12.820 -0.5959 -0.3223  0.2495
 6176TIP3   OH240018   0.784   3.087   2.445  0.7407 -0.3398  0.1192
 6176TIP3    H140019   0.839   3.024   2.490 -0.3307 -0.1600  1.7640
 6176TIP3    H240020   0.695   3.069   2.476  0.0310  0.2521 -1.4244
 6177TIP3   OH240021   4.093   5.074   5.831 -0.1619  0.0848 -0.0569
 6177TIP3    H140022   4.133   5.096   5.915 -2.6285  0.3576  1.1393
 6177TIP3    H240023   4.121   5.143   5.771  0.5887  0.6081  0.8850
 6178TIP3   OH240024   5.420   0.303   3.213  0.0865 -0.2239 -0.1267
 6178TIP3    H140025   5.364   0.283   3.288  0.4111 -1.9281 -0.2804
 6178TIP3    H240026   5.509   0.288   3.244  0.2052 -1.2863 -0.9147
 6179TIP3   OH240027   4.441   2.313   1.297  0.4657  0.4956 -0.2013
 6179TIP3    H140028   4.385   2.380   1.335 -0.7760  0.2839 -1.5685
 6179TIP3    H240029   4.529   2.350   1.302 -0.1841  2.2930 -0.9944
 6180TIP3   OH240030   0.017   2.126   2.284 -0.2451  0.3704 -0.2867
 6180TIP3    H140031   0.048   2.064   2.218 -0.3852 -0.7350  0.6598
 6180TIP3    H240032   0.086   2.193   2.288  0.3527 -0.2130 -0.6608
 6181TIP3   OH240033   2.669   3.248   0.081  0.0845 -0.4215  0.2377
 6181TIP3    H140034   2.603   3.286   0.139 -0.4829  0.8134 -1.1442
 6181TIP3    H240035   2.716   3.323   0.045  0.8436 -1.1837 -0.4175
 6182TIP3   OH240036   4.852   0.914  15.116 -0.1245  0.1247  0.5882
 6182TIP3    H140037   4.778   0.951  15.163 -0.7868  1.3082 -1.2779
 6182TIP3    H240038   4.915   0.892  15.185 -1.6687  0.2552  2.1242
 6183TIP3   OH240039   4.712   6.120   3.995 -0.3895 -0.3409 -0.1968
 6183TIP3    H140040   4.788   6.091   4.045  1.4671  1.7238 -1.6220
 6183TIP3    H240041   4.643   6.058   4.018  2.1733 -3.4504 -0.1970
 6184TIP3   OH240042   5.279   2.041  12.286 -0.3291 -0.0207  0.4439
 6184TIP3    H140043   5.358   2.086  12.255  0.3046 -0.6393  1.1094
 6184TIP3    H240044   5.207   2.100  12.264  0.4189  1.0156  0.7115
 6185TIP3   OH240045   5.389   2.665   2.530  0.0026  0.1652  0.6757
 6185TIP3    H140046   5.380   2.637   2.621  1.7279  0.2479  0.9064
 6185TIP3    H240047   5.380   2.760   2.533 -4.4080 -0.0039  0.0818
 6186TIP3   OH240048   1.753   0.907  16.281 -0.0979 -0.4787  0.3190
 6186TIP3    H140049   1.665   0.938  16.259 -1.0591 -0.6082  3.5420
 6186TIP3    H240050   1.765   0.828  16.228 -0.0848  1.7794 -3.3819
 6187TIP3   OH240051   5.691   5.500  14.476  0.3936 -0.3616 -0.5024
 6187TIP3    H140052   5.667   5.571  14.535 -1.0391  0.3785 -1.9127
 6187TIP3    H240053   5.747   5.541  14.411  0.6124 -0.8202 -0.6081
 6188TIP3   OH240054   1.938   2.588   3.451  0.0234  0.1039  0.4695
 6188TIP3    H140055   1.951   2.682   3.464  0.2918 -0.1452  2.3435
 6188TIP3    H240056   1.845   2.579   3.429 -0.1668  0.7743  0.9468
 6189TIP3   OH240057   0.563   1.800   4.222  0.1996 -0.2285  0.4444
 6189TIP3    H140058   0.619   1.736   4.266 -0.5142 -1.4492 -0.3887
 6189TIP3    H240059   0.625   1.859   4.178  0.8549 -1.4745 -0.3492
 6190TIP3   OH240060   5.546   0.770  13.667 -0.2113 -0.1474 -0.2577
 6190TIP3    H140061   5.476   0.783  13.731 -1.2161  2.0201 -1.6908
 6190TIP3    H240062   5.625   0.803  13.711 -0.6513  0.2144  0.2797
 6191TIP3   OH240063   3.023   4.503   6.105  0.3760 -0.1397  0.0879
 6191TIP3    H140064   2.938   4.474   6.137 -0.9216  2.6453 -0.5134
 6191TIP3    H240065   3.070   4.531   6.183  0.5140 -1.1080  0.3590
 6192TIP3   OH240066   3.784   6.020   3.694 -0.0011  0.0447  0.0337
 6192TIP3    H140067   3.853   6.037   3.630  0.4677  1.2541  0.8312
 6192TIP3    H240068   3.821   5.952   3.751 -0.4685 -1.1276 -1.0116
 6193TIP3   OH240069   1.221   3.810   3.228 -0.1878 -0.2900 -0.1191
 6193TIP3    H140070   1.205   3.850   3.314  1.3374 -1.6075  0.8346
 6193TIP3    H240071   1.134   3.791   3.194 -0.8329  0.5585  0.9834
 6194TIP3   OH240072   3.461   1.920  15.204  0.3441  0.0061 -0.3558
 6194TIP3    H140073   3.402   1.975  15.152 -1.0430  0.8672  1.9758
 6194TIP3    H240074   3.521   1.981  15.246 -0.2108 -0.3584  1.0305
 6195TIP3   OH240075   1.148   2.350  16.705  0.1352 -0.0261 -0.1067
 6195TIP3    H140076   1.190   2.320  16.786  1.4276  0.4111 -0.5790
 6195TIP3    H240077   1.146   2.446  16.713 -1.1121 -0.0559  0.0494
 6196TIP3   OH240078   4.122   2.378  11.099 -0.3756  0.6304  0.1260
 6196TIP3    H140079   4.065   2.387  11.023  0.0348  0.3265 -0.2226
 6196TIP3    H240080   4.084   2.306  11.150 -1.0796  1.3204  0.6047
 6197TIP3   OH240081   6.328   1.380   1.036 -0.1434  0.2529 -0.5236
 6197TIP3    H140082   6.417   1.349   1.021 -0.1843  0.0274 -0.3047
 6197TIP3    H240083   6.275   1.329   0.974 -0.2870 -0.5455  0.2255
 6198TIP3   OH240084   2.241   6.321  15.464 -0.0298  0.3417  0.1438
 6198TIP3    H140085   2.186   6.394  15.491  0.0731  0.5464 -0.2035
 6198TIP3    H240086   2.330   6.357  15.463  0.0391  0.1717  0.1279
 6199TIP3   OH240087   2.174   4.002   3.437  0.0623  0.1565 -0.2422
 6199TIP3    H140088   2.088   3.980   3.472  1.2947 -2.4799  1.4729
 6199TIP3    H240089   2.180   3.954   3.355 -0.3940  1.0673 -0.8241
 6200TIP3   OH240090   3.379   6.725  12.255 -0.3201 -0.2715 -0.1867
 6200TIP3    H140091   3.331   6.782  12.195 -0.7178 -0.0653  0.3145
 6200TIP3    H240092   3.316   6.707  12.326 -0.1213 -1.1309 -0.2167
 6201TIP3   OH240093   1.622   5.254  16.215  0.2032  0.1451 -0.8295
 6201TIP3    H140094   1.679   5.227  16.287 -2.2939 -0.4976  1.0531
 6201TIP3    H240095   1.671   5.323  16.170  2.2334 -0.0396  0.9252
 6202TIP3   OH240096   0.462   3.763  15.131  0.6715 -0.7817  0.4554
 6202TIP3    H140097   0.377   3.723  15.151  0.6294 -0.9617 -0.0470
 6202TIP3    H240098   0.446   3.857  15.136  0.6775 -0.8221  1.2834
 6203TIP3   OH240099   4.509   2.137  12.588 -0.7943 -0.0326  0.2673
 6203TIP3    H140100   4.595   2.142  12.546 -1.3246  0.7625 -0.7668
 6203TIP3    H240101   4.528   2.114  12.679  0.5161  0.2338  0.0763
 6204TIP3   OH240102   0.933   4.758   3.790  0.1996 -0.3665  0.2480
 6204TIP3    H140103   0.851   4.801   3.764 -0.3697  0.6670  3.3856
 6204TIP3    H240104   0.904   4.676   3.831  0.6569  0.2700  1.8937
 6205TIP3   OH240105   0.624   1.620   3.018  0.4356  0.3281  0.3817
 6205TIP3    H140106   0.572   1.598   2.941  1.5850  2.4608 -1.0852
 6205TIP3    H240107   0.707   1.652   2.983  1.6861 -0.2912  2.5771
 6206TIP3   OH240108   3.350   4.525  17.047  0.1558  0.1550 -0.0183
 6206TIP3    H140109   3.271   4.545  16.997 -1.7969 -0.7833  2.5148
 6206TIP3    H240110   3.398   4.609  17.049 -0.9980  0.8826 -1.1544
 6207TIP3   OH240111   5.554   4.457   0.841 -0.5259 -0.5763 -0.0719
 6207TIP3    H140112   5.461   4.445   0.862 -0.7194  0.7475 -0.0725
 6207TIP3    H240113   5.571   4.549   0.860  0.8341 -0.8368  0.0588
 6208TIP3   OH240114   4.800   0.483   1.630 -0.8347  0.1611  0.6951
 6208TIP3    H140115   4.726   0.540   1.610 -1.0664 -0.7882 -1.4071
 6208TIP3    H240116   4.761   0.400   1.657 -0.6006 -0.4858 -0.8411
 6209TIP3   OH240117   6.163   3.607  16.437  0.1548 -0.3336 -0.0528
 6209TIP3    H140118   6.093   3.673  16.438 -0.5612 -1.0849 -0.1465
 6209TIP3    H240119   6.130   3.538  16.379  1.6831  0.0580 -1.4373
 6210TIP3   OH240120   5.860   1.017  16.022 -0.1587  0.0888 -0.2777
 6210TIP3    H140121   5.772   0.989  16.047  0.2925 -1.5668 -0.4815
 6210TIP3    H240122   5.892   0.948  15.964  1.0732  0.9480 -0.6531
 6211TIP3   OH240123   2.841   4.134   1.875  0.2274  0.5316  0.1864
 6211TIP3    H140124   2.861   4.161   1.965  2.0001  3.3521 -0.9069
 6211TIP3    H240125   2.920   4.091   1.845 -0.0980  0.2391 -0.2549
 6212TIP3   OH240126   4.403   3.174   0.785 -0.4519 -0.1446  0.4530
 6212TIP3    H140127   4.448   3.250   0.750 -0.5693 -0.5298 -0.5464
 6212TIP3    H240128   4.453   3.151   0.864  0.8762 -0.3339 -0.4210
 6213TIP3   OH240129   5.357   6.079  13.483 -0.4135  0.2036  0.2194
 6213TIP3    H140130   5.370   5.993  13.443 -0.0402 -0.3678  1.5397
 6213TIP3    H240131   5.425   6.134  13.444 -0.6930 -0.0569 -0.6752
 6214TIP3   OH240132   0.938   1.916   1.974  0.4128  0.0511  0.1549
 6214TIP3    H140133   0.973   1.832   2.004  1.4265  0.6495  0.6815
 6214TIP3    H240134   0.844   1.899   1.960  0.8018 -1.4671 -0.8595
 6215TIP3   OH240135   5.375   4.597   1.351  0.1759  0.1953 -0.6511
 6215TIP3    H140136   5.444   4.590   1.285  1.8827  0.2034  1.0559
 6215TIP3    H240137   5.349   4.689   1.347  0.7513  0.3570 -0.8617
 6216TIP3   OH240138   2.835   3.822  15.715  0.0002 -0.2374  0.0448
 6216TIP3    H140139   2.833   3.818  15.810 -1.7586  1.1454  0.1151
 6216TIP3    H240140   2.834   3.730  15.687  1.3369 -0.6755  1.3279
 6217TIP3   OH240141   4.678   4.558   0.774 -0.2586 -0.3904 -0.1822
 6217TIP3    H140142   4.597   4.579   0.727  0.2142 -1.6165 -1.6612
 6217TIP3    H240143   4.729   4.507   0.710  1.9039  0.7739  0.5321
 6218TIP3   OH240144   0.429   6.323  11.912  0.4242 -0.5907 -0.5234
 6218TIP3    H140145   0.347   6.300  11.956  0.7563 -0.1866  0.3375
 6218TIP3    H240146   0.409   6.403  11.865  0.3744 -0.3843 -0.1545
 6219TIP3   OH240147   2.273   5.462   2.076  0.3896 -0.7449  0.1697
 6219TIP3    H140148   2.330   5.490   2.147 -0.0067 -1.6336  0.8511
 6219TIP3    H240149   2.199   5.421   2.120 -0.6061  0.0456 -0.7089
 6220TIP3   OH240150   3.525   4.365  11.065 -0.4709  0.1865 -0.3954
 6220TIP3    H140151   3.431   4.385  11.070 -0.3337  0.8140 -0.2747
 6220TIP3    H240152   3.556   4.415  10.990 -0.1660  0.2523 -0.2253
 6221TIP3   OH240153   6.385   1.592  12.045  0.1172  0.4090  0.0430
 6221TIP3    H140154   6.328   1.659  12.081 -1.3019  0.2339 -1.7421
 6221TIP3    H240155   6.469   1.606  12.089 -1.4143  0.1483  3.3778
 6222TIP3   OH240156   2.532   6.640   0.014  0.4797  0.6192  0.1471
 6222TIP3    H140157   2.449   6.593   0.007  0.4961 -0.0079  2.8331
 6222TIP3    H240158   2.515   6.725  -0.025 -0.3688 -0.6101 -2.3753
 6223TIP3   OH240159   0.179   6.216   2.622 -0.2546  0.1069  0.7175
 6223TIP3    H140160   0.221   6.145   2.670 -0.8503  0.9232  2.5420
 6223TIP3    H240161   0.123   6.259   2.686 -1.7572  0.7645 -0.9286
 6224TIP3   OH240162   3.690   3.557  16.474  0.3135 -0.0088  0.6516
 6224TIP3    H140163   3.757   3.625  16.472  0.0661  0.2264 -1.1291
 6224TIP3    H240164   3.641   3.574  16.555 -0.1290  2.3365 -0.0406
 6225TIP3   OH240165   0.126   5.553   1.974 -0.5539  0.0401  0.5860
 6225TIP3    H140166   0.136   5.492   1.902 -1.7615 -0.7306  1.0426
 6225TIP3    H240167   0.035   5.583   1.968  0.2231  2.5053 -0.1502
 6226TIP3   OH240168   2.712   0.280   1.397 -0.3379  0.1334  0.5403
 6226TIP3    H140169   2.796   0.292   1.442 -0.5346  1.0676  0.6909
 6226TIP3    H240170   2.649   0.264   1.468 -0.5049  0.7790  0.5509
 6227TIP3   OH240171   4.418   2.481  14.627 -0.2804  0.1371 -0.2529
 6227TIP3    H140172   4.426   2.397  14.582  0.1281  0.2839 -0.4646
 6227TIP3    H240173   4.476   2.540  14.577 -0.4436  0.5004 -0.0131
 6228TIP3   OH240174   5.230   0.051  12.244  0.4791  0.1364  0.2313
 6228TIP3    H140175   5.240   0.067  12.338  2.5789  1.1982 -0.1004
 6228TIP3    H240176   5.180  -0.030  12.238  1.2906 -0.5772  2.2929
 6229TIP3   OH240177   4.287   2.868   0.167  0.1329 -0.2572  0.3128
 6229TIP3    H140178   4.338   2.948   0.171 -1.4759  0.8787 -0.5403
 6229TIP3    H240179   4.325   2.819   0.094 -0.3340  0.8694 -0.7349
 6230TIP3   OH240180   6.826   0.764  11.587  0.0507 -0.1238 -0.3099
 6230TIP3    H140181   6.796   0.701  11.521  0.2211 -0.7745  0.2212
 6230TIP3    H240182   6.801   0.849  11.552  1.1034 -0.3662 -1.7312
 6231TIP3   OH240183   0.415   2.532   5.769  0.1477 -0.1311 -0.4947
 6231TIP3    H140184   0.444   2.616   5.734  0.8818 -0.8520 -1.7184
 6231TIP3    H240185   0.487   2.503   5.825  0.8926 -0.8930 -1.7745
 6232TIP3   OH240186   5.276   4.642   4.533 -0.1255 -0.7239  0.7122
 6232TIP3    H140187   5.280   4.732   4.504 -0.6341 -1.0276 -0.3517
 6232TIP3    H240188   5.282   4.647   4.629  0.8973  0.3413  0.6065
 6233TIP3   OH240189   3.118   6.143  16.976 -0.0383  0.4355  0.4022
 6233TIP3    H140190   3.102   6.234  17.002 -0.8585  0.4842 -0.2489
 6233TIP3    H240191   3.032   6.108  16.954  0.5319  0.2668 -1.7734
 6234TIP3   OH240192   2.996   3.406   5.066 -0.9038  0.6234  0.4828
 6234TIP3    H140193   2.988   3.311   5.062  3.3502  0.0668 -0.1079
 6234TIP3    H240194   2.923   3.434   5.120 -3.0216 -2.7945 -0.2850
 6235TIP3   OH240195   0.293   1.045  16.676 -0.5546 -0.4336 -0.1182
 6235TIP3    H140196   0.278   0.979  16.744 -2.1776 -0.4968 -0.5086
 6235TIP3    H240197   0.207   1.082  16.659 -0.0475  0.1332 -1.5874
 6236TIP3   OH240198   4.383   2.007  13.288 -0.5735 -0.8204  0.2851
 6236TIP3    H140199   4.381   2.048  13.201  0.2817 -0.2208  0.5414
 6236TIP3    H240200   4.427   1.923  13.273  0.9244 -0.0808  0.3815
 6237TIP3   OH240201   3.492   4.217   2.547  0.3398  0.5195  0.2610
 6237TIP3    H140202   3.457   4.146   2.600  1.0501  0.7887  1.1350
 6237TIP3    H240203   3.527   4.175   2.469 -2.7560  0.3436 -1.1492
 6238TIP3   OH240204   5.934   1.411  13.813 -0.2560  0.5171 -0.3953
 6238TIP3    H140205   5.900   1.368  13.735 -0.9138  1.2978 -0.5585
 6238TIP3    H240206   5.897   1.363  13.887  1.5267 -1.1435 -0.5098
 6239TIP3   OH240207   0.153   0.341  14.092  0.0797  0.8132 -0.2816
 6239TIP3    H140208   0.111   0.274  14.039 -3.3439  0.5008  2.4922
 6239TIP3    H240209   0.196   0.292  14.162 -0.0374  1.3965  0.2065
 6240TIP3   OH240210   0.313   4.739   2.658  0.2880 -0.3278  0.6545
 6240TIP3    H140211   0.376   4.808   2.675  0.7084 -0.4912 -0.1828
 6240TIP3    H240212   0.228   4.779   2.677  0.4418  0.7588 -0.7709
 6241TIP3   OH240213   4.519   6.271   1.400 -0.3062  0.0295 -0.3478
 6241TIP3    H140214   4.579   6.344   1.415  0.8226 -0.0863 -3.4620
 6241TIP3    H240215   4.559   6.222   1.328 -1.9227 -2.6692  0.4560
 6242TIP3   OH240216   5.715   1.431   5.681 -0.3892 -0.4038 -0.1340
 6242TIP3    H140217   5.711   1.515   5.635  1.1498  0.1228  0.6316
 6242TIP3    H240218   5.714   1.454   5.774 -1.8511 -1.3650  0.1204
 6243TIP3   OH240219   3.169   3.387   1.977  0.4575 -0.3071 -0.3478
 6243TIP3    H140220   3.110   3.456   1.949 -0.4314 -0.8629  0.1055
 6243TIP3    H240221   3.170   3.324   1.905  1.0821  0.0450 -0.6605
 6244TIP3   OH240222   3.181   0.532   4.364  0.0878  0.1677 -0.3598
 6244TIP3    H140223   3.180   0.585   4.444  0.1847  0.4593 -0.5491
 6244TIP3    H240224   3.246   0.464   4.381  0.0666  0.1945 -0.1686
 6245TIP3   OH240225   1.849   6.381  16.661  0.4760  0.3353 -0.0488
 6245TIP3    H140226   1.848   6.370  16.566 -0.1113 -0.8244  0.0765
 6245TIP3    H240227   1.764   6.349  16.691  1.3146 -1.0251  1.0229
 6246TIP3   OH240228   3.177   1.561  12.231 -0.3782 -0.2235  0.5576
 6246TIP3    H140229   3.134   1.506  12.297 -0.9639 -1.2290 -0.6346
 6246TIP3    H240230   3.195   1.502  12.159  0.4705  0.8183 -0.1022
 6247TIP3   OH240231   3.032   4.806  14.832  0.0871  0.5344 -0.1928
 6247TIP3    H140232   3.127   4.801  14.833  0.0472 -1.0499 -1.2569
 6247TIP3    H240233   3.004   4.760  14.912  0.1806 -1.5370 -1.2976
 6248TIP3   OH240234   4.712   3.778   5.109  0.1044 -0.0860 -0.7220
 6248TIP3    H140235   4.790   3.737   5.147  1.2646  1.9206 -0.7670
 6248TIP3    H240236   4.716   3.756   5.016 -1.5439 -3.1633 -0.2018
 6249TIP3   OH240237   6.731   2.014  12.314 -0.1332 -0.0198  0.2127
 6249TIP3    H140238   6.648   2.007  12.266 -0.2253 -0.8365  0.4810
 6249TIP3    H240239   6.708   1.993  12.404  0.4431 -0.6556  0.2137
 6250TIP3   OH240240   2.993   6.809   5.417 -0.1735 -0.0999  0.4838
 6250TIP3    H140241   2.929   6.828   5.486 -0.3751  0.2475  0.2012
 6250TIP3    H240242   3.077   6.812   5.462 -0.2999  0.1778  0.7078
 6251TIP3   OH240243   2.730   4.543   2.938  0.0022  0.0199 -0.2677
 6251TIP3    H140244   2.692   4.557   2.851  2.3349 -2.0708 -1.7476
 6251TIP3    H240245   2.802   4.605   2.944 -0.0872  0.0891  0.1599
 6252TIP3   OH240246   3.714   0.949  17.088  0.0294  0.4917  0.1143
 6252TIP3    H140247   3.641   0.960  17.028  0.4338  1.6444 -0.1964
 6252TIP3    H240248   3.680   0.975  17.173 -0.3428 -0.4628  0.2738
 6253TIP3   OH240249   6.117   3.995  13.086  0.4254  0.3852 -0.7700
 6253TIP3    H140250   6.109   4.090  13.079  0.3310  0.3596 -1.0519
 6253TIP3    H240251   6.126   3.978  13.179 -1.0495  0.5541 -0.5791
 6254TIP3   OH240252   5.637   3.104  13.514 -0.0305  0.9019 -0.3504
 6254TIP3    H140253   5.672   3.142  13.594  0.0126  0.5873 -0.2155
 6254TIP3    H240254   5.570   3.166  13.484 -0.0273  1.0326 -0.0856
 6255TIP3   OH240255   0.261   3.565  11.363 -0.0289  0.1925  0.2102
 6255TIP3    H140256   0.244   3.575  11.269 -0.4527  0.0635  0.2702
 6255TIP3    H240257   0.351   3.594  11.375  0.2865 -0.5254 -0.3613
 6256TIP3   OH240258   3.621   3.366   1.799  0.1887 -0.1167  0.3135
 6256TIP3    H140259   3.617   3.440   1.859  0.9490  1.5729 -1.5896
 6256TIP3    H240260   3.665   3.296   1.848 -1.0630  0.4457  2.3417
 6257TIP3   OH240261   5.756   2.893  12.999 -0.2071  0.2711 -0.2531
 6257TIP3    H140262   5.719   2.840  12.929  0.6206 -1.9542  0.8961
 6257TIP3    H240263   5.685   2.902  13.063 -0.4959  1.0085 -0.6639
 6258TIP3   OH240264   3.143   3.314  11.336 -0.1379  0.8475  0.1565
 6258TIP3    H140265   3.155   3.255  11.261 -0.7149  0.4891  0.3466
 6258TIP3    H240266   3.126   3.399  11.296 -1.4397  0.4727 -0.1502
 6259TIP3   OH240267   0.937   1.132  16.039  0.3378  0.3561  0.0989
 6259TIP3    H140268   0.849   1.137  16.076 -1.0859 -0.9726 -2.7489
 6259TIP3    H240269   0.992   1.181  16.100 -2.4714  1.8427  1.6302
 6260TIP3   OH240270   3.345   3.057  11.398 -0.7023 -0.3977  0.5503
 6260TIP3    H140271   3.339   2.968  11.432  0.1055  0.2558  2.5541
 6260TIP3    H240272   3.295   3.110  11.460  0.2502  0.7736  0.3586
 6261TIP3   OH240273   2.424   4.979  14.339  0.1621 -0.1593  0.4088
 6261TIP3    H140274   2.435   5.026  14.421  0.5985  0.1999  0.1474
 6261TIP3    H240275   2.484   5.022  14.278 -2.0526  1.3747 -0.8660
 6262TIP3   OH240276   0.378   0.775  11.699  0.5249 -0.6443  0.0658
 6262TIP3    H140277   0.371   0.870  11.690 -0.3012 -0.6788  0.2513
 6262TIP3    H240278   0.332   0.740  11.622  2.0275 -0.8955 -0.7422
 6263TIP3   OH240279   4.667   1.716   2.261 -0.0418  0.0049 -0.2463
 6263TIP3    H140280   4.740   1.768   2.230  0.1187 -0.3013 -0.3790
 6263TIP3    H240281   4.612   1.702   2.184 -1.3959  2.0787  0.2469
 6264TIP3   OH240282   6.632   0.745   4.296 -0.3312  0.1623  0.4492
 6264TIP3    H140283   6.695   0.775   4.231 -0.5270  1.7001  0.9290
 6264TIP3    H240284   6.649   0.651   4.304 -0.4775 -0.1378 -1.9675
 6265TIP3   OH240285   2.257   1.179  10.664  0.0357 -0.0587 -0.1406
 6265TIP3    H140286   2.299   1.260  10.634  1.2957 -0.7030 -0.1677
 6265TIP3    H240287   2.167   1.186  10.631  0.4742  0.7412 -1.2466
 6266TIP3   OH240288   2.164   4.023  14.270  0.1953 -0.0379  0.3741
 6266TIP3    H140289   2.074   3.990  14.273  0.0223  0.2296 -1.0318
 6266TIP3    H240290   2.158   4.111  14.308 -0.2274  0.1369 -0.0790
 6267TIP3   OH240291   0.166   6.590  15.688 -0.4843 -0.0227  0.5062
 6267TIP3    H140292   0.096   6.630  15.740 -1.0383  1.3468 -1.1858
 6267TIP3    H240293   0.136   6.598  15.598  1.2132 -0.7686 -0.1621
 6268TIP3   OH240294   2.088   4.423   0.256  0.0345  1.1327 -0.4872
 6268TIP3    H140295   2.130   4.434   0.170  0.9446  1.5411 -0.0085
 6268TIP3    H240296   2.107   4.505   0.302  2.7785 -0.4415  1.4383
 6269TIP3   OH240297   3.344   2.913   3.340  0.2457 -0.1618  1.3483
 6269TIP3    H140298   3.369   2.989   3.393 -0.2272  2.0157 -1.2725
 6269TIP3    H240299   3.248   2.911   3.344 -0.0559  1.9105 -1.5277
 6270TIP3   OH240300   2.964   0.468  17.050  0.8377  0.2710 -0.1435
 6270TIP3    H140301   2.951   0.472  16.956 -0.2407 -0.2313 -0.0261
 6270TIP3    H240302   3.052   0.504  17.064  0.0252  2.8760 -1.0978
 6271TIP3   OH240303   2.945   6.274   5.596  0.1463  0.4885 -0.3783
 6271TIP3    H140304   2.939   6.295   5.689  0.6054  3.4761 -0.9460
 6271TIP3    H240305   2.966   6.357   5.553  1.0944 -1.0026 -3.0521
 6272TIP3   OH240306   6.478   4.373   6.328  0.4332  0.2727  0.4005
 6272TIP3    H140307   6.551   4.311   6.320 -0.6903 -0.8389 -2.4498
 6272TIP3    H240308   6.495   4.440   6.262  0.3567  1.7084  1.7780
 6273TIP3   OH240309   3.582   0.574  13.638  0.0538 -0.2427 -0.3410
 6273TIP3    H140310   3.610   0.488  13.607 -0.9636 -0.0949 -1.7891
 6273TIP3    H240311   3.486   0.569  13.638 -0.0574  1.1727 -1.3958
 6274TIP3   OH240312   4.347   0.671   0.443 -0.3965  0.5997 -0.5821
 6274TIP3    H140313   4.253   0.653   0.448 -0.1626 -0.5610 -0.1224
 6274TIP3    H240314   4.388   0.585   0.432  0.6378  1.0579 -0.5000
 6275TIP3   OH240315   6.315   6.675   0.693 -0.1640  0.7101 -0.2538
 6275TIP3    H140316   6.251   6.689   0.762 -2.0115 -0.7473 -1.5467
 6275TIP3    H240317   6.387   6.629   0.735 -0.9660  0.4160  0.8399
 6276TIP3   OH240318   4.256   0.127   0.780 -0.1831 -0.3048 -0.0497
 6276TIP3    H140319   4.214   0.181   0.848 -0.5396 -1.4855  0.6872
 6276TIP3    H240320   4.196   0.133   0.705 -0.0185  0.6289 -0.1247
 6277TIP3   OH240321   6.514   5.009   5.189 -0.5769 -0.3415  0.1255
 6277TIP3    H140322   6.545   4.921   5.207 -0.6244 -0.1823  1.0278
 6277TIP3    H240323   6.464   5.034   5.266  0.3917  0.9009  0.4007
 6278TIP3   OH240324   5.325   2.533  17.081 -0.0633 -0.2442  0.0578
 6278TIP3    H140325   5.373   2.496  17.007 -0.5910 -0.4835 -0.1671
 6278TIP3    H240326   5.233   2.533  17.054 -0.1537  0.6084  0.3123
 6279TIP3   OH240327   3.597   6.480   2.789 -0.2595  0.0207  0.2427
 6279TIP3    H140328   3.669   6.419   2.806 -0.6779 -0.2563  1.0773
 6279TIP3    H240329   3.592   6.534   2.868 -0.3599  0.6657 -0.1995
 6280TIP3   OH240330   4.098   2.163   4.336  0.9629  0.0075 -0.4125
 6280TIP3    H140331   4.168   2.155   4.401  0.0576 -0.5591  0.5138
 6280TIP3    H240332   4.079   2.073   4.310 -0.8072 -0.0179  0.8631
 6281TIP3   OH240333   3.069   1.300  12.119  0.0753  0.0343  0.3047
 6281TIP3    H140334   2.983   1.269  12.149  0.5137 -0.5675  0.9590
 6281TIP3    H240335   3.077   1.263  12.031 -0.6318  0.6875 -0.0541
 6282TIP3   OH240336   4.585   5.615  13.919 -0.1131 -0.2127  0.1590
 6282TIP3    H140337   4.549   5.601  13.831 -1.3615 -3.2651  1.0545
 6282TIP3    H240338   4.666   5.565  13.920 -0.3727 -0.6174  0.9124
 6283TIP3   OH240339   4.505   4.952   1.293  0.0253 -0.3589 -0.3742
 6283TIP3    H140340   4.556   4.896   1.352 -0.5054 -1.8828 -1.2804
 6283TIP3    H240341   4.416   4.917   1.299 -0.3387  0.4520 -0.9083
 6284TIP3   OH240342   0.553   5.001   1.919  0.6202  0.2044 -0.1624
 6284TIP3    H140343   0.645   4.975   1.931  0.1426 -3.1350 -2.2574
 6284TIP3    H240344   0.508   4.965   1.995  0.8014  0.3804  0.0312
 6285TIP3   OH240345   5.311   4.279   5.810  0.3970  0.7266 -0.0236
 6285TIP3    H140346   5.294   4.188   5.784 -1.3984  0.9340  0.2868
 6285TIP3    H240347   5.403   4.280   5.836 -0.3793 -1.9457  3.6152
 6286TIP3   OH240348   5.727   3.095   4.804  1.0731  0.4130 -0.3672
 6286TIP3    H140349   5.782   3.112   4.881 -1.3426  0.1648  1.5225
 6286TIP3    H240350   5.739   3.173   4.749  3.2488  0.3650 -0.0651
 6287TIP3   OH240351   1.975   6.270  12.878  0.5390  0.0188 -0.3013
 6287TIP3    H140352   1.982   6.257  12.784 -2.3411 -1.7145 -0.3702
 6287TIP3    H240353   1.951   6.363  12.887 -1.2492 -0.2910 -1.4549
 6288TIP3   OH240354   3.272   1.464   2.287  0.1514  0.4671  0.2080
 6288TIP3    H140355   3.291   1.550   2.251  0.7015  0.2719  0.0099
 6288TIP3    H240356   3.342   1.408   2.252  0.7185  0.2733  1.5775
 6289TIP3   OH240357   0.996   3.218   4.657  0.2777  0.5739  0.1942
 6289TIP3    H140358   1.005   3.134   4.702  2.5011  0.8414  0.3361
 6289TIP3    H240359   0.912   3.211   4.611 -0.2147 -1.1976  1.2654
 6290TIP3   OH240360   1.270   4.368   5.689  0.1268 -0.3241 -0.0877
 6290TIP3    H140361   1.316   4.384   5.772 -0.2816  0.3370  0.0266
 6290TIP3    H240362   1.206   4.300   5.710  0.4337 -0.5904 -0.0136
 6291TIP3   OH240363   6.237   2.775   4.851 -0.0443  0.1477  0.3752
 6291TIP3    H140364   6.207   2.836   4.783  0.8985 -1.0936 -1.2257
 6291TIP3    H240365   6.235   2.826   4.932 -1.1995  1.6856 -0.5696
 6292TIP3   OH240366   4.575   0.326   2.521 -0.2979  0.5224  0.6428
 6292TIP3    H140367   4.532   0.383   2.584 -0.6898 -1.2580  2.0747
 6292TIP3    H240368   4.668   0.331   2.542 -0.2365  1.2184  0.2364
 6293TIP3   OH240369   1.758   5.315   6.079 -0.6149  0.2979 -0.1918
 6293TIP3    H140370   1.811   5.344   6.153 -0.2819  0.7400 -0.5982
 6293TIP3    H240371   1.723   5.231   6.106  0.1055  0.1097  0.1790
 6294TIP3   OH240372   2.949   3.935  12.183 -0.1194  0.0887  0.1440
 6294TIP3    H140373   2.982   3.993  12.114 -0.6771  2.2023  1.5380
 6294TIP3    H240374   3.020   3.873  12.199  1.3537  1.6433 -0.0568
 6295TIP3   OH240375   3.902   3.738  16.505 -0.3039 -0.3717 -0.4108
 6295TIP3    H140376   3.923   3.722  16.413 -1.4437  1.4352 -1.0455
 6295TIP3    H240377   3.959   3.810  16.531 -0.3222 -0.5593  0.1701
 6296TIP3   OH240378   0.687   0.486   0.612  0.1045 -0.2324  0.0812
 6296TIP3    H140379   0.768   0.537   0.616 -1.1915  2.0158 -0.8989
 6296TIP3    H240380   0.693   0.438   0.529  0.1915  0.3861 -0.2779
 6297TIP3   OH240381   3.908   3.877  17.005  0.0218 -0.1535 -0.0507
 6297TIP3    H140382   3.854   3.952  16.982 -1.1598 -0.8055  0.4849
 6297TIP3    H240383   3.869   3.804  16.957 -0.1372 -0.8026  1.0279
 6298TIP3   OH240384   0.746   0.937   2.976 -0.1259 -0.1071 -0.2985
 6298TIP3    H140385   0.742   1.007   3.042 -0.5192 -1.3974  1.1081
 6298TIP3    H240386   0.676   0.958   2.915  0.4418  1.2924 -0.5081
 6299TIP3   OH240387   0.289   4.265  16.505  0.3740  0.0233  0.4667
 6299TIP3    H140388   0.207   4.217  16.502 -1.1029  2.3860  0.0573
 6299TIP3    H240389   0.316   4.260  16.596  1.6849 -3.6078  0.0225
 6300TIP3   OH240390   3.900   5.098  12.038 -0.2245  0.4014  0.5701
 6300TIP3    H140391   3.827   5.072  12.093  0.4841  1.4830  2.0846
 6300TIP3    H240392   3.861   5.119  11.953 -1.6422  0.8783  1.3257
 6301TIP3   OH240393   6.221   3.895   1.336 -0.3225  0.0612  0.0261
 6301TIP3    H140394   6.191   3.955   1.268  1.0318  1.9528  1.0315
 6301TIP3    H240395   6.163   3.912   1.410 -0.6006 -0.6531 -0.0207
 6302TIP3   OH240396   3.983   0.103  13.029  0.6368  0.0563 -0.0950
 6302TIP3    H140397   4.037   0.029  13.058 -1.7249 -1.4904  0.7025
 6302TIP3    H240398   3.937   0.069  12.952 -1.5101  0.1024  1.0766
 6303TIP3   OH240399   0.122   2.907   1.230 -0.9309 -0.0779 -0.0989
 6303TIP3    H140400   0.180   2.838   1.196 -1.0855 -0.6881  0.8382
 6303TIP3    H240401   0.160   2.988   1.198  0.5416 -0.4545  0.6390
 6304TIP3   OH240402   4.817   4.179  10.482  0.0267 -0.0971 -0.4346
 6304TIP3    H140403   4.854   4.243  10.420  0.6632 -1.1211 -1.1503
 6304TIP3    H240404   4.722   4.188  10.471  0.1156  0.3813 -0.8808
 6305TIP3   OH240405   0.761   3.535  12.850  0.7834 -0.0234  0.4223
 6305TIP3    H140406   0.784   3.558  12.940  0.2814 -2.0966  1.1279
 6305TIP3    H240407   0.707   3.608  12.820  0.1076  0.2297  2.1560
 6306TIP3   OH240408   3.901   5.217   1.560 -0.6251 -0.7988 -0.0904
 6306TIP3    H140409   3.882   5.125   1.541  0.0011 -0.7507 -1.0799
 6306TIP3    H240410   3.939   5.250   1.478  1.2747 -0.2544  0.9462
 6307TIP3   OH240411   2.709   4.535   2.560  0.4487  0.5465 -0.1323
 6307TIP3    H140412   2.783   4.539   2.499  0.3216  0.1195 -0.3140
 6307TIP3    H240413   2.716   4.617   2.610 -0.1203  1.4901 -1.5119
 6308TIP3   OH240414   4.555   6.443  15.372 -0.2925  0.2857 -0.2174
 6308TIP3    H140415   4.609   6.520  15.387  1.7854 -0.8092 -1.5351
 6308TIP3    H240416   4.609   6.370  15.404 -1.3714 -0.8035 -0.7906
 6309TIP3   OH240417   5.186   0.373  12.260  0.0796 -0.3491  0.2305
 6309TIP3    H140418   5.207   0.291  12.216  0.7702 -0.3967  0.6457
 6309TIP3    H240419   5.269   0.403  12.297  0.3005  1.5537 -1.5953
 6310TIP3   OH240420   4.356   5.139  16.582 -0.1377 -0.4008  0.1370
 6310TIP3    H140421   4.323   5.196  16.512 -0.6182 -0.4267  0.3429
 6310TIP3    H240422   4.440   5.107  16.548 -0.7061 -1.0081 -0.7552
 6311TIP3   OH240423   5.007   0.868  16.431 -0.2070  0.0735 -0.1401
 6311TIP3    H140424   5.072   0.805  16.462  0.2400 -0.1554 -1.4854
 6311TIP3    H240425   4.923   0.824  16.448 -0.0153  0.1123  1.0333
 6312TIP3   OH240426   3.722   2.771   0.453 -0.1156  0.8192 -0.2321
 6312TIP3    H140427   3.718   2.718   0.533 -1.3814 -3.1122 -2.5937
 6312TIP3    H240428   3.804   2.819   0.459  1.1845 -1.4656  2.1988
 6313TIP3   OH240429   2.432   2.792  12.586  0.2109  0.7289 -0.0353
 6313TIP3    H140430   2.509   2.736  12.585 -0.1994  0.1559 -0.0505
 6313TIP3    H240431   2.374   2.754  12.520  0.1112  1.4354 -0.3677
 6314TIP3   OH240432   2.016   4.667   5.570  0.1536 -0.3322  0.0335
 6314TIP3    H140433   2.031   4.573   5.555 -2.3429 -0.7467 -0.1882
 6314TIP3    H240434   2.104   4.705   5.571  1.2458 -2.6878  0.2737
 6315TIP3   OH240435   2.199   6.435  13.101  0.1496  0.6155  0.3400
 6315TIP3    H140436   2.163   6.507  13.152 -0.7361 -1.3415  2.6590
 6315TIP3    H240437   2.122   6.385  13.073  0.7674 -1.6821  2.3884
 6316TIP3   OH240438   4.281   3.674   1.947  0.0366 -0.4980 -0.1216
 6316TIP3    H140439   4.269   3.749   2.004 -1.2888 -1.1898  0.5502
 6316TIP3    H240440   4.376   3.658   1.949  0.2961  0.9383 -0.0307
 6317TIP3   OH240441   2.306   1.354   2.731 -0.1388  0.3437  0.2615
 6317TIP3    H140442   2.273   1.344   2.820 -2.2280  1.1720 -0.3501
 6317TIP3    H240443   2.233   1.327   2.675  1.2381 -0.4935 -1.2354
 6318TIP3   OH240444   1.080   0.246  13.863 -0.0220  0.0241 -0.2927
 6318TIP3    H140445   1.013   0.209  13.921  1.1793  0.7674  1.6323
 6318TIP3    H240446   1.143   0.175  13.851 -0.0086  0.0329 -0.2745
 6319TIP3   OH240447   5.737   4.836   1.435  0.7563  0.1904  0.1337
 6319TIP3    H140448   5.761   4.746   1.413  0.1518  0.1384 -0.3649
 6319TIP3    H240449   5.807   4.867   1.491  0.9348 -0.6169  0.3680
 6320TIP3   OH240450   4.733   3.313   2.202  0.1255  0.6209  0.5154
 6320TIP3    H140451   4.789   3.299   2.278 -0.5861  3.1092  1.6022
 6320TIP3    H240452   4.756   3.242   2.142  2.6794  0.1513  1.8933
 6321TIP3   OH240453   4.171   4.279  15.121  0.5087  0.0368 -0.0054
 6321TIP3    H140454   4.141   4.340  15.054 -1.1307 -0.3360  0.3381
 6321TIP3    H240455   4.151   4.193  15.086  1.7615 -0.2831  0.0038
 6322TIP3   OH240456   3.777   5.551   5.428  0.0541 -0.2067  0.2339
 6322TIP3    H140457   3.793   5.642   5.402  2.3339 -0.4771  0.4370
 6322TIP3    H240458   3.732   5.512   5.354  0.8219  0.6164 -0.6981
 6323TIP3   OH240459   3.252   6.673   0.883  0.0166  0.8118 -0.1287
 6323TIP3    H140460   3.287   6.749   0.929  0.2289  0.6201  0.0303
 6323TIP3    H240461   3.286   6.682   0.794 -1.5730  1.9561 -0.6603
 6324TIP3   OH240462   0.666   1.003   0.621  0.6306 -0.5287  0.2036
 6324TIP3    H140463   0.611   0.982   0.545 -0.5344  0.8800  0.6147
 6324TIP3    H240464   0.756   1.000   0.588  0.2350 -1.3819 -0.8545
 6325TIP3   OH240465   2.072   4.076  11.272 -0.1994  0.2078 -0.5845
 6325TIP3    H140466   2.000   4.122  11.229  0.0378  0.8453 -0.3060
 6325TIP3    H240467   2.029   4.013  11.330 -0.5320  0.5044 -0.5075
 6326TIP3   OH240468   3.249   2.984   2.810 -0.4868 -0.2480 -0.5420
 6326TIP3    H140469   3.288   3.070   2.799  0.5400 -0.6197  0.0651
 6326TIP3    H240470   3.321   2.929   2.841 -1.4333 -1.0157  0.3588
 6327TIP3   OH240471   4.280   6.529  15.719 -0.5121 -0.1039 -0.1523
 6327TIP3    H140472   4.365   6.564  15.743 -0.6008  1.9440 -2.4680
 6327TIP3    H240473   4.227   6.539  15.798  0.4522  1.9122  0.3051
 6328TIP3   OH240474   0.118   4.301  16.270  0.0925 -0.1286  0.0281
 6328TIP3    H140475   0.194   4.360  16.267  0.5865 -0.7790 -0.7693
 6328TIP3    H240476   0.049   4.353  16.312  0.5520  0.9676 -0.5107
 6329TIP3   OH240477   0.405   2.850   3.685 -0.8320 -0.3302  0.4625
 6329TIP3    H140478   0.387   2.760   3.712 -0.5833 -0.6299 -0.3433
 6329TIP3    H240479   0.352   2.904   3.744  0.6364 -0.8839  2.3546
 6330TIP3   OH240480   4.781   0.353  13.803 -0.0460  0.4869  0.0687
 6330TIP3    H140481   4.837   0.402  13.864 -0.6404  0.5890  0.5511
 6330TIP3    H240482   4.776   0.409  13.726  0.7807  0.3216 -0.1116
 6331TIP3   OH240483   5.195   3.410  11.955  0.0368 -0.4364  0.5405
 6331TIP3    H140484   5.169   3.499  11.976 -0.9073 -0.6199  0.2185
 6331TIP3    H240485   5.194   3.407  11.859 -2.3653 -1.4376  0.5374
 6332TIP3   OH240486   1.705   1.614   5.719 -0.3156  0.7145 -0.0629
 6332TIP3    H140487   1.648   1.672   5.668 -0.2822 -1.8267 -3.3908
 6332TIP3    H240488   1.793   1.632   5.685 -0.1975 -0.6034 -0.5081
 6333TIP3   OH240489   2.780   0.345   0.955  0.2215 -0.7826 -0.3151
 6333TIP3    H140490   2.731   0.287   1.013 -0.2355  0.3737  0.4820
 6333TIP3    H240491   2.728   0.425   0.950  1.5874  0.1439 -0.1558
 6334TIP3   OH240492   6.419   1.069   4.247 -0.0987 -0.4926 -0.2671
 6334TIP3    H140493   6.375   0.985   4.231 -0.3822 -0.4469  0.2795
 6334TIP3    H240494   6.350   1.127   4.277 -0.1283  0.2746 -1.7418
 6335TIP3   OH240495   5.413   3.491  10.463 -0.0642 -0.0577 -0.5293
 6335TIP3    H140496   5.506   3.504  10.478 -0.4583  3.1565 -0.0724
 6335TIP3    H240497   5.370   3.534  10.537 -1.9135  0.4036 -1.7784
 6336TIP3   OH240498   5.818   4.525  17.078 -0.1264  0.1291 -0.1757
 6336TIP3    H140499   5.876   4.470  17.131 -2.2065 -0.9298  1.1347
 6336TIP3    H240500   5.858   4.524  16.990  1.7489 -0.5914  0.6274
 6337TIP3   OH240501   5.977   3.733  11.765  0.6430  0.2599  0.6018
 6337TIP3    H140502   5.887   3.704  11.754  0.8065  0.6734 -2.5807
 6337TIP3    H240503   6.027   3.652  11.772  0.3387 -0.1064 -1.0573
 6338TIP3   OH240504   6.790   1.333  15.192 -0.3979 -0.2819  0.2683
 6338TIP3    H140505   6.725   1.397  15.222 -1.1003 -0.7182 -0.2737
 6338TIP3    H240506   6.859   1.336  15.257 -0.7256  0.5626  0.5953
 6339TIP3   OH240507   5.060   2.341  15.234 -0.2342 -0.0467  0.0850
 6339TIP3    H140508   4.990   2.380  15.182  0.9372  0.0500 -1.4876
 6339TIP3    H240509   5.017   2.312  15.315 -2.2563 -0.8188 -1.2004
 6340TIP3   OH240510   0.804   3.231  16.516  0.1573  0.3932 -0.5027
 6340TIP3    H140511   0.806   3.195  16.428  0.3016 -1.5628  0.2555
 6340TIP3    H240512   0.894   3.261  16.532  0.4063 -0.2952 -0.6059
 6341TIP3   OH240513   2.158   4.961   1.241 -0.4160  0.1111  0.5576
 6341TIP3    H140514   2.211   4.898   1.290 -0.5255 -1.2788 -1.0237
 6341TIP3    H240515   2.070   4.953   1.278 -0.5191 -0.9951  0.1221
 6342TIP3   OH240516   5.943   0.276   6.054  0.0979  0.2849 -0.0811
 6342TIP3    H140517   5.886   0.202   6.076  0.7131 -0.4920 -1.0124
 6342TIP3    H240518   6.027   0.253   6.093  0.6885 -0.2276 -1.5859
 6343TIP3   OH240519   3.689   4.661  15.634  0.2352  0.1413  0.2435
 6343TIP3    H140520   3.651   4.701  15.713  0.1198  0.5807 -0.0333
 6343TIP3    H240521   3.689   4.567  15.653 -2.2772 -0.0384 -0.2980
 6344TIP3   OH240522   0.751   3.276   2.742  0.0887  0.3796  0.4433
 6344TIP3    H140523   0.814   3.204   2.736  0.5340  0.7269  0.8172
 6344TIP3    H240524   0.757   3.320   2.657  1.4496  1.2866  0.9605
 6345TIP3   OH240525   4.510   5.020   2.586 -0.1205 -0.1860  0.0128
 6345TIP3    H140526   4.468   4.937   2.566  0.9477 -0.8394  0.3458
 6345TIP3    H240527   4.461   5.086   2.537 -0.7620 -1.0591 -0.5297
 6346TIP3   OH240528   6.314   0.950  15.670  0.3704 -0.6476 -0.3361
 6346TIP3    H140529   6.307   0.855  15.660  2.0637 -0.7422 -0.9822
 6346TIP3    H240530   6.408   0.967  15.674  0.1040  1.0218 -0.2999
 6347TIP3   OH240531   3.277   1.203  12.287  0.5693 -0.0217  0.2165
 6347TIP3    H140532   3.204   1.244  12.241  0.6073 -0.9449 -0.7060
 6347TIP3    H240533   3.269   1.110  12.267  1.5226 -0.2434  0.7894
 6348TIP3   OH240534   2.285   0.780  14.289 -0.4320 -0.4770  0.6164
 6348TIP3    H140535   2.210   0.838  14.307  0.9877  0.9354  2.3499
 6348TIP3    H240536   2.246   0.695  14.273 -2.5154  0.5655 -0.2623
 6349TIP3   OH240537   1.114   4.256  13.416 -0.3273  0.0111  0.2733
 6349TIP3    H140538   1.197   4.215  13.391 -0.0336  1.9096 -2.1267
 6349TIP3    H240539   1.139   4.337  13.459 -0.8326  1.8022 -2.6005
 6350TIP3   OH240540   2.766   4.862   1.752  0.2056 -0.2239  0.0036
 6350TIP3    H140541   2.808   4.823   1.675  2.0372  0.3852  0.6324
 6350TIP3    H240542   2.695   4.802   1.775 -0.0077 -0.7112 -1.7976
 6351TIP3   OH240543   6.737   3.861  12.047  0.7887  0.2008 -0.3895
 6351TIP3    H140544   6.705   3.786  12.096 -0.0556  1.3753  0.9482
 6351TIP3    H240545   6.802   3.825  11.986  0.9566 -1.4856  0.7307
 6352TIP3   OH240546   4.995   6.107  12.906  0.1403  0.0727  0.2561
 6352TIP3    H140547   4.953   6.183  12.948 -0.3589 -1.2762  2.3793
 6352TIP3    H240548   4.939   6.033  12.930  0.5276 -1.0024 -1.8796
 6353TIP3   OH240549   5.416   2.413   3.298 -0.0021  0.2120 -1.1737
 6353TIP3    H140550   5.395   2.474   3.368  0.4378 -0.8994 -0.0412
 6353TIP3    H240551   5.506   2.436   3.272  0.4283 -0.3869 -0.2587
 6354TIP3   OH240552   3.796   5.382  15.572  0.0431  0.1251 -0.4439
 6354TIP3    H140553   3.757   5.300  15.601  0.1145  0.1260 -0.3451
 6354TIP3    H240554   3.761   5.395  15.484  0.2823 -0.1809 -0.5878
 6355TIP3   OH240555   2.836   6.619   2.426  0.6494 -0.3615 -0.0373
 6355TIP3    H140556   2.785   6.544   2.396 -0.0473 -0.3130  0.9774
 6355TIP3    H240557   2.788   6.695   2.395 -0.9268 -0.2678  2.3677
 6356TIP3   OH240558   1.213   0.884  11.145 -0.1920  0.1354 -0.2427
 6356TIP3    H140559   1.260   0.861  11.065 -0.2020 -1.0321  0.0821
 6356TIP3    H240560   1.249   0.969  11.170  0.9897 -0.2471 -0.5808
 6357TIP3   OH240561   4.175   5.808   3.862 -0.1952 -0.0709 -0.0264
 6357TIP3    H140562   4.250   5.814   3.802 -1.0582 -1.5241 -1.3321
 6357TIP3    H240563   4.203   5.856   3.940  1.7191  0.2385 -0.8379
 6358TIP3   OH240564   6.807   4.780  11.384 -0.1431  0.8037 -0.3075
 6358TIP3    H140565   6.862   4.817  11.453  0.0439  0.7075 -0.4045
 6358TIP3    H240566   6.776   4.856  11.335  0.1457  0.8395 -0.4361
 6359TIP3   OH240567   3.212   3.075   0.584 -0.1762 -0.0860 -0.3581
 6359TIP3    H140568   3.132   3.119   0.612  0.7669  1.2231  0.4143
 6359TIP3    H240569   3.249   3.038   0.664 -0.2301 -1.0683 -0.7808
 6360TIP3   OH240570   4.028   1.416   2.966  0.5304 -0.4732 -0.2781
 6360TIP3    H140571   3.974   1.433   3.044  2.5231 -0.5362  1.1980
 6360TIP3    H240572   3.983   1.462   2.895 -1.5656 -0.7209  0.7989
 6361TIP3   OH240573   6.369   2.107  16.861  0.3679  0.0254 -0.1709
 6361TIP3    H140574   6.411   2.183  16.822  3.7169 -0.6700  1.6805
 6361TIP3    H240575   6.340   2.136  16.947  2.3127 -0.8360  0.8435
 6362TIP3   OH240576   0.149   1.699  15.593  0.3602 -0.6222  0.0064
 6362TIP3    H140577   0.113   1.788  15.589 -3.1134 -1.6741  2.5663
 6362TIP3    H240578   0.134   1.662  15.507  1.1897  0.9750 -0.8693
 6363TIP3   OH240579   6.289   3.480   4.794  0.2486  0.6618 -0.0374
 6363TIP3    H140580   6.236   3.479   4.714  0.6519 -2.4284 -0.3899
 6363TIP3    H240581   6.368   3.528   4.770  0.5776 -0.6242 -1.7234
 6364TIP3   OH240582   1.991   6.055   3.616 -0.0077 -0.1481 -0.3782
 6364TIP3    H140583   2.074   6.087   3.582 -0.0476  0.0691 -0.2772
 6364TIP3    H240584   1.997   6.066   3.711 -0.5502  0.8646 -0.4455
 6365TIP3   OH240585   1.889   5.724  13.131  0.2100  0.0222 -0.3434
 6365TIP3    H140586   1.798   5.707  13.157  0.0801  0.5292 -0.4515
 6365TIP3    H240587   1.939   5.654  13.173 -0.2202 -0.2112 -0.2104
 6366TIP3   OH240588   1.279   1.036  13.967  0.3127  0.9292  0.0675
 6366TIP3    H140589   1.350   1.099  13.977  1.6885 -0.4354 -0.5540
 6366TIP3    H240590   1.323   0.955  13.940 -1.4521 -0.0840  0.0635
 6367TIP3   OH240591   4.425   4.989   0.132  0.0344 -0.3900 -0.4841
 6367TIP3    H140592   4.490   4.976   0.062  1.4238  0.0209  0.6865
 6367TIP3    H240593   4.429   5.083   0.150  0.0973 -0.5873  0.5379
 6368TIP3   OH240594   2.516   1.850  14.502 -0.2343  1.0596  0.0240
 6368TIP3    H140595   2.433   1.805  14.514 -0.0052  0.5290 -0.3786
 6368TIP3    H240596   2.517   1.876  14.410 -0.0941  1.3509  0.1053
 6369TIP3   OH240597   2.335   5.913   3.568  0.0867 -0.3143  0.0985
 6369TIP3    H140598   2.346   5.839   3.509  0.5782 -0.4536  0.3656
 6369TIP3    H240599   2.255   5.892   3.617  0.8369 -1.2308  0.9802
 6370TIP3   OH240600   5.502   1.849   6.620 -0.6095  0.2322 -0.1812
 6370TIP3    H140601   5.515   1.773   6.677  0.3951 -0.5091 -1.3341
 6370TIP3    H240602   5.417   1.834   6.579 -1.9120  1.3678  1.9177
 6371TIP3   OH240603   3.973   1.204   1.142 -0.4344  0.6716  0.1068
 6371TIP3    H140604   3.897   1.147   1.134 -0.5478  0.7355  0.6657
 6371TIP3    H240605   4.024   1.189   1.062 -1.0973  0.7315 -0.3316
 6372TIP3   OH240606   4.730   0.960   1.477  0.0025  0.3119  0.1779
 6372TIP3    H140607   4.826   0.958   1.475  0.0343  0.7720 -2.1428
 6372TIP3    H240608   4.707   1.046   1.441 -1.3075  0.6170  1.6440
 6373TIP3   OH240609   5.478   1.274  15.355  0.2325 -0.9718 -0.1667
 6373TIP3    H140610   5.394   1.314  15.379  0.4230  0.7385 -2.0082
 6373TIP3    H240611   5.539   1.306  15.422  0.0265  0.5304 -0.6413
 6374TIP3   OH240612   2.860   4.205   1.283 -0.2716  0.2764 -0.0387
 6374TIP3    H140613   2.882   4.120   1.245  2.2261  0.8720 -0.1329
 6374TIP3    H240614   2.864   4.266   1.209 -4.1601  0.2825 -0.4115
 6375TIP3   OH240615   0.808   5.666   0.845 -0.2505  0.0845  0.0145
 6375TIP3    H140616   0.742   5.729   0.815 -0.7199 -0.7615 -0.7783
 6375TIP3    H240617   0.761   5.609   0.906  0.0383  0.1883  0.3310
 6376TIP3   OH240618   0.233   0.044   2.273 -0.2408  0.2511 -0.2849
 6376TIP3    H140619   0.146   0.006   2.267  0.2927 -1.6825  2.2686
 6376TIP3    H240620   0.292  -0.032   2.272  1.8680  1.5315 -5.2009
 6377TIP3   OH240621   3.575   4.215  14.967  0.2683 -0.6772 -0.2940
 6377TIP3    H140622   3.584   4.297  14.920  0.2428 -0.0070  0.8236
 6377TIP3    H240623   3.653   4.165  14.944  0.5449 -0.1233 -0.5753
 6378TIP3   OH240624   5.776   0.941   1.754  0.2593  0.0889  0.1989
 6378TIP3    H140625   5.832   0.946   1.832 -1.8166 -0.3393  1.8284
 6378TIP3    H240626   5.768   1.031   1.724  1.2093  0.2400  0.3814
 6379TIP3   OH240627   3.901   3.839  14.418  0.9044 -0.4400 -0.1842
 6379TIP3    H140628   3.952   3.812  14.342  1.0187  0.3570 -0.4002
 6379TIP3    H240629   3.817   3.867  14.383  1.8236  2.4183 -0.3929
 6380TIP3   OH240630   1.729   0.964   5.904  0.0888 -0.8329 -0.1265
 6380TIP3    H140631   1.802   1.026   5.910 -0.7003  0.3154 -1.6567
 6380TIP3    H240632   1.695   0.958   5.993 -1.7428  3.4460 -0.2912
 6381TIP3   OH240633   3.894   3.616   3.065  0.4499  0.3925  0.2131
 6381TIP3    H140634   3.806   3.653   3.063  0.4540  0.3508 -1.0771
 6381TIP3    H240635   3.885   3.529   3.027  0.9796  0.2196  0.4704
 6382TIP3   OH240636   3.565   5.418   5.149 -0.2084 -0.2408 -0.1129
 6382TIP3    H140637   3.551   5.386   5.060  0.3954  0.0214 -0.3055
 6382TIP3    H240638   3.623   5.352   5.188  0.6984  0.3853 -0.3775
 6383TIP3   OH240639   5.519   3.718   5.111  0.0187 -0.0620  0.0810
 6383TIP3    H140640   5.606   3.695   5.143 -0.0091 -0.9127 -0.4154
 6383TIP3    H240641   5.459   3.681   5.176 -0.0092 -0.8658 -0.3949
 6384TIP3   OH240642   2.685   3.654  13.827 -0.2110 -0.0431  0.4207
 6384TIP3    H140643   2.596   3.633  13.857 -0.2888  0.0166  0.2292
 6384TIP3    H240644   2.738   3.579  13.856 -0.2131  0.1917  1.0535
 6385TIP3   OH240645   0.701   3.192  13.505 -0.0110 -0.7088  0.4942
 6385TIP3    H140646   0.743   3.277  13.518  1.2742 -1.6115  2.9187
 6385TIP3    H240647   0.613   3.203  13.542 -0.5435  0.0587 -0.9386
 6386TIP3   OH240648   4.142   6.191  15.845  0.1879 -0.0783  0.0254
 6386TIP3    H140649   4.223   6.178  15.796  0.2692  0.1761  0.0896
 6386TIP3    H240650   4.075   6.205  15.778  0.1856 -0.3390 -0.0299
 6387TIP3   OH240651   2.312   5.825  13.721  0.5712  0.3035 -0.3703
 6387TIP3    H140652   2.218   5.813  13.737  0.8994 -1.7247  0.3699
 6387TIP3    H240653   2.327   5.785  13.636  0.5233  2.1321 -1.2776
 6388TIP3   OH240654   1.967   2.061   3.127  0.7866 -0.1901  0.1691
 6388TIP3    H140655   1.907   2.054   3.201 -1.8480  0.5974 -1.7202
 6388TIP3    H240656   1.990   1.970   3.106 -1.1842 -0.6774 -0.0724
 6389TIP3   OH240657   0.027   5.840   4.881  0.1635 -0.5974  0.3873
 6389TIP3    H140658   0.101   5.900   4.886 -1.1587  1.2233 -0.8530
 6389TIP3    H240659   0.021   5.817   4.788 -1.2630 -0.1286  0.3467
 6390TIP3   OH240660   5.361   3.664  11.445  0.3798  0.9254 -0.3005
 6390TIP3    H140661   5.274   3.679  11.482 -0.6235 -1.7225 -1.3509
 6390TIP3    H240662   5.348   3.667  11.351  1.3141  0.0533 -0.4753
 6391TIP3   OH240663   1.102   6.650  15.609  0.2732  0.4877 -0.0366
 6391TIP3    H140664   1.056   6.699  15.541  0.6142  0.5366 -0.2360
 6391TIP3    H240665   1.105   6.560  15.575  0.1198  0.4355  0.0849
 6392TIP3   OH240666   5.561   2.048   5.051 -0.6617 -0.0030  0.0192
 6392TIP3    H140667   5.598   2.006   4.973 -1.1617 -0.0067 -0.2243
 6392TIP3    H240668   5.588   2.140   5.045  2.8387 -0.7203  1.9941
 6393TIP3   OH240669   0.916   4.876  16.808 -0.6630 -0.2255 -0.3373
 6393TIP3    H140670   0.946   4.863  16.718 -0.5450 -0.1346 -0.3119
 6393TIP3    H240671   0.966   4.952  16.839 -0.4800 -0.4461 -0.0940
 6394TIP3   OH240672   0.116   3.171   2.076 -0.2480  0.2891 -0.1719
 6394TIP3    H140673   0.090   3.150   1.986 -0.4822  2.9192 -0.7816
 6394TIP3    H240674   0.212   3.162   2.076 -0.3695 -1.2363 -0.2188
 6395TIP3   OH240675   4.218   6.803  16.687  0.2353 -0.1337  0.1755
 6395TIP3    H140676   4.217   6.816  16.782 -0.8780 -0.4692  0.2211
 6395TIP3    H240677   4.210   6.709  16.675 -3.7279  0.0906 -0.2332
 6396TIP3   OH240678   2.369   3.919  14.889 -0.0891 -0.1918  0.6587
 6396TIP3    H140679   2.395   4.002  14.848  1.1334 -0.2013  1.3667
 6396TIP3    H240680   2.280   3.904  14.858 -0.3084  1.3560  0.4575
 6397TIP3   OH240681   5.650   1.827  11.780 -0.4795 -0.4173  0.3414
 6397TIP3    H140682   5.583   1.807  11.713  0.9077  0.1298 -1.2742
 6397TIP3    H240683   5.650   1.922  11.786 -0.0671 -0.4297  0.5539
 6398TIP3   OH240684   5.012   2.833   5.500 -0.2310 -0.1588  0.3297
 6398TIP3    H140685   5.078   2.765   5.503  0.9146  0.9088  0.1581
 6398TIP3    H240686   4.938   2.793   5.453  0.9858 -0.8045 -1.1139
 6399TIP3   OH240687   5.523   2.613  14.469  0.5303 -0.3380 -0.7850
 6399TIP3    H140688   5.520   2.553  14.395  1.0306  0.8238 -1.7739
 6399TIP3    H240689   5.613   2.606  14.501 -0.1345 -2.1707  0.8981
 6400TIP3   OH240690   4.083   0.728  12.656 -0.8112  0.4264 -1.0075
 6400TIP3    H140691   4.137   0.650  12.674 -0.1988  0.8489 -1.0011
 6400TIP3    H240692   4.077   0.772  12.741  0.8115  1.6216 -1.4702
 6401TIP3   OH240693   0.585   3.533  16.261  0.3332 -0.5934 -0.1364
 6401TIP3    H140694   0.655   3.469  16.248 -0.6684 -1.5912 -0.7754
 6401TIP3    H240695   0.603   3.572  16.347  1.1778 -1.4418  0.0820
 6402TIP3   OH240696   3.209   3.987   2.406  0.4403  0.7714 -0.6042
 6402TIP3    H140697   3.232   3.967   2.315 -1.0168 -0.7493 -0.6724
 6402TIP3    H240698   3.198   3.901   2.448  1.0604  1.4375  1.0222
 6403TIP3   OH240699   5.652   2.353   4.035  0.4530 -0.0456 -0.0049
 6403TIP3    H140700   5.642   2.329   3.943  1.0203 -1.8034  0.3430
 6403TIP3    H240701   5.657   2.269   4.081  0.8042  0.7906  1.5675
 6404TIP3   OH240702   3.811   4.012   3.694 -0.2419  0.2868  0.2894
 6404TIP3    H140703   3.874   4.053   3.753 -0.4422  2.4066 -0.8635
 6404TIP3    H240704   3.731   4.003   3.745  0.7962 -2.0502  1.6453
 6405TIP3   OH240705   0.707   3.642   6.578  0.9265  0.0355  0.8228
 6405TIP3    H140706   0.792   3.599   6.563  1.3169  0.8422  0.6865
 6405TIP3    H240707   0.647   3.570   6.596  1.4858 -0.6057  0.1900
 6406TIP3   OH240708   0.878   1.905   3.255 -0.3797  0.1779 -0.4452
 6406TIP3    H140709   0.786   1.910   3.281 -0.0449 -0.8728  1.0626
 6406TIP3    H240710   0.925   1.949   3.325  0.2361  1.3690 -1.5783
 6407TIP3   OH240711   4.917   6.788   2.351  0.5957  0.2741 -0.3775
 6407TIP3    H140712   4.870   6.793   2.268  0.4294  0.2774 -0.2819
 6407TIP3    H240713   5.007   6.764   2.326 -0.0986 -2.7101 -0.3573
 6408TIP3   OH240714   3.460   4.212  15.424  0.5584  0.1724  0.0698
 6408TIP3    H140715   3.468   4.306  15.409  0.1096  0.1809 -0.1184
 6408TIP3    H240716   3.505   4.172  15.349 -2.0282  0.2104 -1.6167
 6409TIP3   OH240717   4.112   1.680  16.851 -0.5331 -0.9182  0.0695
 6409TIP3    H140718   4.033   1.630  16.867 -0.4752 -0.5237  1.8703
 6409TIP3    H240719   4.183   1.616  16.857 -0.4615 -0.7392  2.3312
 6410TIP3   OH240720   1.720   5.303   2.976 -0.4038  0.4695 -0.6022
 6410TIP3    H140721   1.700   5.361   3.049 -1.4258  0.2816 -0.7056
 6410TIP3    H240722   1.670   5.223   2.995 -0.6577  0.4054 -1.4758
 6411TIP3   OH240723   4.449   4.899  16.214 -0.0059 -0.4040 -0.5637
 6411TIP3    H140724   4.492   4.938  16.138  1.2654  0.3909  0.5050
 6411TIP3    H240725   4.501   4.929  16.289 -0.8075 -1.6998  0.5736
 6412TIP3   OH240726   1.618   5.513  11.510 -0.1365 -0.1632  0.2843
 6412TIP3    H140727   1.529   5.508  11.544  0.4379 -0.7678  1.7940
 6412TIP3    H240728   1.673   5.483  11.583  1.3572  0.8506 -0.3867
 6413TIP3   OH240729   1.897   0.330  13.719 -0.4696  0.1922 -0.3193
 6413TIP3    H140730   1.940   0.401  13.767 -2.1302  0.5569  0.6787
 6413TIP3    H240731   1.809   0.363  13.700 -0.8492 -1.1264 -0.9687
 6414TIP3   OH240732   2.916   1.703  16.265 -0.2796 -0.2116 -0.0103
 6414TIP3    H140733   2.980   1.763  16.303 -0.0070 -0.4829 -0.0350
 6414TIP3    H240734   2.870   1.665  16.340 -2.2847  1.9578 -0.0311
 6415TIP3   OH240735   2.901   2.760   0.813 -0.7289 -0.1471 -0.6239
 6415TIP3    H140736   2.832   2.814   0.849 -1.0124 -1.0591  0.2553
 6415TIP3    H240737   2.898   2.679   0.865  0.3591 -0.5837 -1.2012
 6416TIP3   OH240738   0.573   5.285  12.442 -0.2760 -0.2976  0.5472
 6416TIP3    H140739   0.515   5.209  12.446  0.1082 -0.6468 -0.3133
 6416TIP3    H240740   0.514   5.360  12.440 -0.6620 -0.5721  1.2905
 6417TIP3   OH240741   5.176   0.491  14.972 -0.8715  0.0914 -0.5193
 6417TIP3    H140742   5.139   0.559  14.917 -2.1653  3.3497  3.8088
 6417TIP3    H240743   5.102   0.458  15.023  0.5632 -0.8228  1.0767
 6418TIP3   OH240744   4.395   0.316  14.807  0.2184  0.2167  0.0904
 6418TIP3    H140745   4.452   0.241  14.790  3.3097  1.4377  3.5656
 6418TIP3    H240746   4.382   0.314  14.902 -0.9900  3.0987  0.0741
 6419TIP3   OH240747   4.596   6.001  11.449  0.3644  0.1370 -0.5196
 6419TIP3    H140748   4.502   5.982  11.442 -0.1686  1.7327  1.4518
 6419TIP3    H240749   4.639   5.917  11.432 -1.4275 -0.7254 -1.0013
 6420TIP3   OH240750   1.277   4.877  14.410  0.0678  0.0943  0.0335
 6420TIP3    H140751   1.315   4.955  14.450  0.7054  0.2484 -0.8235
 6420TIP3    H240752   1.212   4.847  14.472 -0.2764  1.3862  0.3320
 6421TIP3   OH240753   5.969   2.139   1.447  0.2986  0.0583 -0.2122
 6421TIP3    H140754   5.946   2.232   1.444  1.5291  0.4579  1.1675
 6421TIP3    H240755   5.945   2.105   1.361 -0.1759  1.6541 -0.7389
 6422TIP3   OH240756   1.118   3.465   3.842  0.3855  0.5065 -0.9232
 6422TIP3    H140757   1.165   3.410   3.906  2.3957  0.7601 -2.0846
 6422TIP3    H240758   1.034   3.421   3.830  0.6092 -0.4449  0.6470
 6423TIP3   OH240759   4.119   5.456   6.429  0.0377 -0.0868  0.1985
 6423TIP3    H140760   4.062   5.463   6.506 -2.4766  1.8882 -1.6857
 6423TIP3    H240761   4.203   5.492   6.459 -0.9123  0.7676  2.0131
 6424TIP3   OH240762   6.370   0.926   5.522 -0.2518 -0.5072 -0.1866
 6424TIP3    H140763   6.377   0.902   5.614 -0.8101  0.4722  0.1194
 6424TIP3    H240764   6.276   0.925   5.504 -0.5286  3.3027  0.3773
 6425TIP3   OH240765   4.966   0.279  17.052 -0.3540  0.5397  0.5837
 6425TIP3    H140766   4.960   0.373  17.072 -0.4720  0.6135  0.2165
 6425TIP3    H240767   4.962   0.275  16.956 -0.7043  0.1357  0.6110
 6426TIP3   OH240768   6.598   1.284   0.738  0.1095 -0.1297 -0.3521
 6426TIP3    H140769   6.609   1.196   0.701  1.3202  0.3396 -1.1706
 6426TIP3    H240770   6.624   1.275   0.829  1.3635 -0.4055 -0.7132
 6427TIP3   OH240771   5.561   4.271  15.711  0.2242  0.1634  0.3480
 6427TIP3    H140772   5.644   4.317  15.700  1.1976 -1.3661  0.9742
 6427TIP3    H240773   5.504   4.335  15.755  1.5469  0.7504  1.2790
 6428TIP3   OH240774   5.532   2.472   1.502 -0.0359 -0.2200  0.5111
 6428TIP3    H140775   5.525   2.472   1.598 -0.0798 -0.2795  0.5077
 6428TIP3    H240776   5.447   2.442   1.471  0.0328 -0.3633  0.4580
 6429TIP3   OH240777   3.745   2.164  12.504  0.4627  0.4627 -0.1940
 6429TIP3    H140778   3.741   2.160  12.409  0.0975 -0.2195 -0.1565
 6429TIP3    H240779   3.677   2.226  12.528 -0.8306 -0.8511 -0.2914
 6430TIP3   OH240780   0.504   3.325  10.744  0.4185 -0.7836  0.8972
 6430TIP3    H140781   0.464   3.240  10.763 -0.2342 -0.1007  2.8293
 6430TIP3    H240782   0.430   3.386  10.745  1.1020  0.0546  1.2921
 6431TIP3   OH240783   6.474   5.986  13.722 -0.1464  0.0694 -0.0728
 6431TIP3    H140784   6.384   5.955  13.726 -0.1637  0.0150 -0.7417
 6431TIP3    H240785   6.512   5.938  13.647 -0.0601  1.3465 -0.8697
 6432TIP3   OH240786   6.112   2.173  16.585  0.5858 -0.5160 -0.1842
 6432TIP3    H140787   6.087   2.219  16.665 -0.6419 -0.2041 -0.7267
 6432TIP3    H240788   6.040   2.112  16.569 -0.3643  1.0227 -2.2764
 6433TIP3   OH240789   1.998   1.580   4.560  0.0260 -0.4775  0.1291
 6433TIP3    H140790   1.973   1.624   4.479 -0.1257 -0.4902  0.1689
 6433TIP3    H240791   1.937   1.507   4.568 -0.4636 -0.0252  0.6545
 6434TIP3   OH240792   4.169   0.064  15.208  0.0932 -0.0414  0.5549
 6434TIP3    H140793   4.102   0.008  15.167  1.0618 -0.3423 -0.6916
 6434TIP3    H240794   4.217   0.006  15.266  1.1891 -0.5886 -0.8445
 6435TIP3   OH240795   2.294   0.575   2.377 -0.4278 -0.0255 -0.1312
 6435TIP3    H140796   2.287   0.598   2.470 -0.2333 -0.0732 -0.1040
 6435TIP3    H240797   2.267   0.483   2.373  0.9638 -0.4598  0.0987
 6436TIP3   OH240798   4.296   1.710  13.882 -0.4445  0.1623  0.2511
 6436TIP3    H140799   4.361   1.644  13.859 -0.1052  0.2566  0.8953
 6436TIP3    H240800   4.218   1.660  13.904 -0.0502 -0.0727  1.1914
 6437TIP3   OH240801   5.656   4.398  14.980 -0.5231  0.3537 -0.0685
 6437TIP3    H140802   5.656   4.391  14.884 -2.7196 -0.3214 -0.0832
 6437TIP3    H240803   5.588   4.462  14.999 -1.8091 -1.2781  1.0726
 6438TIP3   OH240804   4.110   1.332   4.861 -0.7922  0.1490 -0.1501
 6438TIP3    H140805   4.068   1.315   4.945  0.6100 -1.1563  0.3512
 6438TIP3    H240806   4.137   1.245   4.831 -1.9773  0.4881 -2.3704
 6439TIP3   OH240807   0.762   2.155   0.963  0.3373 -0.0744  0.4443
 6439TIP3    H140808   0.854   2.157   0.939  0.0537  0.1714 -0.6949
 6439TIP3    H240809   0.728   2.240   0.935  0.0115  0.3287  1.9482
 6440TIP3   OH240810   1.755   2.760   0.174  0.1591 -0.0787 -0.2350
 6440TIP3    H140811   1.740   2.679   0.126 -0.6648 -0.5660  0.8084
 6440TIP3    H240812   1.833   2.798   0.134  0.8008 -1.5946 -0.4759
 6441TIP3   OH240813   4.475   1.925   1.351  0.1455 -0.4116 -0.0053
 6441TIP3    H140814   4.383   1.902   1.359 -0.3145 -0.0301 -3.0343
 6441TIP3    H240815   4.489   1.991   1.419 -1.6242 -0.9322  0.9195
 6442TIP3   OH240816   2.522   5.194   1.109 -0.5911  0.3164  0.0573
 6442TIP3    H140817   2.616   5.209   1.096 -0.5869 -0.1740 -0.5313
 6442TIP3    H240818   2.513   5.099   1.110 -0.7796  0.3069  2.4754
 6443TIP3   OH240819   2.140   1.884   0.533 -0.0357 -0.8473  0.9596
 6443TIP3    H140820   2.202   1.858   0.600 -0.3412 -1.9490  0.8324
 6443TIP3    H240821   2.057   1.843   0.559  0.0628 -2.1129 -0.5812
 6444TIP3   OH240822   1.437   5.442   2.849 -0.0575 -0.6416  0.2123
 6444TIP3    H140823   1.433   5.520   2.793 -0.6939 -0.6337  0.2596
 6444TIP3    H240824   1.503   5.387   2.808 -0.7625 -0.7917 -0.7607
 6445TIP3   OH240825   1.511   6.383  15.721  0.0202  0.5099  0.8561
 6445TIP3    H140826   1.442   6.325  15.753 -0.3072 -0.1034 -0.8476
 6445TIP3    H240827   1.591   6.351  15.764 -0.3351 -0.5160  0.7855
 6446TIP3   OH240828   0.239   5.813   5.300  0.2067  0.3052 -0.0271
 6446TIP3    H140829   0.287   5.739   5.337  0.1526  0.4977  0.4364
 6446TIP3    H240830   0.174   5.835   5.366 -0.6349 -0.0507 -0.7117
 6447TIP3   OH240831   4.111   6.257  14.260  0.4260  0.5728  0.1820
 6447TIP3    H140832   4.120   6.340  14.213 -0.0762  0.0055 -0.9321
 6447TIP3    H240833   4.188   6.254  14.317  1.8073  0.6300 -1.6008
 6448TIP3   OH240834   2.381   0.304   2.675  0.3886 -0.5032  0.2253
 6448TIP3    H140835   2.452   0.339   2.729 -0.6748  0.5288  0.9880
 6448TIP3    H240836   2.413   0.314   2.585  0.5385  1.5686  0.4616
 6449TIP3   OH240837   6.263   1.741  12.402  0.3648 -0.1100  0.6737
 6449TIP3    H140838   6.354   1.756  12.429  0.4515  0.0659  0.2922
 6449TIP3    H240839   6.218   1.716  12.482  0.7277 -0.0852  0.8870
 6450TIP3   OH240840   4.046   6.001   2.195  0.6988 -0.1615  0.0884
 6450TIP3    H140841   4.069   5.952   2.116  2.0945 -0.0452  0.3958
 6450TIP3    H240842   4.003   5.936   2.251 -0.2520 -0.2596 -0.7091
 6451TIP3   OH240843   5.094   0.484  11.531  0.1414  0.1402  0.4482
 6451TIP3    H140844   5.013   0.534  11.526 -0.7872 -1.2691  1.0862
 6451TIP3    H240845   5.080   0.422  11.602  2.6284  1.3537  2.1651
 6452TIP3   OH240846   3.097   1.362  15.863 -0.2274 -0.0162 -0.1936
 6452TIP3    H140847   3.023   1.397  15.913  0.4982 -0.0510  0.9409
 6452TIP3    H240848   3.086   1.397  15.775 -1.7776 -0.2868 -0.1342
 6453TIP3   OH240849   6.242   1.652  15.089  0.2731  0.1293 -0.2856
 6453TIP3    H140850   6.315   1.712  15.075 -0.3081  0.4799 -2.0758
 6453TIP3    H240851   6.190   1.694  15.158  0.4543  1.1473 -0.7426
 6454TIP3   OH240852   0.815   2.574  15.863 -0.3566  0.2295 -0.8418
 6454TIP3    H140853   0.847   2.550  15.951  0.2064  1.3634 -0.7175
 6454TIP3    H240854   0.894   2.574  15.809 -0.5428  0.5932 -1.1103
 6455TIP3   OH240855   0.084   3.598   3.725 -0.3183  0.3938  0.5199
 6455TIP3    H140856  -0.000   3.580   3.684  0.1086  0.3903 -0.3700
 6455TIP3    H240857   0.071   3.574   3.817 -1.5564  1.2475  0.5908
 6456TIP3   OH240858   0.676   2.467  12.886 -0.1959 -0.5578  0.1737
 6456TIP3    H140859   0.708   2.554  12.911 -0.1622 -0.4322 -0.2847
 6456TIP3    H240860   0.709   2.409  12.954 -4.4526  0.4318  3.5374
 6457TIP3   OH240861   3.431   1.024   2.856 -0.2079 -0.3019  0.0563
 6457TIP3    H140862   3.424   1.118   2.873 -0.7277 -0.2470 -0.4454
 6457TIP3    H240863   3.506   1.015   2.798 -0.3033 -0.1664 -0.0895
 6458TIP3   OH240864   2.849   4.168  16.411 -0.4780  0.4329  0.3926
 6458TIP3    H140865   2.924   4.219  16.441  0.1043  0.4532 -1.0317
 6458TIP3    H240866   2.774   4.206  16.457  0.2622  0.9793  1.1782
 6459TIP3   OH240867   3.409   3.521  11.670 -0.7772 -0.4083 -0.4120
 6459TIP3    H140868   3.341   3.587  11.679 -0.1576  0.4649 -1.8745
 6459TIP3    H240869   3.471   3.540  11.740 -0.9749  0.1052 -0.3761
 6460TIP3   OH240870   4.874   0.542  11.970  0.1274 -0.2165  0.4808
 6460TIP3    H140871   4.968   0.525  11.966  0.0032 -0.7039 -0.6522
 6460TIP3    H240872   4.835   0.457  11.989 -0.2302 -0.5190 -1.4232
 6461TIP3   OH240873   1.354   6.026  17.056  0.4606  0.1347  0.7106
 6461TIP3    H140874   1.262   6.040  17.034  1.3813 -0.1000 -4.7518
 6461TIP3    H240875   1.367   5.932  17.043  1.7832  0.4637 -0.5812
 6462TIP3   OH240876   0.232   4.251  12.182 -0.2063  0.7110  0.6595
 6462TIP3    H140877   0.200   4.168  12.218 -0.4787  0.6550  0.3003
 6462TIP3    H240878   0.205   4.317  12.245 -2.6556  0.8958 -0.4597
 6463TIP3   OH240879   2.533   0.909   4.946  0.0730  0.4953 -0.2883
 6463TIP3    H140880   2.561   0.823   4.975  0.4537  0.4948 -0.6545
 6463TIP3    H240881   2.511   0.955   5.027  0.7200  0.3518 -0.0220
 6464TIP3   OH240882   5.281   3.173  14.667  0.8487  0.7671 -0.0979
 6464TIP3    H140883   5.234   3.097  14.702  2.6150 -0.1972  0.3592
 6464TIP3    H240884   5.283   3.236  14.739 -0.2127  1.0758 -0.3201
 6465TIP3   OH240885   2.003   3.702   0.689  0.0562 -0.2637 -0.1602
 6465TIP3    H140886   2.015   3.762   0.615  1.1634 -1.0732 -0.6568
 6465TIP3    H240887   1.938   3.639   0.658 -0.3960  0.1134  0.0133
 6466TIP3   OH240888   4.581   0.602   5.945 -0.2607 -0.1362 -0.2470
 6466TIP3    H140889   4.591   0.608   5.850  0.5738  0.6137 -0.1160
 6466TIP3    H240890   4.544   0.686   5.970  2.7817  1.0926  0.4848
 6467TIP3   OH240891   1.603   3.456  15.178  0.3380 -0.5297  0.0888
 6467TIP3    H140892   1.575   3.377  15.132 -0.1772  0.2842 -1.0531
 6467TIP3    H240893   1.620   3.519  15.108 -2.3514  1.3917  1.0333
 6468TIP3   OH240894   1.244   0.582  11.735 -0.5008 -0.4951  0.1845
 6468TIP3    H140895   1.189   0.564  11.659 -0.0773  0.2395 -0.3142
 6468TIP3    H240896   1.327   0.539  11.716  1.1558  3.0790 -1.8403
 6469TIP3   OH240897   5.029   1.006   7.097 -0.2138 -0.0189 -0.0812
 6469TIP3    H140898   4.950   0.992   7.150 -0.0576 -1.8132 -0.2769
 6469TIP3    H240899   5.026   1.099   7.075 -2.0635  0.0460  0.2591
 6470TIP3   OH240900   4.088   1.190  15.176 -0.0694 -0.0939 -0.3327
 6470TIP3    H140901   4.007   1.235  15.202  1.2048  1.6012  0.8560
 6470TIP3    H240902   4.130   1.250  15.114 -0.3435 -1.5974 -2.0750
 6471TIP3   OH240903   2.562   4.235   0.428  0.4898 -0.2951 -0.7656
 6471TIP3    H140904   2.517   4.171   0.484 -0.5308  0.7750 -0.3293
 6471TIP3    H240905   2.524   4.319   0.453  1.5052  0.4390 -1.6366
 6472TIP3   OH240906   3.628   1.026   1.574  0.1403  0.6155  0.4350
 6472TIP3    H140907   3.584   0.974   1.641  0.0161  1.7818  1.2847
 6472TIP3    H240908   3.581   1.109   1.573  0.5594  0.8553 -0.6463
 6473TIP3   OH240909   0.622   3.892   3.400 -0.0007  0.0879  0.5148
 6473TIP3    H140910   0.607   3.943   3.479 -3.9018  1.4467 -0.8483
 6473TIP3    H240911   0.675   3.950   3.344 -0.8994  0.9530  0.5366
 6474TIP3   OH240912   2.408   5.075  10.984  0.4280 -0.0373  0.0131
 6474TIP3    H140913   2.413   5.134  10.908 -2.3189 -0.8110 -0.8675
 6474TIP3    H240914   2.381   5.131  11.056  1.7246  0.4467  0.1576
 6475TIP3   OH240915   6.449   1.749   0.793  0.2758  0.3331  0.4860
 6475TIP3    H140916   6.451   1.708   0.880  1.0829 -0.3282  0.1706
 6475TIP3    H240917   6.536   1.786   0.782  0.7265 -0.9696 -0.6659
 6476TIP3   OH240918   0.574   2.916   1.277  0.3238  0.3803  0.9468
 6476TIP3    H140919   0.572   2.978   1.350 -2.0773 -0.7755  1.9853
 6476TIP3    H240920   0.612   2.836   1.314  0.5910  0.2880  0.4808
 6477TIP3   OH240921   4.312   6.459   1.377 -0.2615  0.0883  0.1775
 6477TIP3    H140922   4.321   6.525   1.309 -0.7711  2.6005  2.3489
 6477TIP3    H240923   4.371   6.389   1.352 -1.4144  0.2399 -3.4489
 6478TIP3   OH240924   2.185   6.077   5.827  0.1607  0.0154  0.1404
 6478TIP3    H140925   2.175   6.076   5.922  1.6874 -0.8979  0.3424
 6478TIP3    H240926   2.146   5.994   5.798  1.0783 -0.4540  0.1858
 6479TIP3   OH240927   1.438   0.797   1.551 -0.1798  0.2248 -0.2270
 6479TIP3    H140928   1.385   0.826   1.625  1.3913  0.6835  0.7522
 6479TIP3    H240929   1.439   0.872   1.491  1.1641  1.0406  0.7819
 6480TIP3   OH240930   4.873   1.940   6.034 -0.1306  0.4917 -0.3600
 6480TIP3    H140931   4.866   1.895   6.118 -0.4648 -0.3712 -0.8391
 6480TIP3    H240932   4.904   1.873   5.973  1.3601  1.4149 -0.6841
 6481TIP3   OH240933   5.483   5.331  13.309 -0.6727  0.2548  0.2567
 6481TIP3    H140934   5.419   5.313  13.378 -0.6634 -2.0117 -0.2291
 6481TIP3    H240935   5.430   5.345  13.231 -0.6668 -1.9378 -0.2132
 6482TIP3   OH240936   3.890   6.079  15.481  0.0095  0.1116 -0.5380
 6482TIP3    H140937   3.946   6.041  15.413 -0.3331 -0.8829 -0.2862
 6482TIP3    H240938   3.815   6.020  15.485  0.6206 -0.5912  1.5796
 6483TIP3   OH240939   1.690   3.840   5.863 -0.6036 -0.0546 -0.2740
 6483TIP3    H140940   1.670   3.811   5.774 -1.1363 -0.7516  0.0657
 6483TIP3    H240941   1.768   3.790   5.888  0.3206  1.0782 -0.8046
 6484TIP3   OH240942   3.305   1.545   5.465  0.0467  0.4848 -0.1592
 6484TIP3    H140943   3.292   1.636   5.440 -2.0862  0.5008  0.8336
 6484TIP3    H240944   3.283   1.542   5.558 -0.1131 -1.0788 -0.2190
 6485TIP3   OH240945   3.703   3.387   4.389  0.2654  0.1195 -0.4324
 6485TIP3    H140946   3.764   3.337   4.443  1.9151  1.7383 -0.7018
 6485TIP3    H240947   3.666   3.452   4.448 -0.0399  0.1229 -0.6241
 6486TIP3   OH240948   0.359   4.923  10.770  0.4896  0.0938  0.1537
 6486TIP3    H140949   0.388   4.838  10.737 -0.9423 -0.4459  0.2037
 6486TIP3    H240950   0.437   4.979  10.766  1.0755 -0.7811 -1.3440
 6487TIP3   OH240951   6.176   0.706   1.104 -0.1419  0.0139 -0.0553
 6487TIP3    H140952   6.166   0.614   1.131  0.6292 -0.1512 -0.3061
 6487TIP3    H240953   6.245   0.740   1.161  0.6005  0.0177 -0.9336
 6488TIP3   OH240954   2.756   2.073   4.099 -0.0337 -0.5431 -0.2399
 6488TIP3    H140955   2.748   1.980   4.119 -0.4880 -0.4879 -0.1678
 6488TIP3    H240956   2.689   2.090   4.034 -2.5535  0.5138  2.4204
 6489TIP3   OH240957   1.778   2.095  12.062 -0.6367  0.8705 -0.0280
 6489TIP3    H140958   1.771   2.120  12.154 -2.1468  0.2486  0.0456
 6489TIP3    H240959   1.804   2.003  12.064  2.1258  1.5299 -0.2917
 6490TIP3   OH240960   3.204   0.962  13.479 -0.3851 -0.0585  0.0340
 6490TIP3    H140961   3.124   0.946  13.529 -0.7517  0.3178 -0.4183
 6490TIP3    H240962   3.192   1.051  13.444  0.7965  0.5088  1.0130
 6491TIP3   OH240963   1.597   1.337  16.885  0.0787  0.2135 -0.1947
 6491TIP3    H140964   1.596   1.360  16.978 -2.5001  1.0342 -0.3527
 6491TIP3    H240965   1.636   1.413  16.842  1.2007 -0.1340  0.1526
 6492TIP3   OH240966   1.513   0.942   4.608 -0.5095  0.1373 -0.0593
 6492TIP3    H140967   1.461   0.921   4.685  0.8026  0.7369  1.0199
 6492TIP3    H240968   1.493   0.871   4.546 -2.1302  0.0398  0.5340
 6493TIP3   OH240969   1.622   2.435  11.920 -0.2842  0.0893 -0.4374
 6493TIP3    H140970   1.626   2.469  11.831 -1.3816 -1.8408 -1.2941
 6493TIP3    H240971   1.706   2.391  11.933  0.7988  2.2655  0.3720
 6494TIP3   OH240972   5.065   5.624  12.497 -0.6031 -0.3397 -0.5596
 6494TIP3    H140973   5.155   5.606  12.525 -0.2209 -0.2436 -1.7005
 6494TIP3    H240974   5.013   5.613  12.577  0.7601  2.5661  0.9222
 6495TIP3   OH240975   4.147   5.319   2.725 -0.1932 -0.4832  0.2294
 6495TIP3    H140976   4.141   5.414   2.737 -2.4372 -0.2610 -1.9355
 6495TIP3    H240977   4.166   5.307   2.632 -1.5144 -2.1574  0.1318
 6496TIP3   OH240978   5.362   2.916   4.658 -0.6030  0.0197  0.1776
 6496TIP3    H140979   5.456   2.907   4.670 -0.5054  0.7794 -0.0070
 6496TIP3    H240980   5.337   2.838   4.607  0.2607  0.8032 -1.5108
 6497TIP3   OH240981   1.051   3.038   0.060  0.4762 -0.2153  0.4009
 6497TIP3    H140982   1.084   3.084  -0.017 -2.1404 -0.6417 -1.1188
 6497TIP3    H240983   1.016   2.955   0.026  0.2437 -0.9284  2.2208
 6498TIP3   OH240984   0.019   6.409   1.365 -0.4398  0.2133 -0.1173
 6498TIP3    H140985   0.076   6.404   1.289 -1.0393  0.1842 -0.5744
 6498TIP3    H240986   0.046   6.337   1.421  0.6244  0.7938  0.1377
 6499TIP3   OH240987   2.894   3.181  11.653  0.4622  0.0230 -0.3114
 6499TIP3    H140988   2.900   3.261  11.601  2.2233  1.5247  2.0263
 6499TIP3    H240989   2.983   3.165  11.685 -0.0962 -2.1490  0.3732
 6500TIP3   OH240990   5.736   1.301  11.289  0.1323 -0.6335  0.1783
 6500TIP3    H140991   5.755   1.222  11.239  1.6075  0.0211 -0.3391
 6500TIP3    H240992   5.822   1.341  11.305 -0.5575  0.7062  0.6862
 6501TIP3   OH240993   5.350   1.676  15.387 -0.2317 -0.1680  0.0613
 6501TIP3    H140994   5.442   1.701  15.377 -0.4831  0.6244 -0.2808
 6501TIP3    H240995   5.337   1.608  15.320 -0.3794  1.0480 -1.1849
 6502TIP3   OH240996   5.544   5.182  13.632 -0.4641 -0.7196 -0.8355
 6502TIP3    H140997   5.629   5.223  13.615 -1.2799  1.4880 -0.0585
 6502TIP3    H240998   5.480   5.249  13.606 -1.8984 -1.4164  0.6901
 6503TIP3   OH240999   2.208   4.023  13.719  0.2202 -0.2093 -0.2345
 6503TIP3    H141000   2.234   3.948  13.666 -0.0605 -1.1797  0.9827
 6503TIP3    H241001   2.291   4.066  13.741  0.5352 -1.2281  0.6140
 6504TIP3   OH241002   4.653   2.015   4.588 -0.0899 -0.5763 -0.4287
 6504TIP3    H141003   4.572   1.975   4.558 -1.4094  1.0636  0.7842
 6504TIP3    H241004   4.640   2.109   4.575  1.0362 -0.1655  1.1534
 6505TIP3   OH241005   5.937   3.931  16.268 -0.2142  0.1635  0.1730
 6505TIP3    H141006   5.983   4.010  16.239 -1.1221  0.8653  0.6050
 6505TIP3    H241007   5.860   3.964  16.314 -0.9500 -0.9963 -0.2101
 6506TIP3   OH241008   5.934   4.867  10.582  0.3610 -0.4322 -0.0652
 6506TIP3    H141009   5.976   4.830  10.660  2.4197  0.3613 -0.7143
 6506TIP3    H241010   6.006   4.908  10.534 -0.7994 -1.0055 -2.4676
 6507TIP3   OH241011   0.741   1.590  15.712  0.1051  0.0643 -0.3185
 6507TIP3    H141012   0.650   1.560  15.708 -0.6768  2.3331 -2.9772
 6507TIP3    H241013   0.786   1.526  15.767 -3.1392 -0.9542  1.3729
 6508TIP3   OH241014   6.205   3.751  11.411  0.5008  0.0269  0.3573
 6508TIP3    H141015   6.152   3.814  11.362 -1.1569 -0.4333  1.5005
 6508TIP3    H241016   6.205   3.673  11.356 -0.5702 -0.1759  0.6175
 6509TIP3   OH241017   3.055   6.628  12.513  0.3476 -0.0840 -0.1283
 6509TIP3    H141018   3.133   6.683  12.519  0.1737  0.3482 -1.3785
 6509TIP3    H241019   3.045   6.612  12.419  0.8988 -3.0191  0.2203
 6510TIP3   OH241020   6.126   4.403  16.355 -0.0044  0.2683  0.3574
 6510TIP3    H141021   6.125   4.489  16.314 -1.1699  0.6447  1.1291
 6510TIP3    H241022   6.164   4.417  16.441 -2.6395  0.6004  1.5755
 6511TIP3   OH241023   5.953   1.648   5.463  0.5588 -0.2112  0.5348
 6511TIP3    H141024   5.994   1.641   5.377 -0.4196 -1.5397  0.1496
 6511TIP3    H241025   6.023   1.626   5.525  1.0997  0.1317  0.0518
 6512TIP3   OH241026   1.429   1.394   1.947 -0.1998 -0.2487  0.0082
 6512TIP3    H141027   1.453   1.481   1.979 -1.2935  0.6675 -1.5469
 6512TIP3    H241028   1.405   1.346   2.027 -0.6725  1.2266  0.7985
 6513TIP3   OH241029   1.291   3.813  16.177  0.0463 -0.6612 -0.7272
 6513TIP3    H141030   1.362   3.876  16.191  0.4326 -1.4847  1.4746
 6513TIP3    H241031   1.213   3.857  16.211  0.0308 -0.8114 -0.5685
 6514TIP3   OH241032   2.031   3.339  17.082  0.1875 -0.2147  0.5875
 6514TIP3    H141033   1.970   3.372  17.148 -0.0888 -1.1591  0.8038
 6514TIP3    H241034   2.098   3.407  17.076 -0.6179  0.6101  0.7019
 6515TIP3   OH241035   4.386   4.287   2.418 -0.2855 -0.1710  0.4466
 6515TIP3    H141036   4.389   4.374   2.457  1.3242  0.5756 -1.1848
 6515TIP3    H241037   4.384   4.227   2.493 -0.2977  1.2243  1.6074
 6516TIP3   OH241038   2.580   1.185  11.872 -0.1399  0.0441  0.4710
 6516TIP3    H141039   2.659   1.183  11.817 -0.6664  0.4599 -0.3186
 6516TIP3    H241040   2.533   1.105  11.850 -0.0788 -0.0601  0.7239
 6517TIP3   OH241041   6.734   2.144   3.679  0.2114  0.8103  0.2772
 6517TIP3    H141042   6.796   2.072   3.668 -1.7213 -1.3967  2.4384
 6517TIP3    H241043   6.668   2.128   3.611  0.7285  1.7102 -0.4534
 6518TIP3   OH241044   1.455   3.363   4.933 -0.1421  0.3031 -0.0772
 6518TIP3    H141045   1.527   3.393   4.989  0.0355 -0.2169 -0.0164
 6518TIP3    H241046   1.480   3.392   4.845  0.2274 -0.0131 -0.0802
 6519TIP3   OH241047   0.582   3.962   5.296 -0.7674 -0.1890 -0.0098
 6519TIP3    H141048   0.545   4.019   5.229 -0.7308  1.3440  1.2069
 6519TIP3    H241049   0.649   4.015   5.339  0.0248 -1.5259  0.4912
 6520TIP3   OH241050   6.745   3.535   1.019 -0.1537 -0.2244 -0.1188
 6520TIP3    H141051   6.680   3.576   1.077 -2.2803  0.5167 -2.8151
 6520TIP3    H241052   6.719   3.443   1.016 -1.3577  0.1212 -1.4080
 6521TIP3   OH241053   0.673   6.508  12.060 -0.0195 -0.2401  0.0239
 6521TIP3    H141054   0.604   6.444  12.076  0.8265 -1.0209  0.6755
 6521TIP3    H241055   0.691   6.501  11.966 -0.4948 -0.3482 -0.0636
 6522TIP3   OH241056   4.778   3.555  15.513  0.2266 -0.1316  0.0474
 6522TIP3    H141057   4.857   3.601  15.485  0.5572 -0.8963 -0.3049
 6522TIP3    H241058   4.806   3.501  15.587  0.0720 -0.4959 -0.1538
 6523TIP3   OH241059   3.973   6.467  11.813  0.2926 -0.1552 -0.2976
 6523TIP3    H141060   3.949   6.533  11.749  0.2618 -1.5055 -1.7393
 6523TIP3    H241061   4.056   6.498  11.849  0.5012  0.4559 -1.2707
 6524TIP3   OH241062   3.645   0.181   2.440  0.3232  0.2757  1.0898
 6524TIP3    H141063   3.664   0.266   2.401 -1.8442  0.4267  0.2383
 6524TIP3    H241064   3.598   0.133   2.372  1.7386 -1.7722  1.4438
 6525TIP3   OH241065   5.677   0.901  11.521 -0.0504  0.5952 -0.6536
 6525TIP3    H141066   5.634   0.832  11.471  0.0991 -0.1072  0.1592
 6525TIP3    H241067   5.687   0.973  11.459  0.4394 -0.3601 -1.7208
 6526TIP3   OH241068   1.574   2.431  14.714  0.5896  0.2711  0.3806
 6526TIP3    H141069   1.516   2.458  14.642 -0.2256  0.1814  0.9879
 6526TIP3    H241070   1.628   2.508  14.730 -1.1741  1.3460  1.5606
 6527TIP3   OH241071   1.955   0.029   4.118 -0.1476 -0.3789 -0.0047
 6527TIP3    H141072   2.004  -0.010   4.191 -0.7604  0.2090  0.7319
 6527TIP3    H241073   1.982  -0.022   4.042  1.4845 -0.1768  0.3996
 6528TIP3   OH241074   2.816   6.675  16.485  0.0086 -0.2867 -0.4907
 6528TIP3    H141075   2.881   6.605  16.479 -0.5348 -0.7678 -0.8693
 6528TIP3    H241076   2.802   6.702  16.394  2.1658  2.1579 -0.2196
 6529TIP3   OH241077   5.371   2.397  11.613  0.5645  0.4417  0.5590
 6529TIP3    H141078   5.447   2.381  11.558  0.7634  0.5696  0.7907
 6529TIP3    H241079   5.393   2.355  11.697 -0.6239 -1.6104 -0.1085
 6530TIP3   OH241080   3.429   4.091  15.976  0.1020 -0.3553 -0.0085
 6530TIP3    H141081   3.450   4.091  16.069 -0.6217  3.3988  0.2968
 6530TIP3    H241082   3.514   4.097  15.932  0.3685 -0.6640  0.4613
 6531TIP3   OH241083   3.504   3.562   0.956  0.2012  0.1370  0.1248
 6531TIP3    H141084   3.499   3.471   0.926 -1.0036  0.4077 -0.5435
 6531TIP3    H241085   3.444   3.567   1.030 -1.3958  0.8543 -1.1516
 6532TIP3   OH241086   4.738   3.213  12.761  0.0682 -0.4549  0.3064
 6532TIP3    H141087   4.663   3.231  12.704 -0.1587 -0.8123  0.4907
 6532TIP3    H241088   4.804   3.276  12.734 -0.4366  0.1286  0.4004
 6533TIP3   OH241089   1.280   0.343  16.143  0.2413  0.0562 -0.6210
 6533TIP3    H141090   1.368   0.372  16.168 -0.0081  0.8000 -0.5982
 6533TIP3    H241091   1.273   0.255  16.180  0.1680  0.8058  1.2614
 6534TIP3   OH241092   0.351   6.243   1.720  0.1936  0.1674  0.1587
 6534TIP3    H141093   0.285   6.301   1.759 -0.2742 -1.5122  2.0601
 6534TIP3    H241094   0.388   6.195   1.795  1.5080 -1.0119 -1.1832
 6535TIP3   OH241095   3.618   0.148   5.417 -0.2167  0.1290  0.0039
 6535TIP3    H141096   3.669   0.214   5.464 -1.8493  1.2995  0.2257
 6535TIP3    H241097   3.528   0.182   5.419 -0.8529 -1.3902 -1.1725
 6536TIP3   OH241098   1.840   2.616   5.976  0.7178  0.2743  0.7461
 6536TIP3    H141099   1.882   2.530   5.975 -0.9933 -0.5928  0.5943
 6536TIP3    H241100   1.798   2.622   6.061 -1.8950 -0.4841 -0.3806
 6537TIP3   OH241101   2.898   5.822   2.622 -0.8003 -0.3593  0.7177
 6537TIP3    H141102   2.917   5.807   2.715 -2.1651  0.9258  1.2332
 6537TIP3    H241103   2.829   5.759   2.602 -0.8290 -0.3234  0.7031
 6538TIP3   OH241104   6.347   5.240   4.426  0.0741 -0.4344  0.3407
 6538TIP3    H141105   6.389   5.155   4.412  1.0507 -0.0872  1.0302
 6538TIP3    H241106   6.254   5.223   4.413  0.4162 -1.1806 -1.4917
 6539TIP3   OH241107   3.303   4.690   4.020 -0.4034  0.0329  0.5231
 6539TIP3    H141108   3.232   4.633   3.992 -0.7869  0.8738 -0.2802
 6539TIP3    H241109   3.284   4.775   3.979 -0.3397  1.0108  2.3894
 6540TIP3   OH241110   0.759   4.647  11.527 -0.4705  0.7725  0.2826
 6540TIP3    H141111   0.710   4.726  11.548  0.6623  1.5450  0.1166
 6540TIP3    H241112   0.757   4.595  11.608  0.1293  1.7190  0.9271
 6541TIP3   OH241113   4.004   2.043   3.095 -0.3226 -0.4615  0.2911
 6541TIP3    H141114   3.915   2.079   3.088 -0.0600  0.1376  0.0062
 6541TIP3    H241115   4.009   1.978   3.025 -0.2910  0.0253 -0.1623
 6542TIP3   OH241116   2.470   4.996   4.259 -0.2055 -0.3954  0.0871
 6542TIP3    H141117   2.416   5.073   4.238  0.0751  0.1918  1.3784
 6542TIP3    H241118   2.543   5.001   4.198  0.3983  1.0289  0.8687
 6543TIP3   OH241119   2.117   5.390  15.773  0.0028  0.1590  0.4372
 6543TIP3    H141120   2.022   5.386  15.770  0.0170  0.1014 -0.1218
 6543TIP3    H241121   2.146   5.321  15.712  0.3997  0.1051  0.6830
 6544TIP3   OH241122   5.524   6.180  15.513 -0.1871 -0.4160 -0.4357
 6544TIP3    H141123   5.439   6.199  15.552  0.2856  0.0929  0.3592
 6544TIP3    H241124   5.579   6.255  15.536  1.0955 -1.7203  0.9446
 6545TIP3   OH241125   3.881   6.309  14.843 -0.4275  0.0791  0.2252
 6545TIP3    H141126   3.947   6.367  14.881  0.1591 -0.3988 -0.0518
 6545TIP3    H241127   3.932   6.243  14.796 -1.1155  0.1077 -0.5769
 6546TIP3   OH241128   0.738   4.236  10.543 -0.6455 -0.0132  0.0975
 6546TIP3    H141129   0.778   4.224  10.630 -1.0552 -0.2543  0.2542
 6546TIP3    H241130   0.650   4.201  10.552  0.2278 -2.8828 -1.2383
 6547TIP3   OH241131   4.069   5.018   2.009  0.1117  0.1600 -0.6158
 6547TIP3    H141132   4.104   5.029   2.097  0.1335 -1.2159 -0.4392
 6547TIP3    H241133   3.991   5.073   2.007 -0.0003  0.0444  0.3301
 6548TIP3   OH241134   1.749   2.862   6.474 -0.4307  0.5268 -0.0281
 6548TIP3    H141135   1.787   2.774   6.468 -1.0951  0.2603 -0.5055
 6548TIP3    H241136   1.654   2.846   6.475 -0.5468  1.1527  1.3766
 6549TIP3   OH241137   1.574   6.288   2.894 -0.1505 -0.1372  0.1449
 6549TIP3    H141138   1.485   6.318   2.915 -0.0485  0.0377  0.3338
 6549TIP3    H241139   1.583   6.304   2.800 -0.9970 -1.9358 -0.2837
 6550TIP3   OH241140   5.883   4.207   0.717 -0.0658  0.3352 -0.4232
 6550TIP3    H141141   5.810   4.216   0.779 -0.2876 -1.2608 -0.4123
 6550TIP3    H241142   5.847   4.237   0.633 -0.4794  0.3071 -0.2594
 6551TIP3   OH241143   1.690   3.095   1.179  0.0991 -0.1508  0.2150
 6551TIP3    H141144   1.596   3.080   1.195  0.4482 -0.9098  1.7743
 6551TIP3    H241145   1.705   3.063   1.090 -1.7065  2.8893 -1.3721
 6552TIP3   OH241146   5.257   0.377   0.781 -0.3327 -0.7684 -0.1751
 6552TIP3    H141147   5.297   0.394   0.695  1.2706  0.1124  0.6952
 6552TIP3    H241148   5.262   0.460   0.827  1.6693 -1.8689  1.8461
 6553TIP3   OH241149   1.926   6.796   4.636  0.4685  0.1092  0.1319
 6553TIP3    H141150   1.960   6.885   4.629  1.6574 -0.4162 -1.0856
 6553TIP3    H241151   1.900   6.773   4.547 -1.4162 -0.1858  0.7134
 6554TIP3   OH241152   2.358   0.929   2.724 -0.8745 -0.5969  0.4725
 6554TIP3    H141153   2.359   1.009   2.777 -2.6042  0.8268 -1.4335
 6554TIP3    H241154   2.362   0.961   2.634 -1.3794 -2.6928 -0.3547
 6555TIP3   OH241155   6.487   0.616   2.006  0.1834 -0.0611  0.0780
 6555TIP3    H141156   6.520   0.528   2.020 -3.8197 -1.4736  2.0852
 6555TIP3    H241157   6.517   0.666   2.082 -1.8193 -1.2823  1.8021
 6556TIP3   OH241158   6.122   2.222  12.170  0.3716 -0.0237 -0.2842
 6556TIP3    H141159   6.056   2.158  12.197 -0.0914  0.6066  0.1236
 6556TIP3    H241160   6.200   2.198  12.220  0.6854 -1.2054 -1.2965
 6557TIP3   OH241161   3.983   0.590   1.957 -0.6012 -0.2013 -0.2080
 6557TIP3    H141162   4.003   0.657   2.022 -0.2692 -0.6969  0.2062
 6557TIP3    H241163   3.972   0.639   1.875 -0.6435  0.3843  0.1407
 6558TIP3   OH241164   0.207   2.994   3.838  0.0891  0.1122  0.2382
 6558TIP3    H141165   0.249   2.987   3.924  0.8112 -1.8532 -0.2254
 6558TIP3    H241166   0.122   2.950   3.849  1.2695 -2.6443 -0.6330
 6559TIP3   OH241167   6.634   1.151   2.166 -0.1955  0.0703 -0.3812
 6559TIP3    H141168   6.584   1.233   2.166 -0.1142  0.1193 -0.3128
 6559TIP3    H241169   6.568   1.083   2.151 -0.2371  0.1638 -0.6331
 6560TIP3   OH241170   0.119   0.171  11.034 -0.2628 -0.0058  0.1162
 6560TIP3    H141171   0.150   0.134  11.117 -1.3670  0.6741  0.8693
 6560TIP3    H241172   0.118   0.097  10.974  0.1692 -0.6066  0.8189
 6561TIP3   OH241173   4.973   4.747  15.715 -0.2081 -0.3738 -0.3036
 6561TIP3    H141174   4.974   4.670  15.658  1.3348 -1.7961  1.5050
 6561TIP3    H241175   4.936   4.715  15.797  0.5505  0.7795  0.5207
 6562TIP3   OH241176   5.410   6.315  11.866 -0.1796 -0.5831  0.4509
 6562TIP3    H141177   5.322   6.326  11.901 -0.4158 -0.6988 -0.1023
 6562TIP3    H241178   5.427   6.221  11.872 -1.6227 -1.2236 -2.9814
 6563TIP3   OH241179   2.602   5.426   4.669 -0.1137 -0.1785  0.1591
 6563TIP3    H141180   2.630   5.516   4.654 -2.5952  0.7612  0.5977
 6563TIP3    H241181   2.579   5.393   4.582 -1.0297  0.3103  0.2063
 6564TIP3   OH241182   4.678   3.185  13.837 -0.1248  0.1511 -0.0270
 6564TIP3    H141183   4.675   3.154  13.746 -0.4957 -0.3888  0.1668
 6564TIP3    H241184   4.725   3.116  13.884  1.7656  1.2833 -0.1304
 6565TIP3   OH241185   6.802   4.843  17.197  0.3637  0.1046  0.4486
 6565TIP3    H141186   6.869   4.781  17.169 -0.4272 -0.5346 -0.0816
 6565TIP3    H241187   6.768   4.806  17.279 -1.5188 -1.3479 -0.8645
 6566TIP3   OH241188   5.904   2.022   1.933 -0.5725 -0.1639 -0.2571
 6566TIP3    H141189   5.952   2.033   1.851  1.6731 -0.9428  0.8432
 6566TIP3    H241190   5.966   2.052   2.000 -1.2754 -2.0558  1.3187
 6567TIP3   OH241191   6.297   0.734  11.686 -0.0826 -0.7693 -0.5850
 6567TIP3    H141192   6.322   0.669  11.620  3.1595 -0.1498 -0.1266
 6567TIP3    H241193   6.270   0.811  11.634 -0.8402 -1.3814 -1.1283
 6568TIP3   OH241194   6.235   4.681   3.829  0.3424  0.4825  0.5381
 6568TIP3    H141195   6.271   4.631   3.755  0.9083  1.4088  0.1723
 6568TIP3    H241196   6.185   4.616   3.880 -2.0104  0.2577 -1.8563
 6569TIP3   OH241197   0.213   0.599   0.044  0.1032 -0.4323 -0.0309
 6569TIP3    H141198   0.283   0.614   0.108 -0.6215  0.4316  0.5997
 6569TIP3    H241199   0.179   0.687   0.025 -1.3753 -0.8813  0.3681
 6570TIP3   OH241200   5.187   2.434  12.960  0.5631 -0.0379 -0.0040
 6570TIP3    H141201   5.222   2.356  12.917 -1.3807 -1.3792  0.7010
 6570TIP3    H241202   5.181   2.499  12.890 -0.3365 -1.4150 -1.2782
 6571TIP3   OH241203   5.257   3.152  13.703  0.6640  0.2109 -0.3994
 6571TIP3    H141204   5.174   3.197  13.719  1.1877  1.6657 -1.5228
 6571TIP3    H241205   5.238   3.091  13.632  0.3171 -0.2164  0.0558
 6572TIP3   OH241206   3.274   2.185  15.673  0.2229  0.1938 -0.1542
 6572TIP3    H141207   3.241   2.144  15.754  1.1768 -0.0384  0.1296
 6572TIP3    H241208   3.196   2.200  15.620 -0.3498 -0.2225  0.5571
 6573TIP3   OH241209   6.306   2.073   5.543  0.1098  0.6927  0.2296
 6573TIP3    H141210   6.323   2.111   5.457  1.6153 -0.2902  0.0417
 6573TIP3    H241211   6.238   2.007   5.528  0.6488  0.2494 -0.2939
 6574TIP3   OH241212   1.892   0.998  16.017  0.4146 -0.4115 -0.3017
 6574TIP3    H141213   1.857   0.959  15.937  0.6699 -1.1152 -0.0803
 6574TIP3    H241214   1.817   1.007  16.075 -0.1194  1.7525 -1.2282
 6575TIP3   OH241215   2.169   3.826   0.038 -0.2092  0.4991 -0.0258
 6575TIP3    H141216   2.110   3.802  -0.034 -0.0294 -0.4874  0.1286
 6575TIP3    H241217   2.255   3.834  -0.003  0.0206 -0.7546  0.1657
 6576TIP3   OH241218   3.498   2.056  11.246  0.4723 -0.5374 -0.4611
 6576TIP3    H141219   3.542   2.108  11.313 -0.0366  0.3520 -0.8089
 6576TIP3    H241220   3.463   2.120  11.184  1.3281 -1.3568 -1.8503
 6577TIP3   OH241221   3.109   1.501  14.921  0.2299  0.2506  0.1978
 6577TIP3    H141222   3.191   1.453  14.924  0.1810  0.1632  0.1189
 6577TIP3    H241223   3.057   1.465  14.993  0.4033  0.5647  0.4896
 6578TIP3   OH241224   1.918   3.913   3.008  0.2610  0.0158  0.6881
 6578TIP3    H141225   1.906   4.007   3.014 -0.7207 -0.0491 -0.0006
 6578TIP3    H241226   1.960   3.889   3.091  0.1617  0.9979  1.0347
 6579TIP3   OH241227   4.809   5.837   0.174  0.0503 -0.7552 -0.1835
 6579TIP3    H141228   4.782   5.928   0.176 -1.4302 -1.0946 -1.8996
 6579TIP3    H241229   4.905   5.840   0.179 -0.0190  0.8085  0.7953
 6580TIP3   OH241230   6.255   2.775   2.664  0.0359 -0.0989 -0.5795
 6580TIP3    H141231   6.263   2.823   2.582  0.4702  0.7990 -0.0266
 6580TIP3    H241232   6.174   2.808   2.703  1.0161  1.2094  0.4316
 6581TIP3   OH241233   5.898   0.698   2.122 -0.7773 -0.2589  0.0073
 6581TIP3    H141234   5.956   0.646   2.066 -1.9110 -0.4979 -0.9733
 6581TIP3    H241235   5.954   0.724   2.195  0.9762  0.7404 -1.6019
 6582TIP3   OH241236   6.103   4.488   3.974 -0.5505  0.4646 -0.2130
 6582TIP3    H141237   6.017   4.446   3.972 -0.0902 -0.5336  0.0494
 6582TIP3    H241238   6.165   4.415   3.982  0.3851  1.0895 -1.4495
 6583TIP3   OH241239   3.129   3.444  14.766 -0.3504 -0.0782 -0.5384
 6583TIP3    H141240   3.161   3.505  14.700 -1.6406  1.3854  0.1217
 6583TIP3    H241241   3.140   3.358  14.726 -0.6670  0.7253 -2.4779
 6584TIP3   OH241242   3.444   1.918  14.267 -0.3086 -0.0681  0.1595
 6584TIP3    H141243   3.389   1.944  14.341  1.1715 -0.2992  1.3949
 6584TIP3    H241244   3.412   1.970  14.194 -0.0380  2.2864  1.6148
 6585TIP3   OH241245   6.782   0.928  11.930 -0.2709  0.1873 -0.4901
 6585TIP3    H141246   6.701   0.906  11.885 -1.1732  2.0419  0.1065
 6585TIP3    H241247   6.843   0.953  11.860  0.4380 -2.8560 -1.0865
 6586TIP3   OH241248   2.573   4.066  16.686  0.2028 -0.4602 -0.6740
 6586TIP3    H141249   2.663   4.040  16.705  0.3390 -0.7264 -1.6330
 6586TIP3    H241250   2.539   4.097  16.770  1.0935 -0.6277 -0.2361
 6587TIP3   OH241251   2.945   4.869  10.371  0.0682 -0.4894  0.4632
 6587TIP3    H141252   2.869   4.838  10.322 -1.3231  0.7494  1.7483
 6587TIP3    H241253   2.993   4.923  10.310 -1.2340  0.4181  0.2043
 6588TIP3   OH241254   4.679   5.371   3.279 -0.1115  0.4880  0.0199
 6588TIP3    H141255   4.659   5.414   3.196 -1.6837  0.2499  0.2423
 6588TIP3    H241256   4.761   5.325   3.263 -0.5857  0.0998 -1.5454
 6589TIP3   OH241257   2.357   1.431   1.647 -0.2544 -0.0392  0.7506
 6589TIP3    H141258   2.364   1.379   1.568 -0.5183 -0.7127  1.1624
 6589TIP3    H241259   2.436   1.411   1.697  0.9604  1.9797 -0.2586
 6590TIP3   OH241260   0.410   1.943  15.647  0.3018 -0.9791 -0.0123
 6590TIP3    H141261   0.330   1.934  15.699 -0.0062 -1.3176 -0.5366
 6590TIP3    H241262   0.480   1.955  15.712 -0.2766  0.1836  0.4258
 6591TIP3   OH241263   4.429   1.224  17.101  0.1373 -0.8637 -0.4462
 6591TIP3    H141264   4.483   1.279  17.043 -0.3372  0.3977  0.2662
 6591TIP3    H241265   4.362   1.188  17.043  2.0789 -3.0289 -1.4980
 6592TIP3   OH241266   4.043   6.755   3.972 -0.7797  0.1266  0.0653
 6592TIP3    H141267   3.990   6.789   4.044 -0.1248  0.1140  0.5655
 6592TIP3    H241268   4.049   6.827   3.910 -0.4682  0.5027  0.5207
 6593TIP3   OH241269   0.862   1.729   0.580  0.3511 -0.1332 -0.5244
 6593TIP3    H141270   0.829   1.713   0.492 -2.9049 -2.2075  0.8920
 6593TIP3    H241271   0.880   1.642   0.615 -0.1304  0.5033  1.4257
 6594TIP3   OH241272   5.571   2.388  11.820  0.6789 -0.4698  0.2724
 6594TIP3    H141273   5.635   2.459  11.806  0.3161 -0.1475  0.2307
 6594TIP3    H241274   5.495   2.432  11.858  0.3334 -0.7884 -0.0423
 6595TIP3   OH241275   2.144   1.590   2.697 -0.0109  0.2334 -0.3325
 6595TIP3    H141276   2.219   1.539   2.728 -1.9668 -1.8210  1.4340
 6595TIP3    H241277   2.079   1.524   2.673 -1.1035  1.9188 -2.3980
 6596TIP3   OH241278   4.385   3.050   5.999  0.2272 -0.4762 -0.3450
 6596TIP3    H141279   4.453   3.115   6.016 -0.4902  0.2800 -0.3087
 6596TIP3    H241280   4.423   2.993   5.932  0.4773  0.6105 -1.1560
 6597TIP3   OH241281   4.725   1.530   1.779  0.0440  0.5879 -0.3391
 6597TIP3    H141282   4.737   1.503   1.870  0.1222  1.6328 -0.0227
 6597TIP3    H241283   4.753   1.455   1.727 -0.4702 -0.2030  0.5048
 6598TIP3   OH241284   4.045   3.613  15.971 -0.0970 -0.3986  0.8019
 6598TIP3    H141285   4.001   3.529  15.960  0.7204 -0.7408  0.0169
 6598TIP3    H241286   4.017   3.665  15.896  0.3821 -0.4244  0.5990
 6599TIP3   OH241287   3.820   3.900   2.207  0.4761  0.4845  0.0216
 6599TIP3    H141288   3.911   3.920   2.228  0.7143 -0.7684  0.2362
 6599TIP3    H241289   3.799   3.825   2.262 -0.6159  0.5960 -0.2225
 6600TIP3   OH241290   5.869   0.494  15.580 -0.2712  0.3859 -0.0558
 6600TIP3    H141291   5.896   0.406  15.607 -4.5463 -0.5635  1.8980
 6600TIP3    H241292   5.848   0.485  15.487  1.9015  0.1555 -0.5807
 6601TIP3   OH241293   1.971   6.566  14.371 -0.0395 -0.4841 -0.2664
 6601TIP3    H141294   1.929   6.602  14.450  1.1278 -1.2679  0.7507
 6601TIP3    H241295   1.948   6.473  14.372 -0.3471 -0.4248 -1.0872
 6602TIP3   OH241296   0.197   4.543   5.348 -0.5272  0.1412  0.3946
 6602TIP3    H141297   0.282   4.578   5.323 -1.0829  1.1967 -0.0881
 6602TIP3    H241298   0.160   4.508   5.266 -1.2483  1.2247  0.2340
 6603TIP3   OH241299   2.343   0.525  15.747 -0.3805 -0.4683  0.6933
 6603TIP3    H141300   2.358   0.479  15.665  0.8555 -0.7389  1.0596
 6603TIP3    H241301   2.248   0.531  15.754 -0.5105 -1.0227 -0.4258
 6604TIP3   OH241302   4.053   1.408  13.535  0.3278 -0.0023  0.3742
 6604TIP3    H141303   4.004   1.470  13.588  0.7456  0.8414 -0.2045
 6604TIP3    H241304   4.007   1.407  13.450  0.2557 -0.5817  0.4108
 6605TIP3   OH241305   2.297   3.232   1.670 -0.0340  0.6368  0.4297
 6605TIP3    H141306   2.366   3.172   1.697 -0.9383 -0.6262  0.0250
 6605TIP3    H241307   2.256   3.261   1.752  1.2403  1.7701  0.7012
 6606TIP3   OH241308   3.510   4.788   1.037 -0.0944  0.0240  0.2562
 6606TIP3    H141309   3.468   4.818   1.118 -0.2250  0.6387 -0.0340
 6606TIP3    H241310   3.462   4.833   0.967  2.0990  2.1399 -0.0420
 6607TIP3   OH241311   3.489   5.666  14.183  0.9916 -0.7915  0.0477
 6607TIP3    H141312   3.437   5.710  14.115 -1.8877 -1.7781  1.4279
 6607TIP3    H241313   3.487   5.727  14.257  0.5674 -1.4181  0.5668
 6608TIP3   OH241314   3.889   5.655   2.207 -0.2971  0.2013 -0.1164
 6608TIP3    H141315   3.804   5.627   2.173 -1.1024  0.5204  1.5408
 6608TIP3    H241316   3.872   5.741   2.246  1.2804  1.2924 -1.6202
 6609TIP3   OH241317   2.335   0.364   1.668 -1.1267  0.1118 -0.4113
 6609TIP3    H141318   2.312   0.284   1.621  0.7810  0.0267 -1.2683
 6609TIP3    H241319   2.428   0.378   1.650 -0.2699  0.1992  3.1534
 6610TIP3   OH241320   6.141   5.441  12.917  0.2346 -0.3316 -0.2896
 6610TIP3    H141321   6.191   5.512  12.875  1.0307 -0.8008 -0.1615
 6610TIP3    H241322   6.109   5.479  12.999  1.7380 -0.4840  0.3958
 6611TIP3   OH241323   3.426   6.081  11.125 -0.2101  0.3783  0.0021
 6611TIP3    H141324   3.365   6.011  11.149 -0.7169  0.7143 -0.2991
 6611TIP3    H241325   3.396   6.157  11.174 -2.1784  1.4931 -2.7120
 6612TIP3   OH241326   5.811   5.902  13.453  0.1955  0.2754 -0.1269
 6612TIP3    H141327   5.832   5.986  13.494 -0.0995  1.1042 -1.6000
 6612TIP3    H241328   5.890   5.878  13.405  1.1884 -1.5892  2.2686
 6613TIP3   OH241329   3.202   6.693   0.350  0.1205 -0.1979 -0.0937
 6613TIP3    H141330   3.137   6.663   0.414 -1.4338  2.2422 -0.3859
 6613TIP3    H241331   3.241   6.612   0.316 -1.0536 -1.6639  1.8260
 6614TIP3   OH241332   1.426   0.376  10.845 -0.1466  0.0690  0.3629
 6614TIP3    H141333   1.478   0.446  10.884 -1.6593  0.4340  1.8070
 6614TIP3    H241334   1.399   0.410  10.760  1.2466  0.1792 -0.0716
 6615TIP3   OH241335   5.438   4.774  12.204  0.0088 -0.2983 -0.3564
 6615TIP3    H141336   5.492   4.695  12.208 -0.3164 -0.4700  1.2427
 6615TIP3    H241337   5.388   4.773  12.286 -0.5493  1.1744 -0.6522
 6616TIP3   OH241338   0.162   3.821  12.197 -0.4995 -0.6525 -0.2933
 6616TIP3    H141339   0.124   3.862  12.120 -0.9902 -0.2245  0.1650
 6616TIP3    H241340   0.106   3.744  12.213 -0.8609 -0.3173  0.0737
 6617TIP3   OH241341   5.867   3.397   2.731 -0.1386  0.3510 -0.4400
 6617TIP3    H141342   5.943   3.420   2.678 -0.8724  1.1603 -1.1698
 6617TIP3    H241343   5.848   3.476   2.781 -0.7321  0.2757 -0.5423
 6618TIP3   OH241344   4.001   1.090   1.964 -0.1539 -0.0180 -0.2753
 6618TIP3    H141345   4.085   1.047   1.944  1.2660  2.8463 -0.9818
 6618TIP3    H241346   4.016   1.134   2.047 -1.1774  0.0539 -0.1174
 6619TIP3   OH241347   0.850   4.965   1.985  0.0365  0.1722  0.5233
 6619TIP3    H141348   0.861   4.875   1.952  1.0840  0.6744 -0.5735
 6619TIP3    H241349   0.933   5.008   1.966 -1.2078  2.0306 -1.1753
 6620TIP3   OH241350   1.406   2.863   0.972  0.0987  0.2422 -0.1211
 6620TIP3    H141351   1.487   2.819   0.946  0.1372  0.0788  0.2729
 6620TIP3    H241352   1.395   2.932   0.906  0.6334  0.3588 -0.0964
 6621TIP3   OH241353   5.498   5.501   5.131  0.5624 -0.3368  0.4554
 6621TIP3    H141354   5.582   5.515   5.088 -0.2706  0.3630 -0.9917
 6621TIP3    H241355   5.487   5.578   5.187 -0.0352  0.6038 -0.9152
 6622TIP3   OH241356   1.963   4.870  13.006  0.1333  0.1419 -0.0627
 6622TIP3    H141357   1.947   4.927  12.932 -0.6220 -0.1535 -0.1374
 6622TIP3    H241358   1.971   4.929  13.081  0.5372  0.4151 -0.3183
 6623TIP3   OH241359   5.339   1.791  12.144 -0.2141  0.4712 -0.1204
 6623TIP3    H141360   5.326   1.881  12.176  1.0884  0.7697 -0.3900
 6623TIP3    H241361   5.285   1.786  12.065 -0.8266  0.7953  0.2709
 6624TIP3   OH241362   6.769   0.385  13.544 -0.2182 -0.4101  0.3782
 6624TIP3    H141363   6.692   0.356  13.594  0.5021  1.2934  2.6089
 6624TIP3    H241364   6.737   0.458  13.491 -0.6119 -1.2112 -0.5418
 6625TIP3   OH241365   3.788   3.643   5.924  0.1594 -0.1497  0.1445
 6625TIP3    H141366   3.714   3.589   5.895  0.0527  0.1756 -0.1978
 6625TIP3    H241367   3.789   3.634   6.019 -0.0003 -0.5704  0.1073
 6626TIP3   OH241368   5.114   0.732   0.150 -0.0162 -0.4151  0.2994
 6626TIP3    H141369   5.109   0.655   0.092  0.0197 -1.3022  1.4337
 6626TIP3    H241370   5.205   0.734   0.179 -0.4737 -1.2129  1.9030
 6627TIP3   OH241371   2.976   1.800  15.354  0.7371  0.2308  0.4211
 6627TIP3    H141372   3.048   1.737  15.362  0.9559  0.1886 -1.3692
 6627TIP3    H241373   2.950   1.819  15.444  1.4876 -1.4804  1.0513
 6628TIP3   OH241374   5.247   1.564   3.639 -0.1741 -0.3785 -0.4730
 6628TIP3    H141375   5.162   1.544   3.600 -0.6558 -1.7078  1.1560
 6628TIP3    H241376   5.251   1.660   3.640 -1.6526 -0.2919 -0.5610
 6629TIP3   OH241377   5.466   4.026   0.671  0.4068  0.1254  0.1932
 6629TIP3    H141378   5.477   3.936   0.701 -2.3381 -1.1487 -2.1823
 6629TIP3    H241379   5.398   4.062   0.729  1.2073  0.5777  0.8745
 6630TIP3   OH241380   5.984   5.845  11.956  0.5201  0.2364  0.7020
 6630TIP3    H141381   6.032   5.885  11.883  1.4074 -0.4102  0.9099
 6630TIP3    H241382   6.052   5.820  12.018 -0.1560 -0.0447  1.3429
 6631TIP3   OH241383   6.105   0.228   4.522  0.0526 -0.4825 -0.0233
 6631TIP3    H141384   6.168   0.283   4.476 -1.3803  0.8706 -0.4462
 6631TIP3    H241385   6.159   0.162   4.566  2.1080  2.3812  2.1974
 6632TIP3   OH241386   1.329   5.008  12.916 -0.2535  0.0996 -0.3073
 6632TIP3    H141387   1.366   4.982  13.000 -2.1094 -0.3882  0.4018
 6632TIP3    H241388   1.269   4.938  12.893  1.2860 -0.5350 -2.8284
 6633TIP3   OH241389   3.090   2.414  15.360  0.0398  0.5867  0.5518
 6633TIP3    H141390   3.058   2.379  15.276 -2.2605 -1.2184  2.0365
 6633TIP3    H241391   3.145   2.345  15.395  0.0550  0.8435  1.0394
 6634TIP3   OH241392   4.865   1.155  12.067 -0.1957  0.2954  0.6829
 6634TIP3    H141393   4.930   1.184  12.004  0.0726 -0.9139  0.3780
 6634TIP3    H241394   4.800   1.107  12.015 -0.2406 -0.2704  1.2391
 6635TIP3   OH241395   2.226   3.225   4.248 -0.0773  0.1390  0.5370
 6635TIP3    H141396   2.148   3.187   4.288  1.4625 -1.7887  1.9077
 6635TIP3    H241397   2.250   3.296   4.307 -0.7184  0.6855  0.1559
 6636TIP3   OH241398   3.498   4.004   1.210 -0.2879 -0.1186 -0.1060
 6636TIP3    H141399   3.425   4.044   1.162  0.3726  0.4257 -0.6786
 6636TIP3    H241400   3.469   4.003   1.301 -0.3134  1.7288 -0.0640
 6637TIP3   OH241401   2.893   0.057   3.022 -0.4241  0.0188 -0.0359
 6637TIP3    H141402   2.845   0.019   2.948  0.7178 -1.4780 -0.0489
 6637TIP3    H241403   2.842   0.031   3.099 -0.3316 -0.4979 -0.1404
 6638TIP3   OH241404   2.674   5.152  15.561 -0.4908  0.1377 -0.5342
 6638TIP3    H141405   2.653   5.226  15.504 -0.9695 -1.0272 -1.9410
 6638TIP3    H241406   2.644   5.075  15.513 -1.4573 -0.8925  1.5808
 6639TIP3   OH241407   3.903   4.077   1.238  0.3494  0.4091 -0.2290
 6639TIP3    H141408   3.850   3.999   1.220 -1.7449  1.7744 -0.4424
 6639TIP3    H241409   3.990   4.044   1.258 -0.4043 -1.9495 -0.5741
 6640TIP3   OH241410   5.469   1.229   1.749 -0.5342  0.4850  0.0473
 6640TIP3    H141411   5.438   1.298   1.690  1.2622  1.1977 -0.1143
 6640TIP3    H241412   5.513   1.167   1.692  0.6071  0.8268  0.5283
 6641TIP3   OH241413   4.389   5.259   4.924  0.1323  0.3182  0.5046
 6641TIP3    H141414   4.387   5.345   4.881 -0.1570  0.9696  1.7820
 6641TIP3    H241415   4.338   5.271   5.003  1.3014 -0.6411  1.4354
 6642TIP3   OH241416   1.551   4.943   2.889  0.4442  0.3352  0.2033
 6642TIP3    H141417   1.520   5.022   2.932 -0.1363  0.4975 -0.4935
 6642TIP3    H241418   1.646   4.941   2.906  0.7978  2.1501 -1.2976
 6643TIP3   OH241419   3.042   0.001  15.793  0.0459 -0.5191  0.2041
 6643TIP3    H141420   3.111  -0.058  15.823 -1.4050 -2.3885  0.0519
 6643TIP3    H241421   2.968  -0.017  15.851 -0.5391  0.9914 -0.0207
 6644TIP3   OH241422   5.360   0.938  12.288 -0.1278 -0.0390 -0.1013
 6644TIP3    H141423   5.403   0.967  12.207 -1.6738  0.8656 -0.6461
 6644TIP3    H241424   5.361   1.016  12.344  0.3608 -0.4789  0.5181
 6645TIP3   OH241425   3.618   3.801  10.279 -0.1597 -0.7996 -0.6063
 6645TIP3    H141426   3.687   3.845  10.328  0.1269  0.6558 -2.2231
 6645TIP3    H241427   3.536   3.836  10.315  0.0440  0.1849 -1.0621
 6646TIP3   OH241428   0.691   0.038   1.862 -0.3945 -0.4156 -0.3341
 6646TIP3    H141429   0.679  -0.044   1.910  1.3401  0.4392  1.7257
 6646TIP3    H241430   0.781   0.034   1.830  0.9969  1.9188  2.6750
 6647TIP3   OH241431   0.219   6.252   2.276  0.5245  0.2617 -0.3198
 6647TIP3    H141432   0.219   6.230   2.369 -1.3443 -0.3061 -0.4163
 6647TIP3    H241433   0.304   6.294   2.261  1.5772 -1.1734  1.2612
 6648TIP3   OH241434   5.493   5.162   6.003  0.4646  0.0743  0.4600
 6648TIP3    H141435   5.490   5.127   6.092  1.0661 -2.3163 -0.3767
 6648TIP3    H241436   5.580   5.139   5.971  0.2301  0.8328 -0.7929
 6649TIP3   OH241437   2.170   6.010  11.321  0.3085  0.4803 -0.3672
 6649TIP3    H141438   2.177   5.997  11.415 -1.8124 -2.4724 -0.4797
 6649TIP3    H241439   2.225   5.942  11.283  0.3471  1.0066 -1.2853
 6650TIP3   OH241440   6.161   2.440  14.232  0.0686 -0.2945  0.2347
 6650TIP3    H141441   6.125   2.434  14.320  1.2710  0.2666  0.7875
 6650TIP3    H241442   6.213   2.361  14.221 -0.8459 -0.8270 -0.3433
 6651TIP3   OH241443   4.921   5.769  12.108  0.1558 -0.0398 -0.1227
 6651TIP3    H141444   4.858   5.805  12.170  0.3316 -0.3118  0.2164
 6651TIP3    H241445   5.006   5.794  12.144  0.3031 -1.3192  0.4452
 6652TIP3   OH241446   4.324   4.794   2.096 -0.0793 -0.1335  0.2559
 6652TIP3    H141447   4.362   4.732   2.034 -0.7760  1.4350 -1.8199
 6652TIP3    H241448   4.244   4.825   2.055 -2.2306 -1.1943  3.2771
 6653TIP3   OH241449   2.867   1.229   2.384 -0.4857 -0.2697 -0.2329
 6653TIP3    H141450   2.895   1.175   2.311  0.7935  1.6118 -1.2328
 6653TIP3    H241451   2.893   1.318   2.359 -0.4768  0.5186  2.2874
 6654TIP3   OH241452   2.649   6.589  12.023 -0.6541  0.0195 -0.3827
 6654TIP3    H141453   2.616   6.658  12.081 -0.2818  1.3160 -1.6408
 6654TIP3    H241454   2.577   6.575  11.961 -2.8530 -4.3682  2.6305
 6655TIP3   OH241455   1.814   3.288  14.214  0.0977 -0.0736  0.0785
 6655TIP3    H141456   1.886   3.282  14.150  1.5991  2.1686  1.4303
 6655TIP3    H241457   1.737   3.307  14.161  1.1705  1.0722 -1.1529
 6656TIP3   OH241458   5.003   2.790  12.350  0.2846  0.1846  0.0418
 6656TIP3    H141459   4.990   2.779  12.255 -0.0773  1.6254 -0.1047
 6656TIP3    H241460   5.063   2.864  12.357  0.2867  0.1056  0.9479
 6657TIP3   OH241461   4.591   2.537   1.158  0.2796  0.0167 -0.7096
 6657TIP3    H141462   4.665   2.580   1.200  0.8848 -0.8299 -0.8806
 6657TIP3    H241463   4.535   2.608   1.128  0.4442  0.6598  0.4313
 6658TIP3   OH241464   2.279   1.668  12.277 -0.9118  0.0918 -0.5304
 6658TIP3    H141465   2.237   1.682  12.192 -1.8653 -0.9406 -0.2379
 6658TIP3    H241466   2.219   1.613  12.325  0.8711 -1.6448 -0.1771
 6659TIP3   OH241467   3.423   2.599  12.168  0.6493  0.8777 -0.0604
 6659TIP3    H141468   3.421   2.684  12.124  2.1330  0.8297 -0.2851
 6659TIP3    H241469   3.336   2.563  12.155  0.1181  2.1924 -0.3000
 6660TIP3   OH241470   6.060   0.572  15.289  0.0970 -0.5617 -0.5850
 6660TIP3    H141471   6.054   0.666  15.306  0.7192 -1.0037  2.7422
 6660TIP3    H241472   6.149   0.560  15.254  0.0953  0.0445 -0.8070
 6661TIP3   OH241473   4.846   0.148   1.274  0.3490  0.1518  0.4002
 6661TIP3    H141474   4.812   0.100   1.199  0.7672 -2.6208  1.8451
 6661TIP3    H241475   4.796   0.230   1.276 -0.9637 -0.5315 -1.7616
 6662TIP3   OH241476   2.993   3.898   0.941  0.2684  0.6497  0.5541
 6662TIP3    H141477   2.903   3.891   0.908  0.3525 -1.0234  0.5623
 6662TIP3    H241478   3.017   3.989   0.927 -0.8355  0.7408 -1.0215
 6663TIP3   OH241479   4.177   0.871  13.505 -0.0613  0.5497  0.2028
 6663TIP3    H141480   4.244   0.910  13.450  0.8676  0.6234  1.3513
 6663TIP3    H241481   4.220   0.857  13.589 -1.7454  1.4727  1.2800
 6664TIP3   OH241482   1.931   3.878  11.381 -0.4193 -0.4049  0.2657
 6664TIP3    H141483   1.898   3.798  11.340  0.5872 -1.6411  1.7530
 6664TIP3    H241484   1.865   3.901  11.446 -1.3137  0.7319 -0.9915
 6665TIP3   OH241485   5.381   0.863   3.020  0.1926 -0.3616  0.0433
 6665TIP3    H141486   5.285   0.856   3.016 -0.2840  3.6731 -0.4273
 6665TIP3    H241487   5.399   0.897   3.107  0.8043  1.5403 -0.7562
 6666TIP3   OH241488   5.314   1.722  12.734 -0.4841  0.5405  0.4197
 6666TIP3    H141489   5.305   1.631  12.705 -0.2525  0.1762  1.4514
 6666TIP3    H241490   5.281   1.773  12.660  0.0537 -0.3413 -0.4734
 6667TIP3   OH241491   5.783   3.872   1.905  0.0976  0.3862  0.3355
 6667TIP3    H141492   5.838   3.799   1.878  1.8125  1.8701 -0.3545
 6667TIP3    H241493   5.693   3.839   1.896  0.7830 -1.2371 -1.0642
 6668TIP3   OH241494   5.105   3.646   4.697  0.2366  0.1193  0.5047
 6668TIP3    H141495   5.084   3.658   4.790 -1.6355 -0.1100  0.1485
 6668TIP3    H241496   5.148   3.561   4.693 -0.5851 -0.3306  1.0452
 6669TIP3   OH241497   3.649   0.211   1.324  0.6505  0.1351  0.5318
 6669TIP3    H141498   3.627   0.168   1.241 -2.1370  0.9411  0.7665
 6669TIP3    H241499   3.565   0.229   1.365  1.9282  0.1380  3.4040
 6670TIP3   OH241500   2.090   4.507  15.117 -0.1465 -0.3273 -0.3115
 6670TIP3    H141501   2.046   4.557  15.048 -0.4224 -0.4707 -0.2400
 6670TIP3    H241502   2.020   4.482  15.177 -0.0409 -0.9788 -0.4538
 6671TIP3   OH241503   6.704   3.843  14.590 -0.3508 -0.3173 -0.7779
 6671TIP3    H141504   6.648   3.899  14.537  0.4006 -1.5317 -2.9640
 6671TIP3    H241505   6.784   3.894  14.603 -1.3972  0.9405  1.3479
 6672TIP3   OH241506   3.782   3.837  12.444 -0.0450 -0.2758  0.1232
 6672TIP3    H141507   3.816   3.824  12.533  1.2702 -1.6125 -0.5294
 6672TIP3    H241508   3.859   3.861  12.393  0.0585 -3.3135 -1.3954
 6673TIP3   OH241509   2.824   5.765  13.660 -0.6624  0.0039  0.1480
 6673TIP3    H141510   2.902   5.710  13.648 -0.6569  0.2574 -1.0577
 6673TIP3    H241511   2.792   5.781  13.572 -0.2925  2.4670  0.3783
 6674TIP3   OH241512   3.920   1.961  15.812  0.5250  0.4296 -0.3365
 6674TIP3    H141513   3.950   1.999  15.895  0.7751 -2.1850  0.8755
 6674TIP3    H241514   3.992   1.977  15.751  0.2196  2.6335 -0.1654
 6675TIP3   OH241515   2.124   5.781   3.029 -0.0424  0.2283 -0.2904
 6675TIP3    H141516   2.053   5.731   2.989 -0.6822 -0.4205  1.5681
 6675TIP3    H241517   2.099   5.790   3.121  0.6715  2.8982 -0.2592
 6676TIP3   OH241518   4.333   4.027   2.233 -0.2522 -0.3053  0.3812
 6676TIP3    H141519   4.367   4.115   2.219 -1.9124  0.1644 -1.0234
 6676TIP3    H241520   4.353   4.008   2.325 -0.0560  1.6062  0.7728
 6677TIP3   OH241521   1.673   0.745  14.552 -0.1111 -0.1981 -0.2513
 6677TIP3    H141522   1.699   0.696  14.474 -2.0035  1.3054 -1.9432
 6677TIP3    H241523   1.687   0.837  14.528 -0.7804  0.2980  1.1603
 6678TIP3   OH241524   2.251   3.904  10.641 -0.1032 -0.1155 -0.3074
 6678TIP3    H141525   2.309   3.837  10.604  1.0942  0.5121  0.3724
 6678TIP3    H241526   2.277   3.985  10.597 -2.8564 -0.2988 -2.5941
 6679TIP3   OH241527   1.731   4.414  17.198  0.0918  0.7911  0.4300
 6679TIP3    H141528   1.733   4.415  17.294  0.5905  2.7835  0.4449
 6679TIP3    H241529   1.824   4.409  17.173 -0.0692 -3.9637 -0.0832
 6680TIP3   OH241530   1.420   2.741  12.859 -0.3547  0.1114  0.5367
 6680TIP3    H141531   1.486   2.730  12.791  0.6610  2.5911  1.0196
 6680TIP3    H241532   1.441   2.825  12.900 -3.2992  0.6151  1.2847
 6681TIP3   OH241533   3.842   3.059   6.888 -0.3943 -0.1713 -0.3801
 6681TIP3    H141534   3.750   3.042   6.870 -0.4276  1.5704 -2.2196
 6681TIP3    H241535   3.884   2.973   6.882 -1.4344 -0.5997 -2.8268
 6682TIP3   OH241536   5.034   2.216  15.733 -1.0153 -0.0679 -0.2988
 6682TIP3    H141537   4.964   2.187  15.792 -0.1316  0.5837  1.1244
 6682TIP3    H241538   5.093   2.266  15.789  0.2471 -0.0311 -1.6116
 6683TIP3   OH241539   3.743   4.714   3.509 -0.0538 -0.1011 -0.3636
 6683TIP3    H141540   3.735   4.808   3.520 -0.5271 -0.0944 -0.7542
 6683TIP3    H241541   3.705   4.696   3.423  0.2511 -0.6180 -0.3970
 6684TIP3   OH241542   5.885   1.309   1.426 -0.1312 -0.1174  0.3757
 6684TIP3    H141543   5.874   1.222   1.387 -0.7037  0.5141 -0.9341
 6684TIP3    H241544   5.893   1.368   1.351  0.7484  0.9110  1.2433
 6685TIP3   OH241545   2.042   4.225  14.550 -0.0627  0.3989  0.1601
 6685TIP3    H141546   2.043   4.279  14.629  2.5726 -0.8087  1.0706
 6685TIP3    H241547   2.084   4.279  14.483 -0.9337  0.8581 -0.0352
 6686TIP3   OH241548   5.441   4.535  16.789 -0.2916  0.1165 -0.2719
 6686TIP3    H141549   5.439   4.442  16.815  1.1140 -0.2400 -1.3489
 6686TIP3    H241550   5.441   4.582  16.872 -0.2888 -0.8672  0.3075
 6687TIP3   OH241551   6.024   2.885  13.612 -0.1691  0.1549  1.1331
 6687TIP3    H141552   6.062   2.805  13.648 -1.0732 -0.2358  1.2437
 6687TIP3    H241553   6.060   2.892  13.524 -1.2282 -1.2127  0.5385
 6688TIP3   OH241554   6.449   0.708   0.391  0.3594  0.1215 -0.8220
 6688TIP3    H141555   6.433   0.768   0.463 -0.3173  0.2589 -1.0741
 6688TIP3    H241556   6.408   0.626   0.419  0.0640  0.1861 -1.0605
 6689TIP3   OH241557   2.198   0.249  14.173  0.9257  0.5682 -0.4685
 6689TIP3    H141558   2.187   0.341  14.151 -0.7840  0.4253 -0.3994
 6689TIP3    H241559   2.188   0.203  14.090 -0.8338  0.3230 -0.1705
 6690TIP3   OH241560   4.876   5.429  14.729  0.5344 -0.1961  0.1168
 6690TIP3    H141561   4.843   5.462  14.646  0.9703 -2.9263 -1.2358
 6690TIP3    H241562   4.803   5.380  14.767  0.6384  0.2439  0.9270
 6691TIP3   OH241563   4.764   1.384   0.767  0.3752 -0.4215  0.1564
 6691TIP3    H141564   4.774   1.294   0.737  1.2860 -0.5884  0.9457
 6691TIP3    H241565   4.786   1.381   0.860  1.7286  0.8464 -0.0957
 6692TIP3   OH241566   1.152   5.908   1.404 -0.4647  0.3677  0.1794
 6692TIP3    H141567   1.233   5.955   1.385 -2.2030  3.0484 -1.1667
 6692TIP3    H241568   1.153   5.896   1.498  1.6115  0.0311  0.1652
 6693TIP3   OH241569   6.571   6.785  16.633 -0.0598  0.0369  0.1832
 6693TIP3    H141570   6.522   6.859  16.668  0.6097  0.1523  0.9006
 6693TIP3    H241571   6.663   6.808  16.645  0.2773  0.7097 -2.9805
 6694TIP3   OH241572   3.632   5.999   5.179 -0.4571  0.1601 -0.2393
 6694TIP3    H141573   3.675   6.047   5.108  1.4050  0.3452  0.9298
 6694TIP3    H241574   3.612   5.913   5.142 -0.4354  0.5881 -1.2665
 6695TIP3   OH241575   6.339   4.907  12.306  0.1944 -0.4952  0.5385
 6695TIP3    H141576   6.373   4.996  12.319 -0.1866 -0.4648  1.3687
 6695TIP3    H241577   6.247   4.920  12.285  0.3768 -0.6490 -0.3982
 6696TIP3   OH241578   2.559   3.796   3.268 -0.2500 -0.0359 -0.0737
 6696TIP3    H141579   2.610   3.871   3.239 -0.0334 -0.3809 -0.6208
 6696TIP3    H241580   2.528   3.819   3.356 -1.0249  1.0940 -0.6181
 6697TIP3   OH241581   0.288   2.127   6.443  0.4957 -0.2180  0.0962
 6697TIP3    H141582   0.367   2.090   6.405  0.4151  2.1881 -2.7703
 6697TIP3    H241583   0.319   2.191   6.508  0.8582 -0.3253  0.0269
 6698TIP3   OH241584   1.197   4.098  11.960 -0.6435  0.0518  0.4688
 6698TIP3    H141585   1.209   4.178  11.910 -0.9836 -1.1406 -1.6550
 6698TIP3    H241586   1.107   4.105  11.994 -1.0560  0.1539 -0.5847
 6699TIP3   OH241587   3.883   0.151  16.608  0.0192  0.1267 -0.0128
 6699TIP3    H141588   3.841   0.077  16.565  0.6857 -0.3277  0.1050
 6699TIP3    H241589   3.856   0.227  16.557 -1.0655 -0.1341  0.1525
 6700TIP3   OH241590   5.577   4.231  14.720 -0.1686 -0.3431 -0.1189
 6700TIP3    H141591   5.640   4.172  14.679  0.3931  1.5121 -2.1268
 6700TIP3    H241592   5.562   4.194  14.807  0.7091 -2.9649 -0.9958
 6701TIP3   OH241593   6.215   3.595   3.855 -0.1907 -0.0049  0.6128
 6701TIP3    H141594   6.143   3.589   3.793 -0.7601 -0.7932  1.3270
 6701TIP3    H241595   6.255   3.508   3.854  0.2689  0.2024  0.7928
 6702TIP3   OH241596   1.823   4.682  13.156 -0.2567  0.2529 -0.4032
 6702TIP3    H141597   1.868   4.668  13.239  0.1811  0.7754 -0.5481
 6702TIP3    H241598   1.892   4.701  13.093 -0.6070  0.1704 -0.8210
 6703TIP3   OH241599   4.164   5.036   2.275 -0.0374 -0.2070  0.4846
 6703TIP3    H141600   4.182   4.960   2.330  0.1567  0.1219  0.8786
 6703TIP3    H241601   4.092   5.082   2.318  0.0127 -0.0298  0.3840
 6704TIP3   OH241602   4.878   0.363  14.146  0.5882 -0.3096  0.5553
 6704TIP3    H141603   4.786   0.388  14.136  0.8208  0.0395 -1.0531
 6704TIP3    H241604   4.875   0.279  14.190 -0.4694  0.0340  1.1760
 6705TIP3   OH241605   5.215   2.110   4.327 -0.2200 -0.4036  0.3980
 6705TIP3    H141606   5.231   2.022   4.363 -0.3720  0.0429  1.5973
 6705TIP3    H241607   5.139   2.098   4.269 -1.1145 -0.8307  1.6040
 6706TIP3   OH241608   0.564   5.886  14.724  0.3964 -0.2133  0.2962
 6706TIP3    H141609   0.520   5.887  14.638 -0.6442 -2.8337  0.6915
 6706TIP3    H241610   0.495   5.857  14.784  0.9116  2.2863  2.1945
 6707TIP3   OH241611   4.309   1.480  15.868 -0.2046 -0.0308  0.5635
 6707TIP3    H141612   4.291   1.520  15.782  0.5449 -1.1319 -0.1297
 6707TIP3    H241613   4.386   1.425  15.853 -0.7688 -1.1577  1.6730
 6708TIP3   OH241614   1.135   6.607  14.892 -0.1165  0.2976  0.1780
 6708TIP3    H141615   1.132   6.608  14.797  2.4840 -0.8100 -0.0078
 6708TIP3    H241616   1.228   6.614  14.913 -0.6546  0.9490  2.6652
 6709TIP3   OH241617   2.322   4.430   5.187  0.2324 -0.5520  0.7623
 6709TIP3    H141618   2.403   4.481   5.184  0.7653 -1.3938  0.4035
 6709TIP3    H241619   2.324   4.377   5.107  0.4688 -2.2710  1.8624
 6710TIP3   OH241620   1.164   3.143  13.458 -0.6703 -0.2730 -0.2366
 6710TIP3    H141621   1.105   3.102  13.522  2.1825 -0.1283  2.7238
 6710TIP3    H241622   1.176   3.232  13.491  1.3132 -0.3638 -0.6462
 6711TIP3   OH241623   4.239   1.947  17.036 -0.6647 -0.2139 -0.5510
 6711TIP3    H141624   4.146   1.963  17.026 -0.8922 -1.4599 -0.6897
 6711TIP3    H241625   4.248   1.852  17.026  0.8607  0.0643 -2.5825
 6712TIP3   OH241626   6.417   4.927  16.253 -0.3333  0.2586  0.2328
 6712TIP3    H141627   6.354   4.899  16.186 -0.4497 -1.0471  0.8650
 6712TIP3    H241628   6.490   4.963  16.203 -1.9348  2.7416 -0.5152
 6713TIP3   OH241629   2.551   3.609  15.443 -0.0787  0.2386 -0.0308
 6713TIP3    H141630   2.591   3.677  15.496  0.6453  0.2362 -0.5612
 6713TIP3    H241631   2.493   3.657  15.383 -0.9151  0.2397  0.7434
 6714TIP3   OH241632   2.203   0.678  12.576  0.3335 -0.4979 -0.0124
 6714TIP3    H141633   2.284   0.626  12.567  1.0257  0.4122  0.7689
 6714TIP3    H241634   2.233   0.765  12.604 -0.8595  0.1189 -0.5735
 6715TIP3   OH241635   3.710   3.090  17.073  0.1201 -0.7599 -0.4019
 6715TIP3    H141636   3.727   3.014  17.128  0.4466 -0.8733 -0.6552
 6715TIP3    H241637   3.618   3.081  17.048 -1.0036  0.9572  2.6404
 6716TIP3   OH241638   4.495   3.346   1.830  0.7552  0.4432 -0.2578
 6716TIP3    H141639   4.524   3.355   1.739  1.8975  1.1472  0.1608
 6716TIP3    H241640   4.469   3.254   1.838 -1.3465  0.7976 -1.8367
 6717TIP3   OH241641   3.748   0.556   3.726  0.3976  0.3886  0.1612
 6717TIP3    H141642   3.799   0.586   3.651  0.0515  1.0682  0.1884
 6717TIP3    H241643   3.741   0.633   3.782  2.2271 -0.5641  1.8095
 6718TIP3   OH241644   4.457   2.775  14.776  0.2008  0.2246 -1.3051
 6718TIP3    H141645   4.415   2.826  14.846 -1.1047 -1.7163 -0.6044
 6718TIP3    H241646   4.508   2.709  14.822 -0.5114 -0.9555 -2.1540
 6719TIP3   OH241647   5.924   0.817  15.839  0.4784 -0.1165  0.3455
 6719TIP3    H141648   6.002   0.771  15.870  0.1778 -0.0136  1.2932
 6719TIP3    H241649   5.940   0.832  15.746  1.8538  0.4354  0.6462
 6720TIP3   OH241650   1.599   5.066  15.114  0.5566 -0.0483  0.4164
 6720TIP3    H141651   1.676   5.041  15.165  0.6658 -1.3971 -0.3612
 6720TIP3    H241652   1.524   5.036  15.166  0.6060 -0.0162  0.5064
 6721TIP3   OH241653   1.686   5.344  12.634 -0.7528 -0.5887  0.7084
 6721TIP3    H141654   1.632   5.266  12.628 -0.9514 -0.5656  1.9207
 6721TIP3    H241655   1.624   5.415  12.653 -0.6554 -0.0092 -0.9837
 6722TIP3   OH241656   4.497   0.583   1.910  0.9566 -0.2758  0.3411
 6722TIP3    H141657   4.408   0.617   1.920  0.4580 -1.6875  0.8827
 6722TIP3    H241658   4.510   0.578   1.815  0.4470 -0.0975  0.2583
 6723TIP3   OH241659   6.689   1.735  16.904  0.0705  0.0137  0.7049
 6723TIP3    H141660   6.758   1.692  16.854  2.6422  2.8277  1.4969
 6723TIP3    H241661   6.734   1.771  16.981 -1.9130  3.1048  0.6198
 6724TIP3   OH241662   1.025   0.702  16.769  0.3758  0.0133 -0.0553
 6724TIP3    H141663   1.020   0.737  16.680 -3.4288 -1.4766 -0.6127
 6724TIP3    H241664   1.038   0.608  16.757  0.4026 -0.1284  0.9795
 6725TIP3   OH241665   4.720   1.119  12.515  0.2676 -0.1371 -0.0252
 6725TIP3    H141666   4.643   1.141  12.463  2.1974  0.5753 -2.8149
 6725TIP3    H241667   4.728   1.191  12.577 -1.2287 -0.1692  0.2412
 6726TIP3   OH241668   3.158   4.667   2.750  0.1438 -0.2402  0.4877
 6726TIP3    H141669   3.231   4.634   2.698  0.0549 -0.2741  0.3837
 6726TIP3    H241670   3.166   4.620   2.834  0.0084 -0.5427  0.3349
 6727TIP3   OH241671   2.313   2.196   2.722  0.3708  0.1658  0.4654
 6727TIP3    H141672   2.282   2.287   2.723 -1.2984 -0.3717  0.0460
 6727TIP3    H241673   2.399   2.200   2.763  1.5798  2.3802 -1.9496
 6728TIP3   OH241674   0.607   4.621  12.314 -0.2534  0.3918 -0.2215
 6728TIP3    H141675   0.703   4.628  12.312 -0.2402  0.2733 -0.0214
 6728TIP3    H241676   0.587   4.551  12.253 -0.2326  0.6237 -0.4965
 6729TIP3   OH241677   6.195   6.244  11.112  0.2777 -0.2969  0.1670
 6729TIP3    H141678   6.261   6.289  11.058 -0.7608 -0.0212 -0.9078
 6729TIP3    H241679   6.203   6.152  11.088  0.7890 -0.3700  0.6087
 6730TIP3   OH241680   4.771   5.653   5.421 -0.0305 -0.3052  0.6700
 6730TIP3    H141681   4.790   5.570   5.465  2.4604  0.8974  2.1119
 6730TIP3    H241682   4.775   5.633   5.328  0.0425 -1.8940  0.9906
 6731TIP3   OH241683   5.939   1.693   0.378  0.0283 -0.2363 -0.1766
 6731TIP3    H141684   5.987   1.758   0.430  0.9855 -1.7383  0.9157
 6731TIP3    H241685   5.877   1.654   0.439 -1.8313  0.8695 -1.2902
 6732TIP3   OH241686   0.050   0.362   4.241  0.1929  0.4664 -0.4073
 6732TIP3    H141687   0.130   0.405   4.210  0.7268 -0.0676  0.1941
 6732TIP3    H241688   0.076   0.318   4.322 -0.4125 -0.7188 -0.8246
 6733TIP3   OH241689   1.160   1.752   6.274  0.0097  0.5043 -0.4044
 6733TIP3    H141690   1.136   1.819   6.338 -0.2903  0.9586 -0.9737
 6733TIP3    H241691   1.133   1.669   6.314 -1.0185  0.8597 -0.3317
 6734TIP3   OH241692   1.209   3.480   5.944  0.0218  0.1839 -0.7184
 6734TIP3    H141693   1.211   3.574   5.925  0.6227  0.1803 -0.6813
 6734TIP3    H241694   1.119   3.463   5.972 -0.7273  0.3367 -2.8543
 6735TIP3   OH241695   4.373   5.355  13.846 -0.3243  0.3151  0.0254
 6735TIP3    H141696   4.306   5.422  13.838 -0.9454 -0.3501 -0.4079
 6735TIP3    H241697   4.386   5.346  13.941 -0.0410  1.2190  0.0844
 6736TIP3   OH241698   5.368   3.895   1.304  0.0877 -0.7697  0.0313
 6736TIP3    H141699   5.390   3.873   1.214 -2.5274 -0.0386 -0.8719
 6736TIP3    H241700   5.342   3.987   1.300 -2.3353 -1.3277  0.9903
 6737TIP3   OH241701   5.543   6.383   5.345  0.9678 -0.4315  0.1855
 6737TIP3    H141702   5.594   6.349   5.418  1.0809  0.7628  0.6841
 6737TIP3    H241703   5.517   6.305   5.295 -1.6561 -1.6490  3.1022
 6738TIP3   OH241704   2.565   5.995  16.285 -0.1721 -0.4571 -0.3027
 6738TIP3    H141705   2.554   5.919  16.228 -1.4423 -0.6594  0.1729
 6738TIP3    H241706   2.563   5.959  16.374 -0.2354  0.0637 -0.0865
 6739TIP3   OH241707   2.545   3.242  13.153  0.0312  0.3377 -0.1276
 6739TIP3    H141708   2.529   3.336  13.155 -0.5180  0.2504 -0.3855
 6739TIP3    H241709   2.623   3.230  13.208 -1.0100  0.7116  1.4892
 6740TIP3   OH241710   5.742   0.692  16.056 -0.1444 -0.0693 -0.1613
 6740TIP3    H141711   5.708   0.631  15.990  2.9657 -2.2778  0.0445
 6740TIP3    H241712   5.819   0.731  16.015  1.1587 -0.6056  1.6546
 6741TIP3   OH241713   1.148   1.797   0.399 -0.0724  0.1523 -0.6121
 6741TIP3    H141714   1.112   1.795   0.311  3.1187 -0.8423 -2.0506
 6741TIP3    H241715   1.193   1.881   0.405 -3.1778  1.8225  1.5014
 6742TIP3   OH241716   4.250   2.798  13.075  0.5559 -0.3333 -0.1793
 6742TIP3    H141717   4.311   2.756  13.136 -0.8765 -1.0008  0.8528
 6742TIP3    H241718   4.287   2.780  12.988  0.7574 -2.5587  0.2962
 6743TIP3   OH241719   6.790   3.777   4.677  0.2917 -0.1748  0.8291
 6743TIP3    H141720   6.799   3.831   4.755 -2.0853  1.1520  0.2611
 6743TIP3    H241721   6.758   3.836   4.610 -1.0936 -2.0077 -0.2240
 6744TIP3   OH241722   3.470   0.096   6.489  0.4021 -0.4867  0.2366
 6744TIP3    H141723   3.444   0.081   6.580  1.6135 -0.8374  0.5468
 6744TIP3    H241724   3.393   0.135   6.448 -0.3933 -0.9555  1.2373
 6745TIP3   OH241725   0.348   0.521  16.219 -0.6108  0.1174 -0.3875
 6745TIP3    H141726   0.350   0.469  16.139 -2.4104 -1.2719  0.3896
 6745TIP3    H241727   0.438   0.550  16.231  0.0324 -1.0471 -1.9985
 6746TIP3   OH241728   1.299   3.754   5.638  0.0585 -0.5484 -0.0027
 6746TIP3    H141729   1.301   3.671   5.590 -2.4892 -0.1040 -1.0329
 6746TIP3    H241730   1.206   3.769   5.656  0.1316  3.1147 -1.7658
 6747TIP3   OH241731   5.023   2.943  16.325 -0.3568  0.4146  0.9344
 6747TIP3    H141732   4.942   2.991  16.338 -0.6998  0.0175  0.3068
 6747TIP3    H241733   5.092   3.009  16.328 -0.8090  0.9219  0.2247
 6748TIP3   OH241734   5.671   5.882   5.093 -0.3935  0.7991 -0.6445
 6748TIP3    H141735   5.664   5.853   5.002 -0.2713 -0.4487 -0.2696
 6748TIP3    H241736   5.581   5.901   5.120 -0.6340 -0.4683 -0.5173
 6749TIP3   OH241737   4.034   2.018   4.029 -0.1224  0.4086 -0.1311
 6749TIP3    H141738   4.129   2.016   4.019 -0.0586  0.7587  0.3709
 6749TIP3    H241739   4.000   1.985   3.946  0.4222  1.1643 -0.6578
 6750TIP3   OH241740   3.729   4.246  16.121 -0.3662 -0.1152  0.4570
 6750TIP3    H141741   3.755   4.322  16.068 -0.0157 -0.9907 -0.6802
 6750TIP3    H241742   3.763   4.171  16.072 -0.8901 -1.0176  1.4475
 6751TIP3   OH241743   3.418   0.971   0.503  0.3344 -0.3299 -0.1204
 6751TIP3    H141744   3.470   1.038   0.458 -3.2084  2.8639  0.0606
 6751TIP3    H241745   3.400   0.905   0.436  0.9411  0.7460 -1.3896
 6752TIP3   OH241746   1.281   2.457  11.218 -0.3108 -0.6818 -0.4463
 6752TIP3    H141747   1.188   2.440  11.229 -0.4820  0.4441 -0.0535
 6752TIP3    H241748   1.288   2.552  11.213  0.9301 -0.6786  0.6816
 6753TIP3   OH241749   0.453   0.180   1.442 -0.1338  0.0473  0.1891
 6753TIP3    H141750   0.408   0.132   1.511  0.0954  0.6062  0.7319
 6753TIP3    H241751   0.443   0.272   1.466  0.3429  0.2241 -0.2793
 6754TIP3   OH241752   4.881   3.580  16.339 -0.8061 -0.0068  0.9295
 6754TIP3    H141753   4.788   3.555  16.335 -0.2954 -2.3231  2.0080
 6754TIP3    H241754   4.901   3.583  16.432  0.1913  0.6222  0.7063
 6755TIP3   OH241755   3.187   5.393   5.935  0.3484  0.1560 -0.3569
 6755TIP3    H141756   3.248   5.446   5.986 -0.5334  0.5437  0.3280
 6755TIP3    H241757   3.199   5.304   5.966 -0.1133  0.3752  0.4899
 6756TIP3   OH241758   3.656   1.215  15.778 -0.1554 -0.6615  0.5133
 6756TIP3    H141759   3.625   1.148  15.839 -2.1115 -0.8889 -0.6690
 6756TIP3    H241760   3.655   1.173  15.693  0.6310  0.2606  0.0246
 6757TIP3   OH241761   4.673   1.014  11.929 -0.1900 -0.1319  0.3513
 6757TIP3    H141762   4.699   0.948  11.992  1.6922 -1.3498 -1.5498
 6757TIP3    H241763   4.603   1.062  11.972 -0.0111 -1.8180  2.7379
 6758TIP3   OH241764   4.329   6.692   0.717 -0.1816  0.0920 -0.5705
 6758TIP3    H141765   4.254   6.747   0.739  0.5283  1.3927 -1.2272
 6758TIP3    H241766   4.358   6.725   0.631  0.9293 -0.5907 -0.4819
 6759TIP3   OH241767   0.565   6.773  12.127  0.1136 -0.1012 -0.3268
 6759TIP3    H141768   0.625   6.848  12.122  1.3348 -0.7858  2.0540
 6759TIP3    H241769   0.618   6.699  12.098 -0.1511 -0.4472  0.0714
 6760TIP3   OH241770   1.762   1.616  12.432 -0.0765 -0.2396  0.0840
 6760TIP3    H141771   1.727   1.627  12.344 -0.8458 -0.4252  0.3609
 6760TIP3    H241772   1.813   1.696  12.448 -0.1194 -0.1044 -0.4398
 6761TIP3   OH241773   4.995   2.703  14.950  0.2175 -0.4060  0.4167
 6761TIP3    H141774   5.025   2.701  14.859 -0.9982  1.2010 -0.0760
 6761TIP3    H241775   5.075   2.701  15.002  1.0407  0.5685 -0.7510
 6762TIP3   OH241776   6.060   6.281  11.563 -0.8633  0.0054  0.2139
 6762TIP3    H141777   6.024   6.366  11.589  0.9007  0.6721  0.6173
 6762TIP3    H241778   6.032   6.271  11.472 -0.7074  1.2550  0.0088
 6763TIP3   OH241779   1.492   5.376  13.237  0.2608 -0.1275 -0.5510
 6763TIP3    H141780   1.421   5.425  13.193 -1.1167 -1.6263 -0.0880
 6763TIP3    H241781   1.460   5.286  13.241  1.9842 -0.7447  0.1938
 6764TIP3   OH241782   2.261   0.180   5.078 -0.3155 -0.0526 -0.9003
 6764TIP3    H141783   2.253   0.111   5.011 -0.7255  0.1653 -1.0821
 6764TIP3    H241784   2.350   0.213   5.068 -0.0544 -0.6714 -0.6951
 6765TIP3   OH241785   3.745   2.192  11.343  0.0438  0.4723 -0.3427
 6765TIP3    H141786   3.743   2.155  11.255 -1.1710 -1.0058  0.2589
 6765TIP3    H241787   3.812   2.141  11.389  0.5742  1.1434 -0.3484
 6766TIP3   OH241788   1.431   0.257  12.226  0.5441 -0.4623  0.4229
 6766TIP3    H141789   1.517   0.299  12.220 -0.3777  1.3516 -0.9287
 6766TIP3    H241790   1.382   0.311  12.288 -0.2398 -0.3208 -0.3065
 6767TIP3   OH241791   0.586   1.509  12.151  0.6836 -0.5352  0.3015
 6767TIP3    H141792   0.490   1.506  12.155  0.5765  0.7622 -0.4698
 6767TIP3    H241793   0.605   1.518  12.057  1.5105  0.0897  0.5202
 6768TIP3   OH241794   2.297   2.893  12.819  0.0447  0.0840 -0.4715
 6768TIP3    H141795   2.249   2.819  12.856 -1.4859 -0.0032 -2.4843
 6768TIP3    H241796   2.358   2.853  12.757  0.8842  0.3836  0.1438
 6769TIP3   OH241797   2.325   3.649  14.410  0.0296 -0.1055 -0.1317
 6769TIP3    H141798   2.362   3.736  14.420  3.3780 -1.5215  1.3556
 6769TIP3    H241799   2.318   3.615  14.500  2.6428 -2.7026 -0.7743
 6770TIP3   OH241800   0.266   6.384  11.000  0.1102 -0.0875  0.2890
 6770TIP3    H141801   0.271   6.381  11.095 -1.3969 -0.2117  0.3816
 6770TIP3    H241802   0.204   6.454  10.981  2.3506  1.7533 -0.7096
 6771TIP3   OH241803   4.543   5.230   2.359  0.4468 -0.1634 -0.4319
 6771TIP3    H141804   4.503   5.316   2.365  1.4022  0.1957  2.7031
 6771TIP3    H241805   4.492   5.184   2.293 -2.5245  1.5687  0.4767
 6772TIP3   OH241806   4.826   0.648  13.005 -0.4199  0.0553 -0.2300
 6772TIP3    H141807   4.808   0.562  12.969  2.5253 -0.6620 -0.2043
 6772TIP3    H241808   4.846   0.703  12.929  0.6121 -0.0887 -0.0769
 6773TIP3   OH241809   1.504   3.552   5.201  0.5614 -0.4679  0.0655
 6773TIP3    H141810   1.527   3.573   5.292 -0.3996  0.6286  0.0867
 6773TIP3    H241811   1.436   3.485   5.208 -1.3722  1.4164  0.3058
 6774TIP3   OH241812   1.500   2.993  15.728 -0.0016  0.1109 -0.5790
 6774TIP3    H141813   1.577   3.030  15.685  0.4503 -1.9745 -1.6666
 6774TIP3    H241814   1.514   2.899  15.727 -3.1665 -0.4650 -1.9932
 6775TIP3   OH241815   2.472   3.441   1.440  0.4071  0.0634  1.0399
 6775TIP3    H141816   2.442   3.522   1.399  2.5239 -0.2597 -1.3921
 6775TIP3    H241817   2.401   3.379   1.425  0.6748  0.2437 -1.3872
 6776TIP3   OH241818   3.676   5.514  13.166  0.2008  0.6030 -0.0786
 6776TIP3    H141819   3.661   5.583  13.231 -0.3679 -0.6589  1.1682
 6776TIP3    H241820   3.734   5.452  13.209 -0.4914 -0.4593 -0.6269
 6777TIP3   OH241821   2.868   6.016  12.844 -0.0048  0.0094 -0.8495
 6777TIP3    H141822   2.773   6.010  12.836 -0.0705 -0.9861  0.2704
 6777TIP3    H241823   2.893   5.933  12.886  1.1883  0.8367  0.1356
 6778TIP3   OH241824   2.407   3.533   5.493 -0.1732 -0.0417  0.3629
 6778TIP3    H141825   2.501   3.522   5.477 -0.7099 -1.7251 -2.3238
 6778TIP3    H241826   2.380   3.598   5.428 -1.0105 -0.2563  0.4921
 6779TIP3   OH241827   1.610   6.619   4.897 -0.6185  0.2527  0.9123
 6779TIP3    H141828   1.663   6.555   4.943 -2.1009  0.6582  3.3618
 6779TIP3    H241829   1.654   6.702   4.911 -0.4338  0.2250  0.5227
 6780TIP3   OH241830   0.425   5.895  14.491  0.0566  0.1220  0.4304
 6780TIP3    H141831   0.337   5.858  14.489 -0.5376  1.4803  0.1937
 6780TIP3    H241832   0.411   5.990  14.489  1.5141  0.3702  0.8834
 6781TIP3   OH241833   2.215   2.777   5.722  0.1530 -1.0515 -0.4345
 6781TIP3    H141834   2.242   2.826   5.645 -0.0884 -0.9567 -0.4595
 6781TIP3    H241835   2.120   2.772   5.715  0.1310 -1.0532 -0.1507
 6782TIP3   OH241836   1.464   6.478  13.921 -0.4523 -0.2014 -0.3224
 6782TIP3    H141837   1.379   6.448  13.953 -0.8574 -0.9989 -2.0355
 6782TIP3    H241838   1.527   6.433  13.977 -1.0781  1.5496  1.9786
 6783TIP3   OH241839   6.669   2.662   4.149 -0.0151  0.1264 -0.0650
 6783TIP3    H141840   6.687   2.579   4.104 -2.8483  0.1830 -1.4740
 6783TIP3    H241841   6.632   2.636   4.233  1.1312  0.0135  0.4241
 6784TIP3   OH241842   0.017   4.404   1.789  0.4621  0.9193 -0.2239
 6784TIP3    H141843   0.021   4.339   1.718  0.1338 -0.2320  0.7763
 6784TIP3    H241844  -0.076   4.416   1.806  0.5342  1.3675 -0.1333
 6785TIP3   OH241845   0.569   1.092   2.378 -0.2849 -0.0385  0.2723
 6785TIP3    H141846   0.501   1.027   2.393 -1.0157  0.2517 -1.5357
 6785TIP3    H241847   0.651   1.042   2.377 -0.8436 -0.9951 -1.2536
 6786TIP3   OH241848   3.875   3.141  15.681  0.2539 -0.1640  0.0462
 6786TIP3    H141849   3.959   3.131  15.725  0.5684  3.7081  0.7072
 6786TIP3    H241850   3.811   3.139  15.753  0.0899 -0.3218 -0.1056
 6787TIP3   OH241851   1.249   1.655  13.437 -0.3440 -0.8758  0.3229
 6787TIP3    H141852   1.227   1.571  13.396  1.8142  0.5942 -4.6279
 6787TIP3    H241853   1.202   1.720  13.385  1.1607  1.1597  1.3640
 6788TIP3   OH241854   0.885   1.670  16.531  0.0138  0.4020  0.6377
 6788TIP3    H141855   0.909   1.612  16.459  0.1708  0.0941  0.9339
 6788TIP3    H241856   0.932   1.751  16.514 -0.6396  0.6363 -0.0783
 6789TIP3   OH241857   2.089   6.738  16.106 -0.8842 -0.0354 -0.3427
 6789TIP3    H141858   2.164   6.791  16.134  1.4063 -2.2239 -1.8458
 6789TIP3    H241859   2.052   6.702  16.187  0.6375 -0.0506  0.3779
 6790TIP3   OH241860   3.327   5.533  11.107  0.1572 -0.4261  0.3753
 6790TIP3    H141861   3.313   5.556  11.199  1.4193  0.8006  0.2931
 6790TIP3    H241862   3.406   5.479  11.107  0.6446  0.2691 -0.0536
 6791TIP3   OH241863   2.647   5.929   4.707  0.2556 -0.1031 -0.1139
 6791TIP3    H141864   2.714   5.878   4.663 -0.3287 -0.4348 -0.6296
 6791TIP3    H241865   2.693   5.972   4.780  0.7115 -1.5548  0.4890
 6792TIP3   OH241866   4.859   0.320   5.554 -0.4196  0.2120 -0.1736
 6792TIP3    H141867   4.864   0.404   5.509 -0.2437  0.3141  0.0370
 6792TIP3    H241868   4.950   0.299   5.576 -0.4624 -0.0335 -0.2238
 6793TIP3   OH241869   6.622   0.909  14.711 -0.1323  0.0119  0.3184
 6793TIP3    H141870   6.557   0.966  14.669  0.4561  1.1476  0.9053
 6793TIP3    H241871   6.683   0.885  14.641  0.2043  0.9642  0.2821
 6794TIP3   OH241872   0.076   3.723   0.355 -0.3829  0.6740  0.4018
 6794TIP3    H141873  -0.010   3.757   0.379 -0.9382  0.5065 -1.2444
 6794TIP3    H241874   0.134   3.799   0.358 -0.7049  0.9057  0.9126
 6795TIP3   OH241875   1.055   4.790  14.563 -0.3751  0.6172  0.2064
 6795TIP3    H141876   0.975   4.739  14.554 -0.6394  0.9614  0.5327
 6795TIP3    H241877   1.047   4.831  14.650 -0.9786  2.5540 -0.6909
 6796TIP3   OH241878   3.821   0.786  15.925 -0.4453  0.2169 -0.5011
 6796TIP3    H141879   3.785   0.707  15.886  1.0579 -0.3624 -0.7739
 6796TIP3    H241880   3.796   0.856  15.865 -0.5405 -0.2644 -1.0324
 6797TIP3   OH241881   2.737   4.227   3.187  0.2415  0.1628  0.3980
 6797TIP3    H141882   2.725   4.246   3.094 -2.6530  2.3425  1.0807
 6797TIP3    H241883   2.668   4.165   3.208 -0.7074  1.5601  1.5452
 6798TIP3   OH241884   5.856   3.794   4.671  0.2182  0.0889  0.2387
 6798TIP3    H141885   5.812   3.864   4.719  0.9139  0.3653  0.4937
 6798TIP3    H241886   5.800   3.777   4.596 -0.0960  0.7404  0.3192
 6799TIP3   OH241887   3.964   4.828  14.669 -0.2399  0.8788  0.6085
 6799TIP3    H141888   3.971   4.871  14.583  3.0919  2.2699  1.4035
 6799TIP3    H241889   3.871   4.834  14.691 -1.1366  0.9511 -2.6071
 6800TIP3   OH241890   3.079   4.507   2.405 -0.4408 -0.4114 -0.1614
 6800TIP3    H141891   3.074   4.454   2.484 -0.5921  1.5176  1.1922
 6800TIP3    H241892   2.993   4.497   2.363 -1.4836  0.8458  1.5438
 6801TIP3   OH241893   0.049   3.812   5.424 -0.5088 -0.1486  0.3202
 6801TIP3    H141894   0.064   3.801   5.518  0.4813  1.8870  0.4469
 6801TIP3    H241895   0.135   3.835   5.389 -0.9132 -0.6891 -1.0758
 6802TIP3   OH241896   4.984   0.786   6.839 -0.9000  0.0498 -0.0783
 6802TIP3    H141897   4.961   0.853   6.775  0.2500  0.3345 -0.2315
 6802TIP3    H241898   5.018   0.834   6.914 -2.1293 -0.2910  0.7151
 6803TIP3   OH241899   0.859   6.643  14.930  0.3119  0.0704 -0.5668
 6803TIP3    H141900   0.856   6.548  14.944  1.5023  0.0394 -0.4224
 6803TIP3    H241901   0.949   6.660  14.902  0.2917  1.2468  0.0217
 6804TIP3   OH241902   4.031   3.932  12.349 -0.1112 -0.7763 -0.4896
 6804TIP3    H141903   4.035   4.016  12.304  1.2804 -0.9928 -0.8214
 6804TIP3    H241904   4.109   3.931  12.405 -1.2380 -0.9587  1.1640
 6805TIP3   OH241905   5.427   0.978   3.267  0.0975  0.0464  0.2013
 6805TIP3    H141906   5.377   0.970   3.348 -1.1070  0.3961 -0.4740
 6805TIP3    H241907   5.475   1.060   3.275  0.6584 -0.3445  0.9039
 6806TIP3   OH241908   0.130   1.582  12.705 -0.0088  0.5837  0.1492
 6806TIP3    H141909   0.180   1.534  12.639 -1.1342  0.4447 -0.6424
 6806TIP3    H241910   0.043   1.543  12.702 -0.5009  1.6079  0.6284
 6807TIP3   OH241911   2.777   5.106  14.516  0.6120  0.2389  0.4206
 6807TIP3    H141912   2.800   5.191  14.479  1.1876 -0.4886 -0.9441
 6807TIP3    H241913   2.683   5.112  14.534  0.0322  0.2903 -2.2049
 6808TIP3   OH241914   4.902   5.803  13.434 -0.2307 -0.3411  0.1487
 6808TIP3    H141915   4.930   5.770  13.349 -1.4637 -1.5817  0.1956
 6808TIP3    H241916   4.942   5.743  13.497 -2.3129 -1.7008  0.2440
 6809TIP3   OH241917   6.383   1.208   4.629 -0.7427 -0.2282  0.3826
 6809TIP3    H141918   6.353   1.151   4.699 -0.0867 -1.0248  0.0296
 6809TIP3    H241919   6.463   1.248   4.663 -1.3102  0.6586  0.7089
 6810TIP3   OH241920   2.853   6.446  12.964  0.0330 -0.1096  0.1738
 6810TIP3    H141921   2.917   6.379  12.939  0.2920 -0.0290  0.6110
 6810TIP3    H241922   2.900   6.503  13.024  0.4654  1.6498 -1.7043
 6811TIP3   OH241923   0.807   0.051   3.974  0.5527  0.5152  0.4016
 6811TIP3    H141924   0.810   0.106   3.896  2.0312 -0.9417 -0.6336
 6811TIP3    H241925   0.790  -0.037   3.941  1.6495 -0.2179  1.6739
 6812TIP3   OH241926   3.873   5.540  12.305 -0.1619  0.1797 -0.0697
 6812TIP3    H141927   3.778   5.530  12.313  0.0991 -0.8201  2.5300
 6812TIP3    H241928   3.900   5.461  12.258 -0.5029 -0.1293  0.2396
 6813TIP3   OH241929   2.782   2.972  17.169 -0.2196 -0.0853  0.2738
 6813TIP3    H141930   2.869   2.950  17.135 -0.5096 -1.7368  0.5203
 6813TIP3    H241931   2.789   3.064  17.194  1.8955 -0.5333  1.6112
 6814TIP3   OH241932   1.260   6.636   2.714  0.4090  0.1501  0.5476
 6814TIP3    H141933   1.219   6.688   2.645  0.4475 -0.4101  0.0926
 6814TIP3    H241934   1.299   6.700   2.773 -0.0956  0.6536  0.3449
 6815TIP3   OH241935   4.705   2.693  13.988 -0.0681  0.1559 -0.3733
 6815TIP3    H141936   4.671   2.677  14.076  1.9766 -1.9566  0.1197
 6815TIP3    H241937   4.764   2.620  13.971  0.2796  0.9753 -3.1745
 6816TIP3   OH241938   3.417   0.509   4.170  0.3191 -0.0938  0.1501
 6816TIP3    H141939   3.370   0.592   4.160 -1.7286 -1.2391 -0.0987
 6816TIP3    H241940   3.482   0.527   4.238  0.6497  1.9966 -0.6425
 6817TIP3   OH241941   2.023   2.346  10.616  0.2529 -0.6633  0.0930
 6817TIP3    H141942   1.931   2.327  10.631  0.0564 -0.1727 -0.4869
 6817TIP3    H241943   2.024   2.434  10.578  0.9167 -0.8899 -0.4278
 6818TIP3   OH241944   6.402   6.541  11.977  0.7282 -0.0533 -0.4821
 6818TIP3    H141945   6.331   6.573  11.921  1.2020 -1.4983 -1.9896
 6818TIP3    H241946   6.359   6.518  12.059 -0.7109 -1.3787 -1.5340
 6819TIP3   OH241947   4.964   3.309   3.922  0.1329 -0.0076  0.3315
 6819TIP3    H141948   4.887   3.358   3.950 -0.7231 -0.9012 -0.3620
 6819TIP3    H241949   5.022   3.375   3.884 -1.4093  0.3970 -1.4790
 6820TIP3   OH241950   6.780   4.925   1.672 -0.0651  0.1095  0.2987
 6820TIP3    H141951   6.798   5.001   1.728 -1.0974  0.3350  0.3604
 6820TIP3    H241952   6.853   4.865   1.688 -0.7006 -0.1853  2.5489
 6821TIP3   OH241953   5.364   1.946   0.119  0.0352 -0.0249  0.1053
 6821TIP3    H141954   5.433   1.942   0.185  1.3670 -1.8460 -1.2780
 6821TIP3    H241955   5.348   1.854   0.096 -4.2898  0.0785  1.6862
 6822TIP3   OH241956   2.955   6.213  13.562  0.7926  0.5917 -0.2065
 6822TIP3    H141957   3.025   6.177  13.508  0.4548  0.8157 -0.8036
 6822TIP3    H241958   2.961   6.165  13.644  1.8831  0.8681 -0.1080
 6823TIP3   OH241959   1.330   1.822   5.530  0.5287  0.0707  0.2292
 6823TIP3    H141960   1.333   1.917   5.542  1.0866  0.2962 -1.5235
 6823TIP3    H241961   1.269   1.809   5.458  1.7336 -0.7588 -0.6831
 6824TIP3   OH241962   2.565   5.455  13.058 -0.1120  0.2759  0.0274
 6824TIP3    H141963   2.571   5.550  13.044  0.8732  0.3809  1.0717
 6824TIP3    H241964   2.476   5.442  13.091 -0.7093  0.6489 -1.3597
 6825TIP3   OH241965   5.652   1.268   4.010  0.2593  0.1536 -0.9519
 6825TIP3    H141966   5.694   1.253   3.925  2.1366  0.6374 -0.1484
 6825TIP3    H241967   5.606   1.351   3.999  1.8479  1.0574 -1.0422
 6826TIP3   OH241968   0.300   4.612   2.420 -0.6235  0.1779  0.3235
 6826TIP3    H141969   0.299   4.647   2.509 -0.3774  2.5670 -0.5323
 6826TIP3    H241970   0.358   4.671   2.372  0.3448 -1.8718 -1.1413
 6827TIP3   OH241971   0.066   4.134  16.793  0.4373 -0.4391  0.4090
 6827TIP3    H141972   0.094   4.090  16.874  0.7969 -2.3188 -0.6877
 6827TIP3    H241973   0.129   4.205  16.782  1.5050 -1.2833  0.8301
 6828TIP3   OH241974   3.699   4.943   5.282  0.0598 -0.6070  0.6368
 6828TIP3    H141975   3.606   4.936   5.300 -0.0766  2.0224  1.3078
 6828TIP3    H241976   3.741   4.928   5.366  0.1000  0.2564  0.7789
 6829TIP3   OH241977   2.478   5.722  10.952  0.0613  0.0402  0.1050
 6829TIP3    H141978   2.384   5.723  10.937  0.2064 -0.2547 -0.8695
 6829TIP3    H241979   2.492   5.647  11.010 -0.4435  0.8933  1.3905
 6830TIP3   OH241980   6.711   2.202  16.430 -0.5654 -0.3837  0.6767
 6830TIP3    H141981   6.628   2.156  16.428  0.3277 -2.0789 -1.2860
 6830TIP3    H241982   6.692   2.289  16.395 -1.2602 -1.3261 -1.4447
 6831TIP3   OH241983   0.629   5.978   3.838 -0.3472  0.4442  0.3342
 6831TIP3    H141984   0.544   6.016   3.816 -0.4705  0.0649  0.1601
 6831TIP3    H241985   0.660   5.940   3.756 -0.8674 -1.1127  0.8446
 6832TIP3   OH241986   0.715   0.958  16.093  1.0898 -0.0202 -0.5765
 6832TIP3    H141987   0.639   0.961  16.035  0.1011 -2.2397  0.5014
 6832TIP3    H241988   0.752   0.871  16.080  0.8080 -0.6141  2.0673
 6833TIP3   OH241989   1.162   2.748  13.280 -0.3239  0.4685  0.5929
 6833TIP3    H141990   1.238   2.786  13.323 -0.5100  1.2206  0.2709
 6833TIP3    H241991   1.198   2.693  13.211 -0.0536  0.1200  1.0069
 6834TIP3   OH241992   4.888   6.012   2.245  0.0003  0.0481 -0.1511
 6834TIP3    H141993   4.827   6.003   2.318  1.4447 -0.2680  1.0668
 6834TIP3    H241994   4.837   5.989   2.168 -1.2852 -0.6750  0.8783
 6835TIP3   OH241995   2.228   1.114   3.595 -0.0591  0.1254  0.4666
 6835TIP3    H141996   2.212   1.023   3.619  1.8328 -0.3344  0.1935
 6835TIP3    H241997   2.201   1.120   3.504 -3.4262  0.8157  1.3586
 6836TIP3   OH241998   1.805   6.238  13.821  0.4961  0.4253 -0.0153
 6836TIP3    H141999   1.874   6.172  13.819 -1.8507 -2.2329 -2.0778
 6836TIP3    H242000   1.726   6.189  13.846 -1.5621  2.2047 -2.5069
 6837TIP3   OH242001   5.006   0.371   3.582 -0.1119  0.4460  0.6755
 6837TIP3    H142002   4.919   0.333   3.578  0.3066 -0.4578 -2.5158
 6837TIP3    H242003   5.055   0.313   3.640 -0.5645 -1.6702 -0.9488
 6838TIP3   OH242004   5.046   3.167   3.180 -0.4327 -0.2055 -0.3388
 6838TIP3    H142005   5.127   3.140   3.223  1.6211  0.5209 -3.4295
 6838TIP3    H242006   5.056   3.261   3.165 -1.7547 -0.1326 -0.9635
 6839TIP3   OH242007   2.724   3.056  13.663  0.8227  0.3552  0.3915
 6839TIP3    H142008   2.732   2.974  13.711 -1.8696 -1.2883 -1.6789
 6839TIP3    H242009   2.799   3.057  13.604  1.0403 -0.4714  0.6428
 6840TIP3   OH242010   3.572   4.901  13.298  0.4523 -0.1709  0.1894
 6840TIP3    H142011   3.585   4.948  13.216  2.3402 -0.9426 -0.0083
 6840TIP3    H242012   3.618   4.818  13.285  1.6618  0.0942  2.3625
 6841TIP3   OH242013   1.882   6.707   2.470  0.2082 -0.2336 -0.4998
 6841TIP3    H142014   1.825   6.726   2.545 -0.7153 -0.1498 -1.2070
 6841TIP3    H242015   1.963   6.673   2.509 -0.2502 -0.1660  0.5317
 6842TIP3   OH242016   1.281   1.475  16.985  0.4584  0.2504  0.0679
 6842TIP3    H142017   1.349   1.529  16.947 -0.8562  1.8306 -0.1513
 6842TIP3    H242018   1.204   1.533  16.991 -0.1658 -0.6873  2.6329
 6843TIP3   OH242019   0.290   0.516  17.008  0.7006 -0.2831  0.3404
 6843TIP3    H142020   0.262   0.534  17.098  0.1542 -0.8099  0.2851
 6843TIP3    H242021   0.365   0.574  16.994 -1.6498  2.8597 -0.2330
 6844TIP3   OH242022   2.020   5.976  14.344  0.6034  0.3229  0.2323
 6844TIP3    H142023   2.111   5.965  14.371  0.5188 -0.3966  0.2225
 6844TIP3    H242024   1.975   5.898  14.376  0.6061 -0.8607 -2.4638
 6845TIP3   OH242025   5.800   4.572  14.153  0.4238  0.1040  0.2168
 6845TIP3    H142026   5.740   4.630  14.201  1.8471  1.8718 -0.0070
 6845TIP3    H242027   5.858   4.537  14.221 -0.6754 -1.4217  0.4029
 6846TIP3   OH242028   1.657   1.917  15.899  0.5576 -0.1350 -0.6754
 6846TIP3    H142029   1.580   1.876  15.938  1.3549  1.0479  2.4143
 6846TIP3    H242030   1.715   1.843  15.880  0.2895 -0.7885  0.8528
 6847TIP3   OH242031   3.596   4.268  16.654  0.4073 -0.1419 -0.4152
 6847TIP3    H142032   3.633   4.356  16.659 -2.2127  1.0401 -0.2135
 6847TIP3    H242033   3.661   4.218  16.603  1.7699  1.9893 -0.9281
 6848TIP3   OH242034   0.437   1.976   2.927 -0.5586  0.7481 -0.1494
 6848TIP3    H142035   0.483   2.059   2.911  0.7763  0.0458 -0.0988
 6848TIP3    H242036   0.345   1.998   2.917 -0.2499  2.2900  0.0621
 6849TIP3   OH242037   3.821   4.499  16.073  0.8708  0.0168 -0.3899
 6849TIP3    H142038   3.802   4.577  16.022  1.0612  0.7369  0.6054
 6849TIP3    H242039   3.879   4.529  16.143 -1.3228 -0.3426  1.7598
 6850TIP3   OH242040   3.047   4.093  14.024 -0.5177  0.3843 -0.3902
 6850TIP3    H142041   3.065   4.060  13.936  1.8654 -0.6935  0.4023
 6850TIP3    H242042   3.129   4.135  14.050 -1.0245  0.3109  1.4597
 6851TIP3   OH242043   6.304   2.325   3.001  0.1141 -0.4104 -0.0580
 6851TIP3    H142044   6.364   2.250   2.999  0.1383 -0.3978  0.1271
 6851TIP3    H242045   6.248   2.314   2.925 -0.4959 -1.1250  0.4772
 6852TIP3   OH242046   6.314   0.335   1.717 -0.7972 -0.4939 -0.0372
 6852TIP3    H142047   6.301   0.414   1.770  1.2890 -1.6537  2.4353
 6852TIP3    H242048   6.237   0.281   1.736  0.7297 -1.7119  3.6648
 6853TIP3   OH242049   2.575   0.956  15.836  0.2383  0.0166 -0.0315
 6853TIP3    H142050   2.523   0.894  15.785 -1.5190  1.2030  0.2122
 6853TIP3    H242051   2.644   0.984  15.776 -0.2458 -0.5370 -0.8798
 6854TIP3   OH242052   4.469   4.589   1.185  0.5981  0.4334 -0.1643
 6854TIP3    H142053   4.545   4.567   1.239  0.1184  0.5866  0.5904
 6854TIP3    H242054   4.419   4.650   1.239 -1.9911 -2.4398  0.9892
 6855TIP3   OH242055   4.376   3.627  16.640  0.5655 -0.2934  0.0300
 6855TIP3    H142056   4.297   3.650  16.690 -0.3964 -0.3137 -1.4270
 6855TIP3    H242057   4.416   3.710  16.618  0.7786 -0.2723  0.4771
 6856TIP3   OH242058   0.927   4.279  11.142  0.3477 -0.1990 -0.4089
 6856TIP3    H142059   0.954   4.274  11.050  0.8938  0.3252 -0.2814
 6856TIP3    H242060   0.864   4.351  11.145  0.6960  0.0985 -0.2829
 6857TIP3   OH242061   4.130   5.552  11.217 -0.3964 -0.4696  0.5163
 6857TIP3    H142062   4.113   5.627  11.274 -1.0745 -0.1288 -0.1252
 6857TIP3    H242063   4.069   5.485  11.247 -0.6943 -0.3192  0.2498
 6858TIP3   OH242064   1.142   4.141   2.302 -0.4315  0.6214  0.2531
 6858TIP3    H142065   1.059   4.117   2.342 -0.8231  3.5004  1.3743
 6858TIP3    H242066   1.208   4.113   2.365 -0.7391  0.9065  0.7052
 6859TIP3   OH242067   6.332   4.608   0.094  0.1817  0.1171  0.2306
 6859TIP3    H142068   6.410   4.598   0.149  0.4419  0.7849 -0.0014
 6859TIP3    H242069   6.269   4.655   0.150 -0.0955 -0.5137  0.4528
 6860TIP3   OH242070   3.577   3.327   0.386 -0.0272 -0.5022  0.1266
 6860TIP3    H142071   3.583   3.297   0.476  0.3792 -2.3980 -0.4760
 6860TIP3    H242072   3.508   3.273   0.347  0.2329 -0.1546 -0.8449
 6861TIP3   OH242073   5.564   0.714   0.081 -0.0851  0.1046  0.3641
 6861TIP3    H142074   5.657   0.703   0.061 -0.4816 -2.4276 -0.4260
 6861TIP3    H242075   5.525   0.747  -0.001 -0.2987 -1.7724 -0.3515
 6862TIP3   OH242076   0.498   0.202  12.957  0.1377 -0.7192  0.4836
 6862TIP3    H142077   0.486   0.289  12.997  1.8068 -1.1347  1.9840
 6862TIP3    H242078   0.414   0.185  12.914 -0.0819  1.8425 -0.3183
 6863TIP3   OH242079   6.198   5.061  12.595  0.0797  0.0937 -0.0823
 6863TIP3    H142080   6.171   4.969  12.587 -0.6593  0.3709 -0.9064
 6863TIP3    H242081   6.133   5.109  12.545 -0.0010  1.1583  1.0061
 6864TIP3   OH242082   4.499   2.633   5.676 -0.0078  0.3233 -0.4123
 6864TIP3    H142083   4.438   2.560   5.661 -1.9874  2.1727 -1.9540
 6864TIP3    H242084   4.540   2.613   5.760 -0.3525 -2.6261 -0.8428
 6865TIP3   OH242085   4.741   5.010  15.585  0.4518  0.1390  0.2424
 6865TIP3    H142086   4.748   5.093  15.537 -1.4989  0.1611 -0.1124
 6865TIP3    H242087   4.766   4.944  15.521 -0.0241  0.3208 -0.1382
 6866TIP3   OH242088   0.941   2.086  14.288  0.3427  0.5658  0.2894
 6866TIP3    H142089   0.858   2.116  14.326 -0.1371  0.0628 -0.3456
 6866TIP3    H242090   0.934   2.108  14.195  0.8960  0.4484  0.2183
 6867TIP3   OH242091   2.318   4.837  10.681  0.3090  0.3001  0.3443
 6867TIP3    H142092   2.324   4.848  10.586  2.6566  0.1360  0.4107
 6867TIP3    H242093   2.225   4.823  10.698 -0.0838 -0.3724 -2.0135
 6868TIP3   OH242094   1.138   6.504   5.542 -0.5502 -0.1067  0.7844
 6868TIP3    H142095   1.103   6.453   5.615 -0.6859  0.7398  1.3320
 6868TIP3    H242096   1.183   6.577   5.584  1.4226 -0.8559  0.0751
 6869TIP3   OH242097   5.051   4.583  10.618 -0.0423 -0.1439  0.0290
 6869TIP3    H142098   5.083   4.671  10.602 -0.5847 -0.1864 -1.4337
 6869TIP3    H242099   5.014   4.586  10.706 -1.9575  1.6902 -0.7527
 6870TIP3   OH242100   2.607   4.300   3.527 -0.3039 -0.0567 -0.6212
 6870TIP3    H142101   2.519   4.263   3.519  0.4628 -1.7983 -1.6551
 6870TIP3    H242102   2.612   4.367   3.459 -0.7254 -0.1878 -0.7836
 6871TIP3   OH242103   5.699   2.946  12.297  0.2703  0.2325 -0.7088
 6871TIP3    H142104   5.661   3.007  12.234  0.8657  1.1993 -0.1549
 6871TIP3    H242105   5.778   2.989  12.328 -0.0304 -0.1893  0.7472
 6872TIP3   OH242106   6.529   6.165  11.344 -0.0788 -0.1398 -0.2065
 6872TIP3    H142107   6.447   6.117  11.337 -1.0736  1.1362  1.7645
 6872TIP3    H242108   6.539   6.181  11.438  0.0796  3.5853 -0.7174
 6873TIP3   OH242109   1.870   2.602   0.672  0.1616 -0.2547 -0.0813
 6873TIP3    H142110   1.944   2.610   0.732  0.8301  1.1176 -1.0326
 6873TIP3    H242111   1.814   2.676   0.692 -0.2944 -0.5531 -0.2412
 6874TIP3   OH242112   3.823   0.849  16.181 -0.4462 -0.2590 -0.3939
 6874TIP3    H142113   3.813   0.824  16.090 -0.5108 -1.1435 -0.1485
 6874TIP3    H242114   3.845   0.942  16.178 -2.6645  0.2955 -1.2046
 6875TIP3   OH242115   5.520   6.061   3.272  0.4066  0.1253 -0.1788
 6875TIP3    H142116   5.490   6.042   3.183 -1.5174 -0.0432  0.4648
 6875TIP3    H242117   5.447   6.108   3.313  1.4194  0.5818  1.1865
 6876TIP3   OH242118   0.959   0.552   3.343  0.2830  0.1580  0.6721
 6876TIP3    H142119   1.028   0.618   3.356  0.1460  0.8314 -1.5524
 6876TIP3    H242120   0.878   0.602   3.346  0.1926  0.2374 -1.3667
 6877TIP3   OH242121   1.575   5.805  14.763  0.2546 -0.4235 -0.4661
 6877TIP3    H142122   1.558   5.803  14.669  0.2860  1.0074 -0.5274
 6877TIP3    H242123   1.596   5.715  14.786 -1.1399 -1.0622 -1.5647
 6878TIP3   OH242124   6.433   0.059   4.039  0.1532 -0.5937  0.0559
 6878TIP3    H142125   6.460   0.036   3.950  0.5399 -0.8941  0.2486
 6878TIP3    H242126   6.339   0.076   4.032 -0.0477 -1.7343 -0.2063
 6879TIP3   OH242127   3.682   0.882  12.001 -0.2111 -0.5983 -0.0643
 6879TIP3    H142128   3.635   0.930  11.933  0.4004 -0.1122 -0.1627
 6879TIP3    H242129   3.772   0.875  11.967  0.4363  0.8032  1.2258
 6880TIP3   OH242130   3.836   6.780  16.362 -0.3655  0.3854  0.1765
 6880TIP3    H142131   3.928   6.774  16.386 -0.1648  1.7264 -0.1735
 6880TIP3    H242132   3.794   6.706  16.406  0.8881 -0.2721  0.2808
 6881TIP3   OH242133   5.540   1.768   3.443 -0.1916 -0.0974  0.2121
 6881TIP3    H142134   5.521   1.812   3.526 -0.6045 -0.5875  0.3768
 6881TIP3    H242135   5.633   1.744   3.450 -0.1317  0.1716  0.3835
 6882TIP3   OH242136   1.806   5.654  15.030 -0.1607 -0.1652  0.3855
 6882TIP3    H142137   1.721   5.671  14.990 -0.2695 -0.0616  0.6601
 6882TIP3    H242138   1.786   5.607  15.110 -0.1447  1.8510  1.6477
 6883TIP3   OH242139   4.427   3.089   1.139  0.4624  0.3941  0.0425
 6883TIP3    H142140   4.346   3.096   1.189  0.4249 -0.7391  0.1732
 6883TIP3    H242141   4.441   3.176   1.103 -0.4053  0.7960  0.6465
 6884TIP3   OH242142   6.624   1.727  11.852 -0.1770  0.0336 -0.1278
 6884TIP3    H142143   6.642   1.815  11.884  1.5532 -0.8457  1.4781
 6884TIP3    H242144   6.569   1.687  11.920 -1.1727 -0.0809 -0.9671
 6885TIP3   OH242145   3.048   5.533   2.458  0.0247 -0.3685 -0.3119
 6885TIP3    H142146   3.056   5.549   2.364  1.1570  2.4129  0.1542
 6885TIP3    H242147   3.133   5.560   2.495 -0.9102  0.1229  1.6470
 6886TIP3   OH242148   0.146   6.197   1.512  0.0994  0.1244  0.1271
 6886TIP3    H142149   0.203   6.205   1.589  0.2143  0.0127  0.0552
 6886TIP3    H242150   0.059   6.181   1.549  0.1347  0.1806  0.2366
 6887TIP3   OH242151   3.898   4.956   2.864  0.4732 -0.0588  0.1314
 6887TIP3    H142152   3.872   4.992   2.780  1.1411  1.0885  0.3911
 6887TIP3    H242153   3.911   4.862   2.848 -3.4883 -0.7578 -0.0759
 6888TIP3   OH242154   4.233   0.736  15.604  0.0537 -0.1506 -0.4621
 6888TIP3    H142155   4.209   0.762  15.515 -0.0059 -0.1950 -0.4589
 6888TIP3    H242156   4.267   0.816  15.644 -2.2579  0.5115  0.3075
 6889TIP3   OH242157   1.714   5.602  13.753  0.1826  0.2394 -0.4884
 6889TIP3    H142158   1.767   5.591  13.832 -1.0754 -0.0552  0.3463
 6889TIP3    H242159   1.624   5.595  13.784 -0.3314 -0.1558 -1.9989
 6890TIP3   OH242160   1.751   5.053   3.127  0.0954  0.2781 -0.3927
 6890TIP3    H142161   1.811   5.119   3.160 -0.3906  1.7206 -2.1802
 6890TIP3    H242162   1.807   4.989   3.082  0.3873  1.0976 -1.2223
 6891TIP3   OH242163   6.394   2.638  12.737 -0.1855  0.4137 -0.0296
 6891TIP3    H142164   6.354   2.703  12.794  0.4421  0.3224  0.5404
 6891TIP3    H242165   6.364   2.554  12.772 -0.2447  0.3716 -0.1815
 6892TIP3   OH242166   4.907   1.279   1.784 -0.2247 -0.4179  0.0079
 6892TIP3    H142167   4.918   1.339   1.857 -0.3654  1.0324 -1.1343
 6892TIP3    H242168   4.996   1.260   1.755 -0.1040 -1.8204  1.1501
 6893TIP3   OH242169   5.680   6.376  14.122  0.5607  0.2366 -0.8181
 6893TIP3    H142170   5.751   6.323  14.084  0.7615  0.3551 -0.6097
 6893TIP3    H242171   5.721   6.421  14.195 -0.0892 -0.8770  0.2726
 6894TIP3   OH242172   0.241   0.099  12.746 -0.3835 -0.2272  0.6151
 6894TIP3    H142173   0.247   0.055  12.661  1.7157  2.6851 -0.9150
 6894TIP3    H242174   0.149   0.121  12.756 -0.4821  0.5454 -1.5932
 6895TIP3   OH242175   4.364   5.631   5.212 -0.0068  0.1246  0.0406
 6895TIP3    H142176   4.368   5.675   5.128 -1.1467 -0.4178 -0.3152
 6895TIP3    H242177   4.372   5.538   5.191  2.2721  0.0871  0.7692
 6896TIP3   OH242178   4.711   2.354   5.507 -0.0205  0.1875  0.9929
 6896TIP3    H142179   4.649   2.289   5.539  0.1955 -0.7837 -0.4803
 6896TIP3    H242180   4.698   2.356   5.412  2.5121 -0.4256  0.5532
 6897TIP3   OH242181   3.712   2.866  11.237  0.0865 -0.6733 -0.4964
 6897TIP3    H142182   3.749   2.953  11.255  0.4232 -0.5153 -1.8317
 6897TIP3    H242183   3.619   2.876  11.256  0.4196 -0.5958  1.2619
 6898TIP3   OH242184   0.649   1.228  16.188  0.7435 -0.3056 -0.0930
 6898TIP3    H142185   0.706   1.265  16.256  0.6513  1.1896 -0.7868
 6898TIP3    H242186   0.669   1.135  16.188 -0.0122 -0.5736  2.7179
 6899TIP3   OH242187   6.719   3.754  12.999  0.2020  0.9649  0.2003
 6899TIP3    H142188   6.711   3.669  13.043 -0.7053  1.7482  1.6161
 6899TIP3    H242189   6.782   3.739  12.929  0.9732 -0.5725  1.1766
 6900TIP3   OH242190   6.144   6.809   2.253 -0.9113  0.8212 -0.0499
 6900TIP3    H142191   6.236   6.812   2.279 -0.2141  0.4344 -2.2429
 6900TIP3    H242192   6.098   6.864   2.317  0.7305  0.5019  1.4555
 6901TIP3   OH242193   0.375   5.509  13.366 -0.6960  0.1444  0.4240
 6901TIP3    H142194   0.451   5.467  13.326 -0.9569 -1.8759  1.9242
 6901TIP3    H242195   0.384   5.601  13.341  0.7909 -0.4683 -1.6212
 6902TIP3   OH242196   0.355   3.239   3.766 -0.4005  0.6714  0.7681
 6902TIP3    H142197   0.328   3.223   3.675  1.9441  0.5884  0.0155
 6902TIP3    H242198   0.309   3.172   3.817 -1.4320  0.4525 -0.3949
 6903TIP3   OH242199   4.163   0.234   3.333 -0.0109 -0.2058  0.8493
 6903TIP3    H142200   4.170   0.164   3.399  1.0570 -1.5746 -0.6507
 6903TIP3    H242201   4.142   0.188   3.252 -0.1538  1.3279 -0.0100
 6904TIP3   OH242202   5.855   4.522   6.531 -0.3411 -0.2083 -0.8138
 6904TIP3    H142203   5.810   4.438   6.524 -0.6541 -0.2976  1.5192
 6904TIP3    H242204   5.813   4.577   6.465 -1.4088 -1.3345 -1.1074
 6905TIP3   OH242205   2.290   0.279  12.135 -0.3466  0.3818 -0.0511
 6905TIP3    H142206   2.284   0.338  12.060 -0.0923 -0.7813 -1.0263
 6905TIP3    H242207   2.372   0.231  12.121  0.0716  0.6426  1.3694
 6906TIP3   OH242208   4.078   3.585   4.394  0.2045  0.0862  0.0471
 6906TIP3    H142209   4.037   3.623   4.317  2.0376  1.5679 -0.2780
 6906TIP3    H242210   4.085   3.657   4.456 -0.6631 -0.9393  1.3829
 6907TIP3   OH242211   4.209   4.123  13.297 -0.1533 -0.5779  0.3995
 6907TIP3    H142212   4.216   4.178  13.375  2.1432 -0.7789  0.4212
 6907TIP3    H242213   4.290   4.142  13.248 -0.5021 -2.0822 -0.8396
 6908TIP3   OH242214   5.130   0.036   5.524 -0.1965  0.1140 -0.1857
 6908TIP3    H142215   5.207   0.035   5.581 -0.2682  0.6971 -0.0642
 6908TIP3    H242216   5.060  -0.002   5.576 -0.1334  0.1533 -0.0731
 6909TIP3   OH242217   6.763   0.973   4.674  0.2004 -0.1032  0.8199
 6909TIP3    H142218   6.843   1.011   4.637 -0.7764  1.1869 -0.0646
 6909TIP3    H242219   6.703   0.967   4.600 -0.6338 -0.7461  1.5290
 6910TIP3   OH242220   5.334   0.509   6.782  0.1114 -0.0520  0.2637
 6910TIP3    H142221   5.362   0.420   6.805 -0.1515 -0.3519 -0.5365
 6910TIP3    H242222   5.372   0.524   6.695 -1.8130 -0.3177 -0.6830
 6911TIP3   OH242223   3.889   3.421   0.571  0.6835  0.3124 -0.1892
 6911TIP3    H142224   3.823   3.485   0.544 -1.1096 -1.3310  0.1082
 6911TIP3    H242225   3.966   3.443   0.519 -0.4876  1.5282 -1.5066
 6912TIP3   OH242226   5.128   0.580   3.732 -0.1124 -0.1517  0.0050
 6912TIP3    H142227   5.107   0.525   3.656 -0.5737  0.3668 -0.2459
 6912TIP3    H242228   5.072   0.546   3.802  1.4199 -1.6648  0.5939
 6913TIP3   OH242229   5.349   3.472   2.958  0.5718 -0.3146 -0.5568
 6913TIP3    H142230   5.399   3.465   2.876  1.3262  0.3897 -0.1734
 6913TIP3    H242231   5.363   3.563   2.986 -0.6102 -0.2165 -0.2338
 6914TIP3   OH242232   6.088   3.212   3.268 -0.5065 -0.8441  0.5116
 6914TIP3    H142233   6.109   3.296   3.227 -1.0221 -1.1483 -0.4133
 6914TIP3    H242234   6.038   3.165   3.201 -2.8616 -0.7221  2.0671
 6915TIP3   OH242235   4.690   6.685  10.962 -0.0478 -0.2915 -0.6043
 6915TIP3    H142236   4.641   6.722  11.035  0.3812  2.6421 -1.6525
 6915TIP3    H242237   4.623   6.644  10.907 -0.7136 -0.2730  0.1711
 6916TIP3   OH242238   1.989   5.621   2.849 -0.2851  0.0570  0.2252
 6916TIP3    H142239   1.982   5.584   2.761 -1.0971 -0.5007  0.5138
 6916TIP3    H242240   1.998   5.545   2.906  3.9454  0.4473  0.3895
 6917TIP3   OH242241   1.420   4.821  13.115 -0.5301 -0.7175 -0.2396
 6917TIP3    H142242   1.497   4.857  13.158 -0.4794 -0.3234 -0.6502
 6917TIP3    H242243   1.347   4.840  13.174 -0.2958 -1.1957  0.2033
 6918TIP3   OH242244   3.323   2.888  12.906  0.5182  0.4755  0.5975
 6918TIP3    H142245   3.308   2.938  12.825 -0.1376 -0.2602  0.2438
 6918TIP3    H242246   3.418   2.885  12.915  0.6232  0.1057 -0.4628
 6919TIP3   OH242247   3.685   6.584  15.505 -0.9275  0.4382  0.1950
 6919TIP3    H142248   3.696   6.489  15.516  0.2586  0.4957 -0.4015
 6919TIP3    H242249   3.689   6.598  15.410  2.1398  1.4205  0.3741
 6920TIP3   OH242250   2.357   1.451  17.154 -0.0114 -0.0660  0.4414
 6920TIP3    H142251   2.279   1.419  17.107  1.4338 -1.8842 -0.8822
 6920TIP3    H242252   2.336   1.541  17.178 -2.5208 -0.5027  0.1608
 6921TIP3   OH242253   0.726   5.860   2.360 -0.5677  0.0014 -0.0530
 6921TIP3    H142254   0.713   5.909   2.441  1.7314  1.0717 -0.2447
 6921TIP3    H242255   0.730   5.769   2.388  0.3088  0.3606  1.1034
 6922TIP3   OH242256   2.636   3.631  16.050  0.5604  0.7663 -0.9381
 6922TIP3    H142257   2.692   3.696  16.094  1.3393 -0.4099 -0.1376
 6922TIP3    H242258   2.547   3.666  16.058  0.9248  1.5431 -0.1870
 6923TIP3   OH242259   3.125   2.721  15.195 -0.6241 -0.3988  0.1672
 6923TIP3    H142260   3.174   2.717  15.112  0.1876  0.9634  0.5456
 6923TIP3    H242261   3.193   2.730  15.262 -1.1917 -2.6685  1.1417
 6924TIP3   OH242262   4.478   1.726  13.261 -0.0308 -0.4622 -0.4811
 6924TIP3    H142263   4.563   1.715  13.220 -0.4934 -0.7002 -1.4029
 6924TIP3    H242264   4.496   1.726  13.355  1.0726  0.3168 -0.6792
 6925TIP3   OH242265   0.690   1.765   3.593  0.1108  0.3175 -0.2206
 6925TIP3    H142266   0.621   1.746   3.528 -0.9552 -0.0485  0.9728
 6925TIP3    H242267   0.731   1.680   3.610  1.3029  0.6354 -1.3789
 6926TIP3   OH242268   0.509   4.530  12.818  0.0779  0.1584 -0.3122
 6926TIP3    H142269   0.512   4.435  12.823  2.8010  0.0901 -1.3645
 6926TIP3    H242270   0.548   4.560  12.900  1.1840  0.2542 -0.8443
 6927TIP3   OH242271   3.578   0.657  12.518  0.1870  0.3467  0.3717
 6927TIP3    H142272   3.672   0.664  12.503  0.4263  0.7908  1.8882
 6927TIP3    H242273   3.539   0.684  12.435  1.3647 -1.6571 -0.9243
 6928TIP3   OH242274   5.584   6.673   3.812 -0.1920  0.4494 -0.0092
 6928TIP3    H142275   5.560   6.702   3.724 -0.7522  0.7966  0.2480
 6928TIP3    H242276   5.640   6.597   3.798 -2.4033 -1.1808 -0.6625
 6929TIP3   OH242277   2.243   5.570   5.282  0.1845 -0.2812  0.7041
 6929TIP3    H142278   2.208   5.494   5.235  0.2912 -1.2265  2.0960
 6929TIP3    H242279   2.165   5.617   5.313  0.1107  0.4488 -0.5382
 6930TIP3   OH242280   5.064   4.863   5.936 -0.3800 -0.1781 -0.0476
 6930TIP3    H142281   5.059   4.845   6.030 -1.4608  0.6526  0.0805
 6930TIP3    H242282   5.143   4.918   5.927 -0.4339 -0.0134  0.4223
 6931TIP3   OH242283   0.208   6.424   3.834  0.2357  0.0342  0.8320
 6931TIP3    H142284   0.284   6.482   3.840  0.3165  0.5848 -2.9925
 6931TIP3    H242285   0.133   6.483   3.832  0.1685 -0.0655 -0.9435
 6932TIP3   OH242286   6.198   5.349   6.261  0.5851  0.1255  0.2245
 6932TIP3    H142287   6.190   5.273   6.319 -0.6651  0.4429  0.4873
 6932TIP3    H242288   6.108   5.376   6.244  0.9784  3.0279  2.0502
 6933TIP3   OH242289   5.436   6.139  15.895 -0.0429 -0.5381  0.4350
 6933TIP3    H142290   5.366   6.089  15.937 -0.1777 -0.1758  0.6441
 6933TIP3    H242291   5.397   6.170  15.813  0.6261 -2.3553 -0.6329
 6934TIP3   OH242292   4.427   1.664   2.070  0.2796  0.3995 -0.1997
 6934TIP3    H142293   4.440   1.595   2.135 -1.0536  1.4862  1.2955
 6934TIP3    H242294   4.382   1.621   1.998 -0.5469 -0.2944  0.7123
 6935TIP3   OH242295   2.244   1.792  14.455 -0.0513 -0.0763  0.2349
 6935TIP3    H142296   2.251   1.721  14.519 -0.3820 -1.0205 -0.7612
 6935TIP3    H242297   2.191   1.756  14.385  0.9060  0.6970 -0.9203
 6936TIP3   OH242298   2.223   0.301   2.340  0.1625  0.4120 -0.0208
 6936TIP3    H142299   2.309   0.258   2.343 -0.1557 -0.2898 -0.6300
 6936TIP3    H242300   2.170   0.246   2.283 -0.1948  1.7430 -1.0394
 6937TIP3   OH242301   5.980   5.217  11.908 -0.0431  1.1824 -0.6576
 6937TIP3    H142302   5.929   5.143  11.940 -1.1536  2.3668  0.3919
 6937TIP3    H242303   6.050   5.176  11.857 -1.1018 -0.5497 -0.8232
 6938TIP3   OH242304   1.219   2.230   2.938 -0.5643  0.5143 -0.0776
 6938TIP3    H142305   1.238   2.164   2.871 -1.0438  0.1554  0.1318
 6938TIP3    H242306   1.203   2.310   2.888 -1.4325  0.1325 -0.4418
 6939TIP3   OH242307   5.654   2.701   5.815 -0.4641 -0.1999 -0.5674
 6939TIP3    H142308   5.596   2.772   5.788 -1.2847 -0.7545 -0.3222
 6939TIP3    H242309   5.720   2.696   5.747 -0.6488  0.5159 -0.8037
 6940TIP3   OH242310   3.638   3.774   3.283  0.4879  0.4414 -0.1573
 6940TIP3    H142311   3.708   3.717   3.315  2.1093  1.2323 -2.0582
 6940TIP3    H242312   3.619   3.832   3.356  0.9327 -0.5908  0.8081
 6941TIP3   OH242313   2.437   1.094   5.719  0.2286 -0.2583 -0.0115
 6941TIP3    H142314   2.423   1.100   5.624  0.5450 -2.3991 -0.2424
 6941TIP3    H242315   2.530   1.078   5.729  0.4225  1.2197  0.7683
 6942TIP3   OH242316   4.123   4.221  17.074 -0.6267 -0.5847  0.1469
 6942TIP3    H142317   4.184   4.148  17.071  1.2206  0.6186  3.1198
 6942TIP3    H242318   4.166   4.291  17.024 -2.1467 -1.2400 -2.2485
 6943TIP3   OH242319   3.533   4.350   2.219 -0.0761  0.5185  0.2485
 6943TIP3    H142320   3.464   4.416   2.225 -0.2872  0.2829  0.4301
 6943TIP3    H242321   3.587   4.365   2.297 -0.9933 -0.4940  1.1026
 6944TIP3   OH242322   2.586   5.491   1.094  0.0359 -0.2917  0.2752
 6944TIP3    H142323   2.585   5.399   1.123  0.3744 -0.4772 -0.2782
 6944TIP3    H242324   2.649   5.534   1.151  2.5680 -1.1746 -1.6478
 6945TIP3   OH242325   0.249   1.804   4.718 -0.5007  0.8244 -0.0615
 6945TIP3    H142326   0.216   1.829   4.804  1.2415  0.9763  0.5885
 6945TIP3    H242327   0.202   1.861   4.657 -1.7135  0.7514  0.7730
 6946TIP3   OH242328   1.441   1.036   1.412  0.9064 -0.2725 -0.0634
 6946TIP3    H142329   1.433   1.070   1.323  0.4488  0.4440  0.2430
 6946TIP3    H242330   1.534   1.043   1.432  1.1442 -1.1566 -0.7474
 6947TIP3   OH242331   2.743   2.180  16.868 -0.2905 -0.2208  0.5650
 6947TIP3    H142332   2.765   2.245  16.934  1.1502 -0.2827  0.1679
 6947TIP3    H242333   2.707   2.106  16.917 -2.6956  1.1109  0.9725
 6948TIP3   OH242334   4.547   6.359   5.179 -0.4779  0.2200 -0.2841
 6948TIP3    H142335   4.615   6.299   5.210 -0.1411  1.4821  1.5765
 6948TIP3    H242336   4.556   6.359   5.084  0.7360 -1.2307 -0.2021
 6949TIP3   OH242337   3.833   2.553   5.901 -0.1895  0.2358  0.3321
 6949TIP3    H142338   3.892   2.627   5.917 -1.2096  1.2477 -0.4782
 6949TIP3    H242339   3.757   2.571   5.956 -0.0951 -0.6719  0.7848
 6950TIP3   OH242340   0.833   1.142   1.158  0.4364 -0.3382 -0.4368
 6950TIP3    H142341   0.763   1.115   1.098 -2.5507  0.6906  2.2426
 6950TIP3    H242342   0.853   1.232   1.132 -1.9198  0.6436  0.7998
 6951TIP3   OH242343   3.888   6.243  11.111 -0.1624  0.0224 -0.3156
 6951TIP3    H142344   3.894   6.314  11.174  1.3179 -0.3064 -0.0453
 6951TIP3    H242345   3.975   6.236  11.073 -0.7374 -0.4981 -1.6300
 6952TIP3   OH242346   0.015   4.557  16.400  0.2215  0.0396 -0.2297
 6952TIP3    H142347  -0.066   4.510  16.381 -0.3229  0.6757  0.4521
 6952TIP3    H242348  -0.013   4.641  16.437  1.1660  0.8704 -1.3036
 6953TIP3   OH242349   2.439   5.387  13.840  0.6545 -0.6932  0.4168
 6953TIP3    H142350   2.423   5.450  13.910  1.0226 -1.7764  1.5244
 6953TIP3    H242351   2.488   5.436  13.774 -1.4304  0.8912 -0.0551
 6954TIP3   OH242352   0.925   3.843   2.077 -0.2322  0.2247 -0.0476
 6954TIP3    H142353   0.905   3.830   1.984  1.4994 -0.3268 -0.3701
 6954TIP3    H242354   0.849   3.891   2.111 -1.4959 -0.6824 -1.4432
 6955TIP3   OH242355   1.136   3.924   6.001  0.0293  0.5663  0.6502
 6955TIP3    H142356   1.045   3.895   5.993  0.2955 -0.7684  2.0210
 6955TIP3    H242357   1.179   3.854   6.049  2.1645  0.4525 -1.2822
 6956TIP3   OH242358   0.556   0.083   4.516  0.0545  0.7378  0.8259
 6956TIP3    H142359   0.616   0.100   4.444 -2.2820 -0.2463 -1.5611
 6956TIP3    H242360   0.606   0.030   4.578  1.3700 -1.0694 -1.6007
 6957TIP3   OH242361   0.299   6.093  13.778  0.0372  0.3144  0.2952
 6957TIP3    H142362   0.218   6.079  13.826 -0.4143  0.7546 -0.3087
 6957TIP3    H242363   0.346   6.159  13.829 -0.0998  0.2406  0.5192
 6958TIP3   OH242364   6.766   5.453   2.841 -0.1551 -0.2838  0.0605
 6958TIP3    H142365   6.795   5.366   2.869  0.7868  0.0282  0.0674
 6958TIP3    H242366   6.844   5.508   2.847 -0.0739 -0.0255 -2.5179
 6959TIP3   OH242367   1.466   0.335  13.173 -0.2323 -0.0904 -0.5432
 6959TIP3    H142368   1.478   0.420  13.131 -0.3008  0.3719  0.3609
 6959TIP3    H242369   1.527   0.335  13.247 -0.6004 -0.6240 -0.2292
 6960TIP3   OH242370   6.785   3.726   4.174  0.3770  0.1058 -0.7443
 6960TIP3    H142371   6.815   3.652   4.226 -0.4819 -0.7628 -1.4447
 6960TIP3    H242372   6.832   3.802   4.209 -0.3803 -0.3913  1.4756
 6961TIP3   OH242373   1.429   0.622  15.070 -0.2052  0.3273 -0.1599
 6961TIP3    H142374   1.376   0.627  14.990 -0.6160  1.5444  0.1683
 6961TIP3    H242375   1.439   0.713  15.098 -1.0714 -0.1359  1.8245
 6962TIP3   OH242376   2.433   1.895   5.515  0.6164  0.2469  0.2117
 6962TIP3    H142377   2.516   1.879   5.560  1.0101  2.4930  0.4179
 6962TIP3    H242378   2.389   1.961   5.569 -0.2233  0.8570 -1.1647
 6963TIP3   OH242379   1.100   0.340   4.988 -0.2963  0.9344 -0.5656
 6963TIP3    H142380   1.099   0.278   4.915 -0.9799  1.5451 -1.0851
 6963TIP3    H242381   1.019   0.322   5.036  0.0772  0.6394 -0.0356
 6964TIP3   OH242382   3.539   0.138   1.753 -0.4522  0.3105 -0.3029
 6964TIP3    H142383   3.552   0.207   1.688 -2.0348  0.5003 -0.4745
 6964TIP3    H242384   3.567   0.058   1.709  0.6013  0.7149 -0.4003
 6965TIP3   OH242385   2.947   1.744   2.195  0.1397  0.5795 -0.1645
 6965TIP3    H142386   2.899   1.816   2.154 -0.2808  0.2765 -0.2155
 6965TIP3    H242387   2.942   1.673   2.130 -1.7934 -0.4054  0.9543
 6966TIP3   OH242388   5.532   6.542   1.492  0.2738  0.3540 -0.4153
 6966TIP3    H142389   5.552   6.551   1.399  1.5950 -2.0789 -0.4347
 6966TIP3    H242390   5.606   6.494   1.529 -2.7949 -4.3082  0.6038
 6967TIP3   OH242391   4.132   6.391  13.188 -0.3002  0.8701 -0.0233
 6967TIP3    H142392   4.220   6.396  13.225 -0.1237 -0.5139 -0.1963
 6967TIP3    H242393   4.074   6.413  13.261  0.0778 -1.0790  0.9353
 6968TIP3   OH242394   3.083   3.489  10.443  0.2465 -0.4561  0.3687
 6968TIP3    H142395   3.008   3.429  10.452  1.9574 -2.5686  1.4480
 6968TIP3    H242396   3.112   3.477  10.352  0.4660 -1.1143  0.5248
 6969TIP3   OH242397   0.501   3.700  15.482  0.1362  0.3134 -0.7969
 6969TIP3    H142398   0.437   3.649  15.532 -1.2194  1.7679 -0.9771
 6969TIP3    H242399   0.547   3.636  15.428 -0.5933 -0.8617 -0.0554
 6970TIP3   OH242400   3.667   6.373   4.083  0.9808 -0.1490 -0.0261
 6970TIP3    H142401   3.578   6.365   4.118  1.7617 -0.9307  1.9306
 6970TIP3    H242402   3.671   6.308   4.013  0.1535 -0.4203  0.1632
 6971TIP3   OH242403   6.066   0.101  11.707  0.1855  0.5607  0.8764
 6971TIP3    H142404   6.006   0.070  11.639 -0.2787  0.3790  1.3661
 6971TIP3    H242405   6.014   0.099  11.787  0.4302  1.7242  1.0729
 6972TIP3   OH242406   2.454   6.246  16.339 -0.1985 -0.1202 -0.1250
 6972TIP3    H142407   2.527   6.282  16.389 -0.1879 -0.5369  0.1704
 6972TIP3    H242408   2.490   6.167  16.299 -0.6284 -0.6248  0.4630
 6973TIP3   OH242409   3.951   1.411  14.864  0.1981 -0.0440  0.2990
 6973TIP3    H142410   4.025   1.393  14.921 -0.2639 -0.5131  0.7631
 6973TIP3    H242411   3.874   1.383  14.914 -0.1689 -1.0551 -0.7773
 6974TIP3   OH242412   4.503   5.207  13.012 -0.6143 -0.1206 -0.1870
 6974TIP3    H142413   4.502   5.112  13.007  0.4933 -0.1549  0.0927
 6974TIP3    H242414   4.507   5.236  12.921  0.7972 -0.3851 -0.2210
 6975TIP3   OH242415   2.954   1.678  16.887  0.1368  0.6298  0.5891
 6975TIP3    H142416   2.955   1.605  16.825 -1.6625  1.4112 -0.4226
 6975TIP3    H242417   2.904   1.747  16.843  1.0202  2.1610  1.8881
 6976TIP3   OH242418   6.471   5.518   1.906  0.1200  0.2399 -0.9830
 6976TIP3    H142419   6.418   5.477   1.838 -0.8423  1.0034 -0.7129
 6976TIP3    H242420   6.479   5.452   1.974 -1.7222  0.5761 -0.3822
 6977TIP3   OH242421   2.578   4.052   1.805  0.6471  0.1513 -0.0385
 6977TIP3    H142422   2.555   4.006   1.886  1.6551  2.6792  1.8282
 6977TIP3    H242423   2.663   4.092   1.824  0.7130  1.1730 -2.2203
 6978TIP3   OH242424   3.912   6.431   1.171  0.0299 -0.7367 -0.3327
 6978TIP3    H142425   3.989   6.376   1.157  0.3720 -0.2642 -0.3467
 6978TIP3    H242426   3.947   6.510   1.213 -0.3730 -0.3196 -0.7702
 6979TIP3   OH242427   0.117   1.648   2.295 -0.4176  0.1079 -0.2274
 6979TIP3    H142428   0.062   1.723   2.316 -0.5601 -0.3229  1.0354
 6979TIP3    H242429   0.058   1.584   2.256 -0.3553  0.5199 -1.0143
 6980TIP3   OH242430   5.610   2.071  11.481 -0.0392 -0.0096  0.1011
 6980TIP3    H142431   5.693   2.107  11.515 -0.2492  1.3215 -0.7563
 6980TIP3    H242432   5.550   2.076  11.556  0.4376 -0.3240  0.5195
 6981TIP3   OH242433   0.324   6.259  16.114  0.4350 -0.4009 -0.4545
 6981TIP3    H142434   0.376   6.182  16.138 -2.7818 -2.5863  0.0825
 6981TIP3    H242435   0.248   6.256  16.171 -0.5141  2.4464 -1.3906
 6982TIP3   OH242436   1.591   1.610   5.139 -0.5341  0.1756 -0.1815
 6982TIP3    H142437   1.506   1.610   5.096 -0.3188  1.6494 -0.6450
 6982TIP3    H242438   1.572   1.633   5.230 -0.8985 -2.1884  0.4248
 6983TIP3   OH242439   4.349   3.121   4.563 -0.1165  0.6772  0.7326
 6983TIP3    H142440   4.274   3.180   4.570 -1.6778 -0.9839 -0.8276
 6983TIP3    H242441   4.347   3.071   4.645  1.0525  2.4762  1.9402
 6984TIP3   OH242442   0.489   3.989  16.178 -0.3824  0.2261 -0.6739
 6984TIP3    H142443   0.536   3.936  16.114 -1.7498 -1.5244 -0.2994
 6984TIP3    H242444   0.516   3.955  16.263  0.8618  2.0466 -0.2858
 6985TIP3   OH242445   5.569   3.848  16.553  0.3374  0.3506 -0.6318
 6985TIP3    H142446   5.626   3.899  16.496  1.2986 -0.7444 -0.6919
 6985TIP3    H242447   5.596   3.872  16.642 -0.6852  1.5350 -0.6203
 6986TIP3   OH242448   3.424   4.013  16.523 -0.4633  0.1343  0.6425
 6986TIP3    H142449   3.410   3.933  16.472  0.7631 -1.0896  2.1186
 6986TIP3    H242450   3.512   4.041  16.500 -0.9342  1.1812  0.0328
 6987TIP3   OH242451   0.708   5.910   2.927 -0.3249 -0.5246 -0.1155
 6987TIP3    H142452   0.703   5.974   2.998 -0.2844 -0.0422 -0.5375
 6987TIP3    H242453   0.635   5.851   2.943 -0.4134 -0.3249  0.2383
 6988TIP3   OH242454   1.092   5.160   4.077  0.4619 -0.6002  0.3936
 6988TIP3    H142455   1.036   5.083   4.079 -0.9452  0.2428 -1.9569
 6988TIP3    H242456   1.173   5.129   4.035  0.5096 -1.1015  0.8392
 6989TIP3   OH242457   5.821   6.349   4.878  0.6358 -0.3365  0.0963
 6989TIP3    H142458   5.753   6.354   4.945 -1.6101 -3.0661 -1.7591
 6989TIP3    H242459   5.882   6.283   4.910  0.6736 -0.1903  0.3290
 6990TIP3   OH242460   2.220   0.779   4.625  0.5541 -0.1198 -0.0935
 6990TIP3    H142461   2.213   0.874   4.611  1.4990 -0.1015 -0.5419
 6990TIP3    H242462   2.274   0.748   4.552 -0.3710 -1.1321 -0.3804
 6991TIP3   OH242463   3.558   1.376  14.424 -0.4059  0.0881 -0.0335
 6991TIP3    H142464   3.581   1.379  14.517 -1.8887 -0.1614  0.3679
 6991TIP3    H242465   3.470   1.412  14.420 -0.3796  0.0521 -1.3468
 6992TIP3   OH242466   1.257   4.595   5.171  0.3015  0.3244 -0.1183
 6992TIP3    H142467   1.265   4.508   5.132  0.0188  0.2452 -0.0019
 6992TIP3    H242468   1.342   4.611   5.211  0.5244  0.3177 -0.5799
 6993TIP3   OH242469   4.492   4.059   6.579  0.2799  0.3196 -0.4484
 6993TIP3    H142470   4.556   3.998   6.544  0.6306  0.9389 -0.9080
 6993TIP3    H242471   4.537   4.144   6.579 -0.3350  0.6543 -0.2110
 6994TIP3   OH242472   2.765   5.848   1.964 -0.8138  0.1127 -0.2030
 6994TIP3    H142473   2.682   5.805   1.944 -0.5032 -0.5788 -0.0282
 6994TIP3    H242474   2.804   5.866   1.878 -0.8611 -0.1196 -0.2735
 6995TIP3   OH242475   3.907   4.047  15.931  0.0565 -0.1376 -0.2574
 6995TIP3    H142476   3.965   3.973  15.916 -0.1177 -0.3386  0.0498
 6995TIP3    H242477   3.965   4.122  15.941  0.2810 -0.3771  0.2880
 6996TIP3   OH242478   3.687   3.896   4.681  0.6554 -0.6764  0.2306
 6996TIP3    H142479   3.732   3.901   4.596 -0.0907 -2.0471 -0.2678
 6996TIP3    H242480   3.722   3.817   4.722 -0.1789 -0.9189  0.4864
 6997TIP3   OH242481   0.493   6.805  16.557 -0.1625  0.3885  0.4114
 6997TIP3    H142482   0.542   6.727  16.531  0.4989  0.9169  0.0222
 6997TIP3    H242483   0.536   6.836  16.637 -0.0616  0.6669  0.2530
 6998TIP3   OH242484   2.047   4.068  15.596  0.4910  0.5690  0.2063
 6998TIP3    H142485   1.968   4.045  15.547  1.2613  1.5980 -1.6464
 6998TIP3    H242486   2.107   3.995  15.582 -0.0524 -0.1587  1.5167
 6999TIP3   OH242487   0.334   0.835   5.485  0.0605  0.1347  0.0037
 6999TIP3    H142488   0.340   0.742   5.461  1.4744  0.2565 -0.2039
 6999TIP3    H242489   0.425   0.864   5.493 -0.2650  2.1498 -2.4410
 7000TIP3   OH242490   4.474   6.822  13.082  0.1857 -0.5822  0.6058
 7000TIP3    H142491   4.418   6.893  13.114  2.0157  0.0728  2.5414
 7000TIP3    H242492   4.432   6.795  13.000 -1.3331  1.8019  0.4775
 7001TIP3   OH242493   6.643   5.029  10.375 -1.1543  0.2356 -0.1717
 7001TIP3    H142494   6.732   5.044  10.408 -1.5836  0.6018  0.8721
 7001TIP3    H242495   6.610   4.957  10.428 -1.5764  0.2808 -0.3717
 7002TIP3   OH242496   1.644   5.693  11.276  0.3361 -0.1175 -0.2104
 7002TIP3    H142497   1.642   5.612  11.326 -0.7249 -0.6768 -1.1178
 7002TIP3    H242498   1.663   5.761  11.340  1.2224 -1.0685  0.5662
 7003TIP3   OH242499   0.037   6.306   4.098 -0.4771 -0.3228  0.2132
 7003TIP3    H142500   0.125   6.343   4.100 -0.4455 -0.2027 -1.9301
 7003TIP3    H242501  -0.021   6.383   4.100 -0.4153 -0.0080 -3.6944
 7004TIP3   OH242502   2.615   1.479  14.690 -0.2336  0.1078 -0.0992
 7004TIP3    H142503   2.616   1.411  14.758 -0.0995 -0.0575 -0.2626
 7004TIP3    H242504   2.705   1.513  14.691 -0.0426 -0.3542 -0.6429
 7005TIP3   OH242505   4.437   4.360   3.326  0.3136  0.1805 -0.1194
 7005TIP3    H142506   4.346   4.387   3.339  0.3057  0.1180 -0.0403
 7005TIP3    H242507   4.484   4.441   3.306  0.5001  0.4302  1.2255
 7006TIP3   OH242508   4.943   3.616   0.365 -0.4841 -0.5456  0.7124
 7006TIP3    H142509   4.863   3.667   0.354 -0.8029 -0.9793  0.9624
 7006TIP3    H242510   4.940   3.551   0.295 -0.3491 -0.5584  0.7183
 7007TIP3   OH242511   0.065   1.237   4.668  0.0344  0.0782  0.3646
 7007TIP3    H142512   0.053   1.239   4.763  0.7838 -1.5678  0.5309
 7007TIP3    H242513   0.160   1.234   4.657  0.3006  4.7779 -0.6376
 7008TIP3   OH242514   3.838   1.118   6.612 -0.1868 -0.5221  0.3530
 7008TIP3    H142515   3.820   1.208   6.582 -0.7256 -0.6433  0.2892
 7008TIP3    H242516   3.767   1.066   6.575 -0.2548 -0.8644  0.9414
 7009TIP3   OH242517   6.291   6.464   1.162  0.5620 -0.0134 -0.2092
 7009TIP3    H142518   6.359   6.424   1.107  0.8234 -0.0602  0.1460
 7009TIP3    H242519   6.337   6.535   1.207 -0.2755  1.9425 -2.2251
 7010TIP3   OH242520   1.329   0.927   4.818 -0.5065  0.4911  0.3483
 7010TIP3    H142521   1.278   0.847   4.801  1.6580 -1.2329  1.4890
 7010TIP3    H242522   1.263   0.992   4.842 -2.3424 -0.9814 -0.3769
 7011TIP3   OH242523   2.010   1.920  10.755 -0.1428 -0.3072 -0.1189
 7011TIP3    H142524   2.055   1.942  10.836  0.7121  2.5746 -1.2153
 7011TIP3    H242525   2.080   1.901  10.693 -0.5293  1.0602 -1.0301
 7012TIP3   OH242526   2.246   3.762  14.102 -0.0736 -0.2160  0.0581
 7012TIP3    H142527   2.214   3.819  14.171 -0.0505 -1.8547  1.4796
 7012TIP3    H242528   2.339   3.785  14.092 -0.0987  0.0811  0.5198
 7013TIP3   OH242529   6.553   5.151  14.585 -0.5622 -0.7160 -0.4908
 7013TIP3    H142530   6.528   5.195  14.504 -1.4664 -2.4239 -1.1802
 7013TIP3    H242531   6.608   5.078  14.557  0.6644 -0.2648  0.6034
 7014TIP3   OH242532   6.075   6.640  15.536 -0.0934 -0.7583  0.1358
 7014TIP3    H142533   6.063   6.545  15.542  0.2676 -0.7037  3.1017
 7014TIP3    H242534   5.992   6.677  15.565 -0.4485 -0.1066 -1.6022
 7015TIP3   OH242535   2.947   6.515  14.726  0.9920  0.0992 -0.0464
 7015TIP3    H142536   3.022   6.572  14.708  0.9242  0.2861  0.2585
 7015TIP3    H242537   2.986   6.429  14.742  1.2624  0.4618  1.4134
 7016TIP3   OH242538   5.890   0.835  13.562 -0.5302  0.2303  0.0372
 7016TIP3    H142539   5.885   0.782  13.641 -2.5157  1.8966  1.1275
 7016TIP3    H242540   5.818   0.898  13.571  0.9069  2.2613 -1.7832
 7017TIP3   OH242541   3.116   4.595   4.381  0.2421 -0.0537  0.5629
 7017TIP3    H142542   3.148   4.519   4.332 -0.0426  0.9840 -1.3402
 7017TIP3    H242543   3.145   4.580   4.471 -1.0408 -3.1111  0.5898
 7018TIP3   OH242544   1.714   3.292  11.083 -0.2179  0.2983  0.0940
 7018TIP3    H142545   1.804   3.261  11.070 -0.5587 -0.8907  0.4653
 7018TIP3    H242546   1.709   3.372  11.031  1.0400  0.3575  0.0300
 7019TIP3   OH242547   1.859   2.238  10.973 -0.1844  0.1082  0.2458
 7019TIP3    H142548   1.896   2.150  10.975 -0.3097  0.0195 -0.6786
 7019TIP3    H242549   1.773   2.227  10.930  0.4711  0.8892 -1.3673
 7020TIP3   OH242550   3.681   5.641  13.736  0.3397 -0.1972 -0.7549
 7020TIP3    H142551   3.643   5.695  13.805 -0.5441 -0.4917 -1.0043
 7020TIP3    H242552   3.657   5.551  13.759 -0.2145 -0.2701 -1.6008
 7021TIP3   OH242553   1.315   4.224  14.221  1.1303  0.1410 -0.2703
 7021TIP3    H142554   1.344   4.183  14.303  1.7172  0.3454 -0.3741
 7021TIP3    H242555   1.287   4.151  14.166  0.4580  0.0229  0.2170
 7022TIP3   OH242556   4.249   5.575  10.961 -0.2251  0.7074 -1.0415
 7022TIP3    H142557   4.208   5.569  11.047 -0.6883 -1.3461 -1.3709
 7022TIP3    H242558   4.188   5.626  10.908 -0.6155  0.7413 -0.5624
 7023TIP3   OH242559   0.644   4.425   0.936  0.1399 -0.0330  0.1603
 7023TIP3    H142560   0.666   4.336   0.910 -0.3523  0.0702 -0.6134
 7023TIP3    H242561   0.621   4.470   0.855  0.2437  0.7618  0.5587
 7024TIP3   OH242562   6.625   4.025   1.886 -0.2026 -0.2867 -0.3482
 7024TIP3    H142563   6.698   3.975   1.849  2.3123  1.5939  1.7005
 7024TIP3    H242564   6.589   3.969   1.954 -0.4356 -1.0840 -1.1187
 7025TIP3   OH242565   1.724   2.744  14.201  0.3342  0.7481 -0.4337
 7025TIP3    H142566   1.754   2.654  14.186  1.4562  1.1176 -0.5387
 7025TIP3    H242567   1.789   2.781  14.261 -0.2224  1.4340 -0.2404
 7026TIP3   OH242568   6.515   3.907  12.578  0.4471  0.6933  0.5677
 7026TIP3    H142569   6.465   3.967  12.634  0.0537  0.2624  0.6846
 7026TIP3    H242570   6.529   3.829  12.633 -0.3766  0.0675 -0.0918
 7027TIP3   OH242571   1.704   2.940  10.537  0.5777  0.4582 -0.1557
 7027TIP3    H142572   1.672   2.993  10.610 -0.8225 -0.7215  0.1438
 7027TIP3    H242573   1.664   2.980  10.459  0.2295  0.3618 -0.0269
 7028TIP3   OH242574   4.100   0.980   5.622  0.1232 -0.2000  0.3741
 7028TIP3    H142575   4.089   1.057   5.567 -1.7788 -0.3346  0.4912
 7028TIP3    H242576   4.117   1.016   5.710 -2.9603  0.2471  0.9019
 7029TIP3   OH242577   0.402   0.454   1.543 -0.2263 -0.0203  0.0452
 7029TIP3    H142578   0.352   0.518   1.492  0.0520  0.2670  0.1289
 7029TIP3    H242579   0.452   0.507   1.606 -1.1340 -0.4137  1.1281
 7030TIP3   OH242580   2.107   1.348   0.114  0.3040  0.1602 -0.0721
 7030TIP3    H142581   2.080   1.394   0.034 -0.0922  0.3121  0.1422
 7030TIP3    H242582   2.044   1.276   0.123  0.1318  0.3496  0.2840
 7031TIP3   OH242583   2.909   3.356  12.050 -0.0496 -0.5246  0.1035
 7031TIP3    H142584   2.953   3.301  12.114  0.3952  0.8400  1.0351
 7031TIP3    H242585   2.966   3.432  12.040 -2.3012  1.5752  1.7384
 7032TIP3   OH242586   0.113   4.291  11.833  0.8453 -0.0222  0.4512
 7032TIP3    H142587   0.049   4.344  11.787  1.3283 -0.5302 -0.8665
 7032TIP3    H242588   0.074   4.273  11.918 -1.0709 -0.8749 -0.5494
 7033TIP3   OH242589   6.484   6.571   1.352 -0.0530  0.3878 -0.6074
 7033TIP3    H142590   6.510   6.503   1.414  2.6915  1.2105 -0.7176
 7033TIP3    H242591   6.476   6.651   1.405 -2.6076  0.1975 -0.5869
 7034TIP3   OH242592   5.670   5.181   1.029  0.2607  0.2556  0.0694
 7034TIP3    H142593   5.753   5.153   0.992 -0.5156 -0.4919 -1.1861
 7034TIP3    H242594   5.689   5.266   1.069  1.6867 -0.0594  0.0946
 7035TIP3   OH242595   5.232   5.686  14.061  0.4434  0.3591 -0.6265
 7035TIP3    H142596   5.194   5.615  14.010 -0.8210  0.3253  0.3125
 7035TIP3    H242597   5.312   5.649  14.097  0.0068 -0.4740 -0.4770
 7036TIP3   OH242598   6.344   6.360   2.625 -0.3024  0.3682 -0.1664
 7036TIP3    H142599   6.299   6.378   2.707 -0.4970 -0.2234 -0.1433
 7036TIP3    H242600   6.314   6.273   2.599  0.0909  0.3697 -0.6433
 7037TIP3   OH242601   0.539   2.633  10.871 -0.6707 -0.5341 -0.4161
 7037TIP3    H142602   0.522   2.698  10.803 -1.4906 -0.0752  0.2087
 7037TIP3    H242603   0.621   2.591  10.844  1.0368  2.1867  0.2382
 7038TIP3   OH242604   5.973   2.808   0.223 -0.1749  0.3140 -0.1181
 7038TIP3    H142605   5.900   2.867   0.204  1.2683  1.8350 -1.1786
 7038TIP3    H242606   5.987   2.760   0.141 -2.1357 -2.5473  1.0763
 7039TIP3   OH242607   5.199   3.263   4.869 -0.5089  0.2550  0.5548
 7039TIP3    H142608   5.180   3.170   4.882  1.1681  0.0684  1.9965
 7039TIP3    H242609   5.271   3.281   4.929  0.1124  2.1749 -0.6974
 7040TIP3   OH242610   2.364   0.533   0.693  0.2063  0.1412 -0.4078
 7040TIP3    H142611   2.336   0.611   0.741  1.6280  0.7319 -0.4859
 7040TIP3    H242612   2.411   0.568   0.618 -0.9450 -0.7929 -1.6063
 7041TIP3   OH242613   3.914   2.207  16.435 -0.5937 -0.1340 -0.1459
 7041TIP3    H142614   3.989   2.239  16.384 -0.7281 -2.1288 -1.7216
 7041TIP3    H242615   3.909   2.266  16.510  2.5873  0.0224  0.0492
 7042TIP3   OH242616   4.244   4.104   1.920  0.5114 -0.1280 -0.2900
 7042TIP3    H142617   4.247   4.026   1.975  2.6896 -0.2608 -0.5233
 7042TIP3    H242618   4.262   4.177   1.980 -1.0802  0.2025 -0.1547
 7043TIP3   OH242619   1.728   6.473  12.070  0.1940 -0.1134  0.1369
 7043TIP3    H142620   1.715   6.555  12.022 -0.2750 -1.0416 -1.3955
 7043TIP3    H242621   1.713   6.496  12.162  0.0279  1.4928 -0.2623
 7044TIP3   OH242622   3.677   1.323   2.026 -0.6732 -0.1964  0.3946
 7044TIP3    H142623   3.746   1.325   2.092 -0.0934  0.2199 -0.2108
 7044TIP3    H242624   3.596   1.339   2.075 -0.2301  0.3383  0.9666
 7045TIP3   OH242625   4.753   0.898  15.784 -0.6114  0.0505 -0.1393
 7045TIP3    H142626   4.730   0.810  15.813 -0.2418 -0.0510 -0.1611
 7045TIP3    H242627   4.759   0.892  15.689 -3.0201  0.6504 -0.3980
 7046TIP3   OH242628   0.921   5.120   0.092  0.1301 -0.4368  0.7845
 7046TIP3    H142629   0.943   5.160   0.176 -1.3762 -0.4123  1.2059
 7046TIP3    H242630   0.914   5.027   0.110 -2.1771 -0.2551  1.2272
 7047TIP3   OH242631   5.033   0.276   2.198  0.1380 -0.3114  0.1811
 7047TIP3    H142632   5.055   0.269   2.291 -1.2515 -0.6548  0.5137
 7047TIP3    H242633   5.041   0.186   2.165 -0.5362 -0.4108  0.2685
 7048TIP3   OH242634   4.723   3.698  10.395  0.0701 -0.5848 -0.4759
 7048TIP3    H142635   4.800   3.655  10.360 -0.1509 -2.3766  1.0769
 7048TIP3    H242636   4.650   3.662  10.345  0.1843  1.1392 -1.9714
 7049TIP3   OH242637   2.123   3.359  14.926  0.2591 -0.0834  0.2498
 7049TIP3    H142638   2.177   3.425  14.969 -1.3553  2.6796 -1.6242
 7049TIP3    H242639   2.034   3.379  14.953 -0.3341 -1.1470 -0.8104
 7050TIP3   OH242640   0.892   3.289   0.422  0.8123 -0.6009  0.0520
 7050TIP3    H142641   0.903   3.280   0.327  0.7911  0.7058 -0.1005
 7050TIP3    H242642   0.800   3.315   0.433  0.6518 -1.3245  0.4860
 7051TIP3   OH242643   0.318   6.269  15.209 -0.3271 -0.0313  0.4398
 7051TIP3    H142644   0.279   6.328  15.274  0.6888  0.4078  0.6560
 7051TIP3    H242645   0.306   6.181  15.246 -0.2765  0.1715  0.9385
 7052TIP3   OH242646   5.594   5.546   3.243  0.5391 -0.0905 -0.4472
 7052TIP3    H142647   5.619   5.637   3.261  2.3192 -0.7265  0.5045
 7052TIP3    H242648   5.564   5.546   3.152  1.6354  1.2339 -0.8351
 7053TIP3   OH242649   3.044   4.262  13.014 -0.0434 -0.3423  0.0552
 7053TIP3    H142650   3.050   4.258  13.110 -0.2539  0.0371  0.0884
 7053TIP3    H242651   3.122   4.309  12.986  0.2907 -0.9272 -0.0037
 7054TIP3   OH242652   6.488   6.831   5.656  0.7419 -0.2271  0.3973
 7054TIP3    H142653   6.465   6.753   5.605  0.8199 -0.2925  0.4628
 7054TIP3    H242654   6.583   6.826   5.666  0.8658  0.3597 -0.3913
 7055TIP3   OH242655   5.216   6.390   0.464 -0.1443  0.3143 -0.4124
 7055TIP3    H142656   5.210   6.378   0.369 -1.3836 -0.3444 -0.2864
 7055TIP3    H242657   5.228   6.301   0.498 -1.1009  0.3681  0.1065
 7056TIP3   OH242658   0.197   3.196  11.269  0.0495 -0.2255 -0.0371
 7056TIP3    H142659   0.212   3.229  11.181 -0.7210  0.4270  0.0552
 7056TIP3    H242660   0.247   3.255  11.326 -0.1634 -0.1013  0.0229
 7057TIP3   OH242661   4.290   2.720  14.041  0.5550 -0.3625 -0.5810
 7057TIP3    H142662   4.236   2.753  14.113 -0.4978  0.2854 -1.6271
 7057TIP3    H242663   4.314   2.632  14.068  0.9264  0.1574  0.9507
 7058TIP3   OH242664   4.283   1.694   2.968  0.6280  0.1589 -0.2781
 7058TIP3    H142665   4.243   1.644   3.039  1.2833 -0.0871 -0.0696
 7058TIP3    H242666   4.229   1.676   2.891  1.0912 -1.2161 -0.3041
 7059TIP3   OH242667   5.040   5.517   6.008  0.1718 -0.3694  0.6760
 7059TIP3    H142668   5.033   5.565   6.091  2.5396 -0.1859  0.8278
 7059TIP3    H242669   4.950   5.512   5.976 -0.3082  4.1305  0.7018
 7060TIP3   OH242670   5.341   1.616   1.734  0.7519 -0.1235 -0.4553
 7060TIP3    H142671   5.353   1.569   1.652  0.1723  0.7865 -1.0828
 7060TIP3    H242672   5.253   1.592   1.763 -0.1534  1.6711 -1.5532
 7061TIP3   OH242673   1.305   6.449  12.105  0.1624 -0.4359  0.1529
 7061TIP3    H142674   1.215   6.416  12.101 -0.3025  0.9044 -1.9513
 7061TIP3    H242675   1.298   6.532  12.152  0.3647 -0.4420  0.1951
 7062TIP3   OH242676   2.893   5.126  12.349  0.1509  0.1713  0.5214
 7062TIP3    H142677   2.881   5.113  12.443  1.9231 -2.0301  0.5139
 7062TIP3    H242678   2.807   5.109  12.311 -1.3004  3.6411  1.8516
 7063TIP3   OH242679   4.570   0.151   1.268 -0.5287 -0.8009 -0.0506
 7063TIP3    H142680   4.507   0.192   1.209 -0.3667 -0.3079  0.1120
 7063TIP3    H242681   4.588   0.218   1.335 -0.8444 -1.4091  0.6635
 7064TIP3   OH242682   6.162   4.721  14.303  0.5034  0.2643 -0.3793
 7064TIP3    H142683   6.136   4.798  14.354  0.3255  0.6528 -1.0465
 7064TIP3    H242684   6.187   4.756  14.218 -1.1657 -0.5490 -1.2552
 7065TIP3   OH242685   3.524   4.547  14.295  1.0617  0.4765  0.2514
 7065TIP3    H142686   3.566   4.480  14.242 -0.6409  0.1879 -0.8286
 7065TIP3    H242687   3.438   4.510  14.316  0.8405  1.5210  1.3321
 7066TIP3   OH242688   0.648   0.504  14.650  0.0778 -0.7196 -0.5363
 7066TIP3    H142689   0.588   0.478  14.719 -0.4826 -0.9476 -1.0977
 7066TIP3    H242690   0.669   0.422  14.604  0.5968 -0.6021 -0.5188
 7067TIP3   OH242691   1.522   6.629   5.175 -0.0682  0.3803 -0.1773
 7067TIP3    H142692   1.492   6.652   5.087  0.8910  0.0889 -0.5912
 7067TIP3    H242693   1.568   6.546   5.164  0.4345  0.5565  0.5234
 7068TIP3   OH242694   6.352   1.412  13.512  0.0639  0.6251  0.2786
 7068TIP3    H142695   6.370   1.496  13.470  0.6141 -0.1057 -1.0057
 7068TIP3    H242696   6.345   1.350  13.440  1.7263 -0.8067  1.2717
 7069TIP3   OH242697   3.256   5.117   6.006  0.2021  0.2598  0.2624
 7069TIP3    H142698   3.285   5.039   6.053 -3.3211 -2.3832 -1.4372
 7069TIP3    H242699   3.169   5.135   6.042  0.3956  2.7076 -0.3016
 7070TIP3   OH242700   4.645   0.380  12.029 -0.0332 -0.3025 -0.1272
 7070TIP3    H142701   4.648   0.393  12.123 -0.6040  0.2324 -0.1784
 7070TIP3    H242702   4.578   0.313  12.016  0.4538 -0.8078 -0.1224
 7071TIP3   OH242703   0.559   6.196  12.127 -0.1271  0.3659 -0.3713
 7071TIP3    H142704   0.506   6.232  12.056 -0.4036  0.8994  0.0970
 7071TIP3    H242705   0.545   6.101  12.121 -2.5624  0.5564  0.7806
 7072TIP3   OH242706   0.742   4.926  15.942 -0.5033 -0.4974 -0.3410
 7072TIP3    H142707   0.662   4.969  15.973 -0.6944  0.7888 -2.4007
 7072TIP3    H242708   0.711   4.846  15.898 -0.6000 -0.3662 -0.5135
 7073TIP3   OH242709   0.954   3.197  11.381 -0.3327  0.5278 -0.0111
 7073TIP3    H142710   0.963   3.286  11.415 -2.5771  1.1127 -0.7366
 7073TIP3    H242711   1.038   3.178  11.339  1.1250  1.2335  2.4211
 7074TIP3   OH242712   1.077   0.733   1.114 -0.7641 -0.8086  0.0170
 7074TIP3    H142713   1.036   0.818   1.133 -1.3697 -0.8617 -1.0078
 7074TIP3    H242714   1.004   0.674   1.096 -0.3152 -0.3789 -4.0921
 7075TIP3   OH242715   1.994   1.807  16.856 -0.0341  0.0446 -0.0649
 7075TIP3    H142716   2.070   1.865  16.856  1.5166 -1.8571  0.0098
 7075TIP3    H242717   2.016   1.740  16.791 -1.1969 -1.1059  0.6815
 7076TIP3   OH242718   1.835   0.461   4.936  0.4676 -0.2009  0.1955
 7076TIP3    H142719   1.896   0.503   4.997 -1.6703 -0.1577  2.4894
 7076TIP3    H242720   1.789   0.396   4.989 -2.0237  0.3256 -1.1381
 7077TIP3   OH242721   4.054   0.490  16.916 -0.4584  0.2871 -0.1552
 7077TIP3    H142722   4.119   0.547  16.874  0.6072 -0.7061  0.0961
 7077TIP3    H242723   4.031   0.537  16.996 -0.4093  0.8731 -0.4708
 7078TIP3   OH242724   0.239   4.424  12.902  0.1319  0.0176  0.2741
 7078TIP3    H142725   0.268   4.461  12.818  1.6577 -3.5193 -0.9454
 7078TIP3    H242726   0.168   4.364  12.878 -1.5114  1.1432  2.0145
 7079TIP3   OH242727   5.054   4.276  11.076  0.3449 -0.1519  0.3578
 7079TIP3    H142728   4.999   4.225  11.017  0.2917 -1.9070  1.8307
 7079TIP3    H242729   5.129   4.219  11.095  0.4986  0.4674  1.7543
 7080TIP3   OH242730   3.333   4.889  14.644  0.5685  0.6837 -0.2603
 7080TIP3    H142731   3.355   4.973  14.684  1.3129  0.3761 -0.0022
 7080TIP3    H242732   3.312   4.833  14.719 -1.8114  1.1251 -0.5012
 7081TIP3   OH242733   3.729   1.710   5.959 -0.3454  0.1995 -0.0217
 7081TIP3    H142734   3.681   1.662   6.027 -0.8779  2.0750  1.0138
 7081TIP3    H242735   3.661   1.760   5.913  0.3085  0.9270 -0.2203
 7082TIP3   OH242736   5.575   1.602  11.953 -1.1701  0.0161  0.2486
 7082TIP3    H142737   5.578   1.672  11.888  0.3367  0.4481  0.7564
 7082TIP3    H242738   5.651   1.548  11.934 -1.9077 -1.0797  0.3324
 7083TIP3   OH242739   0.272   5.826  12.927 -0.1493  0.1870  0.1428
 7083TIP3    H142740   0.268   5.734  12.903 -1.4632  0.2333  0.1619
 7083TIP3    H242741   0.313   5.869  12.852  2.2422 -0.6423  0.8772
 7084TIP3   OH242742   5.605   2.464  14.228  0.1581  0.3654 -0.0412
 7084TIP3    H142743   5.641   2.397  14.170 -1.1860  1.2677 -2.0162
 7084TIP3    H242744   5.545   2.514  14.173 -0.5797  1.7980  1.9457
 7085TIP3   OH242745   6.743   3.057  10.797 -0.2861 -0.2256  0.7955
 7085TIP3    H142746   6.719   2.996  10.866  4.8019 -3.4255  0.2611
 7085TIP3    H242747   6.727   3.009  10.716  1.5782  0.0000  0.2470
 7086TIP3   OH242748   5.592   1.557  11.541 -0.0118  0.0969 -0.4176
 7086TIP3    H142749   5.564   1.538  11.451 -1.4324 -1.1957  0.2552
 7086TIP3    H242750   5.532   1.626  11.570  0.6247  0.7109 -0.5278
 7087TIP3   OH242751   2.278   0.233  11.822  0.2362 -0.3275 -0.0245
 7087TIP3    H142752   2.267   0.262  11.731  1.1547 -1.7584 -0.6245
 7087TIP3    H242753   2.287   0.314  11.872  1.4156  0.4693 -1.4369
 7088TIP3   OH242754   0.958   2.933   0.504 -0.2358 -0.3236 -0.3653
 7088TIP3    H142755   1.019   2.969   0.440  0.3271  1.1327  0.9243
 7088TIP3    H242756   1.011   2.872   0.556 -0.4061 -0.6237 -0.5382
 7089TIP3   OH242757   2.644   4.963   6.495  0.7892 -0.1897  0.4370
 7089TIP3    H142758   2.634   5.053   6.462  1.4538 -0.1073  0.4422
 7089TIP3    H242759   2.616   4.968   6.586  0.7587 -0.0001  0.4185
 7090TIP3   OH242760   2.892   2.685  13.598 -0.2508  0.4828 -0.2571
 7090TIP3    H142761   2.944   2.765  13.593  0.7851 -0.1732 -0.2881
 7090TIP3    H242762   2.835   2.687  13.521 -0.1294  1.1131 -0.3315
 7091TIP3   OH242763   3.305   3.460  12.027 -0.0691  0.1665  0.3580
 7091TIP3    H142764   3.388   3.452  11.980 -0.3088  1.1166 -0.2325
 7091TIP3    H242765   3.240   3.479  11.959 -0.4161  1.5700  1.0561
 7092TIP3   OH242766   2.982   2.422  13.615 -0.2340 -0.5066  0.7089
 7092TIP3    H142767   2.960   2.514  13.628 -1.5166 -0.5168 -1.0243
 7092TIP3    H242768   2.965   2.406  13.522  0.7300 -2.3041  0.7948
 7093TIP3   OH242769   2.457   2.672  13.080 -0.2784 -0.0723 -0.1172
 7093TIP3    H142770   2.499   2.746  13.035  0.0221  0.1517  0.5232
 7093TIP3    H242771   2.527   2.608  13.090 -0.9815 -1.3167 -2.4582
 7094TIP3   OH242772   4.478   0.849   2.004  0.2766  0.4542 -0.3295
 7094TIP3    H142773   4.521   0.931   2.028  1.7044 -0.2086 -0.5287
 7094TIP3    H242774   4.538   0.808   1.942 -0.3225 -0.8441 -0.0772
 7095TIP3   OH242775   6.651   2.139   5.842 -0.0967 -0.3715  0.1413
 7095TIP3    H142776   6.646   2.232   5.821  1.5072 -0.2798  0.0140
 7095TIP3    H242777   6.744   2.123   5.856 -0.5081 -1.5907  1.8675
 7096TIP3   OH242778   5.652   0.883  15.800 -0.2148 -0.3971 -0.6984
 7096TIP3    H142779   5.655   0.882  15.704  1.4729  0.0376 -0.6873
 7096TIP3    H242780   5.738   0.852  15.826 -0.8090 -0.9278  0.6998
 7097TIP3   OH242781   3.212   6.738   3.595  0.3888 -0.4393  0.3312
 7097TIP3    H142782   3.218   6.778   3.509 -1.7611  1.0260  0.7952
 7097TIP3    H242783   3.224   6.810   3.656  0.5609 -1.2346  1.2655
 7098TIP3   OH242784   3.808   0.297   4.589 -0.2803 -0.1365  0.2930
 7098TIP3    H142785   3.798   0.209   4.626 -1.9006 -1.1883 -2.3433
 7098TIP3    H242786   3.886   0.292   4.534 -0.8048 -0.2154 -0.4694
 7099TIP3   OH242787   4.348   2.952   4.792 -0.0976  0.8354  0.0270
 7099TIP3    H142788   4.415   2.885   4.805  0.0658  1.1955  1.1477
 7099TIP3    H242789   4.267   2.902   4.776  0.3619  0.3990 -1.0985
 7100TIP3   OH242790   5.368   1.503  15.968 -0.3022  0.6284  0.0385
 7100TIP3    H142791   5.457   1.540  15.967 -0.4962  1.1424  0.7515
 7100TIP3    H242792   5.337   1.520  16.057 -0.7545 -0.4281  0.0908
 7101TIP3   OH242793   4.375   0.302  12.264  0.2338 -0.5704 -0.1848
 7101TIP3    H142794   4.324   0.285  12.185 -0.1603 -0.8389  0.1232
 7101TIP3    H242795   4.315   0.348  12.323  0.3399 -0.9097  0.1914
 7102TIP3   OH242796   1.246   2.869  13.960  0.3404  0.0524 -0.0567
 7102TIP3    H142797   1.321   2.815  13.985  1.0101  0.6961 -0.6450
 7102TIP3    H242798   1.242   2.936  14.028  1.2588  0.9345 -0.8606
 7103TIP3   OH242799   6.356   5.274   1.103 -0.2484 -0.5996  0.2040
 7103TIP3    H142800   6.333   5.242   1.016 -0.6511 -0.5626  0.2955
 7103TIP3    H242801   6.426   5.338   1.087 -0.3356 -0.5779 -0.0925
 7104TIP3   OH242802   3.161   5.451   1.989 -0.5066  0.0609 -0.1343
 7104TIP3    H142803   3.162   5.387   2.060  1.2235  0.7936  0.5754
 7104TIP3    H242804   3.074   5.492   1.995 -1.4348 -1.7989 -0.2634
 7105TIP3   OH242805   5.099   1.513   4.759  0.0548 -0.5006  0.3102
 7105TIP3    H142806   5.032   1.542   4.820 -0.0561  0.7090 -0.3501
 7105TIP3    H242807   5.096   1.417   4.763 -1.1017 -0.4515  0.9418
 7106TIP3   OH242808   3.411   0.710  14.642  0.0729  0.2347  0.2686
 7106TIP3    H142809   3.405   0.770  14.568  0.0853  0.4021  0.4028
 7106TIP3    H242810   3.360   0.634  14.615  0.3636  0.1518 -0.0525
 7107TIP3   OH242811   3.734   3.988   0.735 -0.3634 -0.4328 -0.3886
 7107TIP3    H142812   3.714   4.007   0.827 -1.4022  0.0682 -0.7070
 7107TIP3    H242813   3.697   3.901   0.720 -0.6085 -0.3187 -0.4537
 7108TIP3   OH242814   0.908   3.512  14.150 -0.3637 -0.1063  0.5519
 7108TIP3    H142815   0.929   3.523  14.243 -2.5300  2.4642  0.8583
 7108TIP3    H242816   0.841   3.444  14.149 -1.9165  1.3503  1.1948
 7109TIP3   OH242817   5.767   1.571  14.864  0.3692  0.1165  0.7988
 7109TIP3    H142818   5.714   1.561  14.785 -0.7047  2.2855  1.1721
 7109TIP3    H242819   5.754   1.489  14.912 -1.8526  0.1531  0.3775
 7110TIP3   OH242820   0.119   3.370   0.830  0.4660 -0.0989  0.0866
 7110TIP3    H142821   0.076   3.300   0.781  2.0708 -0.3978 -0.9714
 7110TIP3    H242822   0.047   3.420   0.868 -0.7745 -1.1526 -0.7738
 7111TIP3   OH242823   4.533   2.536  10.504  0.1355  0.2367  0.2647
 7111TIP3    H142824   4.593   2.498  10.441 -0.0956  3.0978 -1.8942
 7111TIP3    H242825   4.450   2.491  10.490  0.5463 -0.3968 -0.1647
 7112TIP3   OH242826   3.071   3.552  12.169 -0.8698 -0.2959  0.1480
 7112TIP3    H142827   3.148   3.497  12.156 -0.0094  0.9638 -0.2221
 7112TIP3    H242828   3.105   3.630  12.213 -2.0431  0.0148  0.5282
 7113TIP3   OH242829   5.460   3.913   4.018  0.2106 -0.0645 -0.4261
 7113TIP3    H142830   5.522   3.873   3.957  0.7811 -1.4623  1.0048
 7113TIP3    H242831   5.380   3.862   4.008 -0.2600  0.7897 -1.1915
 7114TIP3   OH242832   3.146   0.289  15.080 -0.2039  0.1372 -0.0400
 7114TIP3    H142833   3.090   0.359  15.047 -0.1298 -0.2266 -0.9407
 7114TIP3    H242834   3.096   0.251  15.153 -0.3795  0.9088  0.2565
 7115TIP3   OH242835   5.956   1.292   4.095  0.3206 -0.3426  0.3475
 7115TIP3    H142836   6.047   1.318   4.111  0.6079 -0.4669 -1.0155
 7115TIP3    H242837   5.905   1.370   4.117  0.8708  0.1675 -0.1579
 7116TIP3   OH242838   5.846   5.949   3.715 -0.3838  0.4509 -0.2754
 7116TIP3    H142839   5.888   6.016   3.661 -0.3013  0.5197 -0.1239
 7116TIP3    H242840   5.809   5.997   3.789  2.5732 -0.0330  1.6752
 7117TIP3   OH242841   3.858   1.528   4.804 -0.0273 -0.4813 -0.3022
 7117TIP3    H142842   3.819   1.459   4.857 -0.5303  0.3728  0.4645
 7117TIP3    H242843   3.800   1.603   4.815  0.7516  0.2047 -0.7554
 7118TIP3   OH242844   2.040   1.998   2.538  0.0758 -0.8765  0.2726
 7118TIP3    H142845   2.031   2.026   2.629 -0.0012 -2.4080  0.7680
 7118TIP3    H242846   2.089   2.068   2.496 -0.5956  0.2376  1.2966
 7119TIP3   OH242847   1.781   5.658   0.336  0.0228 -0.1690 -0.5023
 7119TIP3    H142848   1.726   5.667   0.414  2.2633  1.3008  1.0288
 7119TIP3    H242849   1.753   5.729   0.279 -0.0349  0.2268  0.0143
 7120TIP3   OH242850   2.493   1.247  14.505  0.3842 -0.3262 -0.0430
 7120TIP3    H142851   2.554   1.230  14.433  0.4926 -2.3638  0.4852
 7120TIP3    H242852   2.549   1.279  14.576  0.6711 -0.9335  0.0118
 7121TIP3   OH242853   3.000   6.437   4.308  0.0366  0.2506  0.3368
 7121TIP3    H142854   2.992   6.361   4.365  0.0581  0.7311  0.9869
 7121TIP3    H242855   2.915   6.443   4.264 -0.0096 -0.0705  0.3811
 7122TIP3   OH242856   4.395   4.863   3.984  0.1531  0.0710 -0.1379
 7122TIP3    H142857   4.427   4.819   4.063 -3.2441 -0.7829  0.9246
 7122TIP3    H242858   4.468   4.858   3.923  1.3530 -3.5829  1.2946
 7123TIP3   OH242859   6.413   0.020  16.361 -0.2496  0.3173 -0.3611
 7123TIP3    H142860   6.490   0.011  16.418  1.0449  0.6885 -1.9907
 7123TIP3    H242861   6.379   0.107  16.381  0.9946  0.9944 -1.0577
 7124TIP3   OH242862   2.724   6.044   1.571 -0.3594  0.5569 -0.2485
 7124TIP3    H142863   2.816   6.065   1.589 -0.0964 -0.3213 -0.4971
 7124TIP3    H242864   2.692   6.117   1.518 -0.8307  2.6469  2.6735
 7125TIP3   OH242865   2.077   3.468  11.247  0.0346  0.2558  0.1347
 7125TIP3    H142866   1.986   3.450  11.271 -0.3431  0.3794 -1.1342
 7125TIP3    H242867   2.080   3.455  11.152  1.4014  0.0250  0.1824
 7126TIP3   OH242868   6.483   6.393  15.231  0.2285 -0.7215  0.5834
 7126TIP3    H142869   6.557   6.454  15.244 -0.0815 -0.3930  0.8319
 7126TIP3    H242870   6.522   6.317  15.189  0.5306 -0.1244 -0.2397
 7127TIP3   OH242871   2.971   5.781  11.460  0.4607 -0.1092 -0.3039
 7127TIP3    H142872   2.979   5.729  11.539  0.5307  0.6459  0.1953
 7127TIP3    H242873   3.015   5.864  11.480  1.5008 -0.3246 -1.5209
 7128TIP3   OH242874   2.747   2.546  15.608  0.4735 -0.1038 -0.2800
 7128TIP3    H142875   2.749   2.602  15.685 -0.0234 -0.9912  0.3852
 7128TIP3    H242876   2.656   2.550  15.577  0.1499 -1.3951  0.4283
 7129TIP3   OH242877   1.967   5.653  16.243 -0.2426  0.1197  0.0224
 7129TIP3    H142878   1.960   5.730  16.300 -1.8496 -0.4480  0.6528
 7129TIP3    H242879   1.970   5.579  16.304 -1.6995 -0.4844 -0.5970
 7130TIP3   OH242880   0.998   2.768  17.121  0.1670 -0.2026  0.0326
 7130TIP3    H142881   0.993   2.676  17.148 -0.3265 -0.3055 -0.3982
 7130TIP3    H242882   0.922   2.781  17.065 -0.9411  1.0086  1.7058
 7131TIP3   OH242883   6.305   3.368   1.318  0.2793 -0.0617 -0.1263
 7131TIP3    H142884   6.398   3.390   1.310  0.8180 -2.2100 -0.3016
 7131TIP3    H242885   6.260   3.445   1.283  1.8076  2.4643  2.9387
 7132TIP3   OH242886   3.032   5.785   0.406  0.1323 -0.2495 -0.7411
 7132TIP3    H142887   3.016   5.716   0.471  0.8349 -0.5853 -0.9082
 7132TIP3    H242888   2.958   5.844   0.415  1.3864  1.0735  2.0746
 7133TIP3   OH242889   0.163   6.598  13.734  0.2005 -0.5931 -0.1197
 7133TIP3    H142890   0.176   6.688  13.764 -0.4505 -0.5980  0.1881
 7133TIP3    H242891   0.201   6.596  13.646  0.9772 -0.2433  0.2015
 7134TIP3   OH242892   1.431   5.485   0.069  0.6532  0.3310 -0.2355
 7134TIP3    H142893   1.396   5.573   0.087  0.2044 -0.1638  1.4666
 7134TIP3    H242894   1.517   5.486   0.111  0.1386 -0.4129  0.8959
 7135TIP3   OH242895   5.628   1.519  13.596 -0.5144  0.1631 -0.2628
 7135TIP3    H142896   5.638   1.445  13.537  1.1335 -1.6836  2.1693
 7135TIP3    H242897   5.714   1.562  13.596 -0.8607  0.8755 -0.1194
 7136TIP3   OH242898   1.572   5.511   6.022 -0.1387 -0.3946  0.0546
 7136TIP3    H142899   1.624   5.432   6.032  1.3407  0.5018 -0.3281
 7136TIP3    H242900   1.571   5.550   6.110 -1.2718 -1.0442  0.3559
 7137TIP3   OH242901   5.519   1.419  14.323 -0.2269 -0.8496  0.0143
 7137TIP3    H142902   5.470   1.496  14.293  1.8030  0.5360  0.0460
 7137TIP3    H242903   5.495   1.410  14.416  1.1617  1.1802  0.6403
 7138TIP3   OH242904   0.622   0.252   0.411 -0.3285 -0.3019 -0.1867
 7138TIP3    H142905   0.657   0.272   0.325 -0.8857 -1.4811 -0.7134
 7138TIP3    H242906   0.647   0.160   0.426  2.3121  0.6696  2.1853
 7139TIP3   OH242907   5.198   4.143   2.257  0.5926 -0.1946  0.5485
 7139TIP3    H142908   5.188   4.066   2.201 -2.3690  0.0194  0.6091
 7139TIP3    H242909   5.285   4.178   2.235  0.4124 -1.2898 -2.3870
 7140TIP3   OH242910   5.848   3.899  15.460 -0.1291  0.5185 -0.5040
 7140TIP3    H142911   5.760   3.871  15.438 -0.8303  0.9391  1.5908
 7140TIP3    H242912   5.880   3.834  15.522  2.3313 -1.4375 -3.4728
 7141TIP3   OH242913   2.999   2.488  12.954  0.1799  0.4508 -0.1499
 7141TIP3    H142914   3.021   2.537  12.875  3.0271  1.1613  0.9524
 7141TIP3    H242915   2.966   2.554  13.015  0.7748  0.4464  0.1908
 7142TIP3   OH242916   3.494   4.350   0.972 -0.0618 -0.1992  0.4964
 7142TIP3    H142917   3.556   4.277   0.977 -0.7670 -0.9134 -0.5990
 7142TIP3    H242918   3.421   4.316   0.919 -0.8066  1.0250  0.6855
 7143TIP3   OH242919   3.312   1.468  14.328  0.1026 -0.1117  0.2167
 7143TIP3    H142920   3.246   1.518  14.376 -0.8126  0.4138 -1.4873
 7143TIP3    H242921   3.380   1.532  14.307  0.1396 -0.1623  0.1805
 7144TIP3   OH242922   1.619   6.433  10.650  0.4195  0.4252 -0.7623
 7144TIP3    H142923   1.696   6.461  10.700  0.9545  1.4483 -2.1035
 7144TIP3    H242924   1.644   6.350  10.611  1.0607  0.9903 -1.5972
 7145TIP3   OH242925   1.701   4.739   3.159  0.3969 -0.3457  0.3049
 7145TIP3    H142926   1.733   4.707   3.244  1.2199 -1.1282 -0.2700
 7145TIP3    H242927   1.779   4.739   3.103 -0.4250 -1.4078 -0.8990
 7146TIP3   OH242928   3.367   3.090   3.643  0.0824  0.5310  0.1748
 7146TIP3    H142929   3.306   3.148   3.689  1.1957  0.4111  1.9100
 7146TIP3    H242930   3.453   3.114   3.679  0.8968 -0.2111 -1.2273
 7147TIP3   OH242931   0.524   1.217   1.927  0.3029 -0.0336 -0.3822
 7147TIP3    H142932   0.460   1.146   1.931 -0.0557  0.3420  1.0987
 7147TIP3    H242933   0.525   1.243   1.835 -1.2544 -0.4358 -0.5508
 7148TIP3   OH242934   5.447   2.151   4.527  1.1439  0.2547  0.0224
 7148TIP3    H142935   5.362   2.144   4.570  0.7617  0.6058 -0.6573
 7148TIP3    H242936   5.430   2.202   4.447  1.8337 -0.3730 -0.5429
 7149TIP3   OH242937   6.685   1.300  16.088  0.3668  0.1394  0.0879
 7149TIP3    H142938   6.749   1.240  16.050 -0.4518 -0.6701 -0.0622
 7149TIP3    H242939   6.737   1.362  16.138  1.1852 -1.4108  1.2554
 7150TIP3   OH242940   4.294   6.397  12.701  0.2270 -0.2108 -0.2105
 7150TIP3    H142941   4.222   6.459  12.688  0.2594 -0.2254 -0.4676
 7150TIP3    H242942   4.372   6.452  12.706  0.6348 -0.3265 -3.1641
 7151TIP3   OH242943   0.120   1.702  16.679  0.2979 -0.4961  0.3959
 7151TIP3    H142944   0.104   1.753  16.759  0.4120  0.5732 -0.2511
 7151TIP3    H242945   0.122   1.611  16.709 -0.2778 -0.1559  1.5183
 7152TIP3   OH242946   2.141   5.095   0.947 -0.2546 -0.2673 -0.2989
 7152TIP3    H142947   2.176   5.067   1.032 -0.4269  0.0279 -0.1286
 7152TIP3    H242948   2.177   5.032   0.885 -1.4202 -1.4831  0.2038
 7153TIP3   OH242949   0.084   2.730  12.800  0.1462  0.4225  0.2859
 7153TIP3    H142950   0.075   2.748  12.893 -0.2030  1.1751  0.1183
 7153TIP3    H242951   0.172   2.694  12.790  0.2440  0.4906  0.8811
 7154TIP3   OH242952   1.587   4.294  14.041 -0.5638 -0.1566  0.2018
 7154TIP3    H142953   1.582   4.323  13.950 -0.0758  0.7348  0.4480
 7154TIP3    H242954   1.608   4.201  14.036  0.3249  0.0741 -0.5963
 7155TIP3   OH242955   4.910   5.176   1.709 -0.3658  0.3895  0.4251
 7155TIP3    H142956   4.828   5.140   1.677 -0.1945 -0.5715  1.0152
 7155TIP3    H242957   4.977   5.115   1.678 -0.1623 -0.3627  2.2277
 7156TIP3   OH242958   0.658   4.026  13.844 -0.1541  0.6651  0.3078
 7156TIP3    H142959   0.684   4.053  13.932  1.5375  0.6765 -0.1604
 7156TIP3    H242960   0.606   3.947  13.857  1.0687 -0.0103  1.2679
 7157TIP3   OH242961   3.243   5.277  13.229 -0.1784 -0.6963  0.7242
 7157TIP3    H142962   3.257   5.282  13.324  0.1142 -0.2148  0.6556
 7157TIP3    H242963   3.331   5.275  13.192 -0.2813 -1.7438  0.4968
 7158TIP3   OH242964   0.062   1.645   0.613  0.4095  0.1452 -0.0532
 7158TIP3    H142965   0.053   1.550   0.616 -0.7370  0.1439 -2.0689
 7158TIP3    H242966   0.014   1.672   0.535  1.9801  2.2392 -0.3997
 7159TIP3   OH242967   3.999   2.262  17.144  0.1654  0.4188  0.3985
 7159TIP3    H142968   3.928   2.312  17.183 -0.7577  0.1244 -0.8421
 7159TIP3    H242969   3.969   2.243  17.055  1.6680  0.0224 -0.0506
 7160TIP3   OH242970   0.592   3.782   3.898 -0.0594 -0.2271  0.6107
 7160TIP3    H142971   0.568   3.746   3.983 -1.4677  2.0135  1.2509
 7160TIP3    H242972   0.519   3.757   3.840  1.6944 -3.2439 -0.5095
 7161TIP3   OH242973   0.455   0.131  14.876 -0.1343  0.1004  0.0722
 7161TIP3    H142974   0.368   0.100  14.902 -0.8729  0.9247 -1.3158
 7161TIP3    H242975   0.508   0.052  14.872 -1.0240 -0.5183  0.1652
 7162TIP3   OH242976   4.220   2.813   2.438  0.0943  0.0363 -0.4644
 7162TIP3    H142977   4.177   2.736   2.400 -1.1637 -0.7919  2.3914
 7162TIP3    H242978   4.176   2.887   2.396  0.8454 -0.7455 -2.7589
 7163TIP3   OH242979   5.160   4.256   0.063 -0.0347  1.0032  0.2476
 7163TIP3    H142980   5.124   4.339   0.031 -1.4746  0.5017  0.4907
 7163TIP3    H242981   5.100   4.228   0.132  1.0168  0.2691  0.8982
 7164TIP3   OH242982   4.359   1.964  14.433  0.4792 -0.2649 -0.6878
 7164TIP3    H142983   4.372   1.931  14.344  0.9992 -1.5954 -0.1504
 7164TIP3    H242984   4.407   1.902  14.489  0.4378  0.7296  0.4954
 7165TIP3   OH242985   1.362   1.830  16.402 -0.1237  0.2917 -0.7807
 7165TIP3    H142986   1.331   1.840  16.492 -0.2044 -0.9090 -0.6530
 7165TIP3    H242987   1.321   1.902  16.354  0.0806  1.0634  0.1754
 7166TIP3   OH242988   5.705   0.281   3.233 -0.2117  0.4463 -0.0639
 7166TIP3    H142989   5.769   0.239   3.290 -1.2465  0.6575  1.2939
 7166TIP3    H242990   5.758   0.319   3.162  1.2341  1.0717  1.2846
 7167TIP3   OH242991   0.160   5.174  14.799 -0.6661  0.2932 -0.2089
 7167TIP3    H142992   0.196   5.261  14.819  1.0437 -0.2981 -0.5976
 7167TIP3    H242993   0.185   5.120  14.873 -1.0287 -0.0591 -0.3431
 7168TIP3   OH242994   4.612   6.759  14.088  0.0704  0.0535  0.8019
 7168TIP3    H142995   4.627   6.846  14.053 -0.3398  0.2873  1.2059
 7168TIP3    H242996   4.685   6.707  14.054 -0.2228  0.3144 -0.2602
 7169TIP3   OH242997   2.164   2.588  12.139  0.1670  0.4780  0.0195
 7169TIP3    H142998   2.092   2.553  12.086 -1.1270  0.6748  1.5672
 7169TIP3    H242999   2.242   2.570  12.088 -0.7345 -2.0282 -0.6208
 7170TIP3   OH243000   4.093   1.271  13.056 -0.4116  0.3187  0.1548
 7170TIP3    H143001   4.176   1.283  13.102 -0.5755  0.2566  0.4672
 7170TIP3    H243002   4.031   1.246  13.124 -0.4114 -0.8528 -0.2471
 7171TIP3   OH243003   5.286   1.432   5.728 -0.7316 -0.0716  0.2469
 7171TIP3    H143004   5.338   1.465   5.801  0.0259  1.7894 -1.0321
 7171TIP3    H243005   5.349   1.386   5.673 -0.8931  0.1832 -0.1599
 7172TIP3   OH243006   6.414   6.571   4.000  0.8872 -0.1832  0.8550
 7172TIP3    H143007   6.424   6.533   3.913  2.7619 -1.0016  1.3833
 7172TIP3    H243008   6.320   6.577   4.013  0.5676 -1.1156 -0.7711
 7173TIP3   OH243009   1.333   1.071   1.138 -0.0229  0.3562 -0.3249
 7173TIP3    H143010   1.336   0.978   1.118 -1.3120  0.6609 -2.2238
 7173TIP3    H243011   1.248   1.100   1.106 -0.3095  1.9257  1.6067
 7174TIP3   OH243012   3.688   2.944   1.815  0.3540  0.1750 -0.4117
 7174TIP3    H143013   3.630   2.871   1.834  1.1653 -0.2589  0.4641
 7174TIP3    H243014   3.649   2.986   1.738 -1.4640  0.2930  0.5198
 7175TIP3   OH243015   4.332   6.465   2.080  0.4311  0.8755 -0.7642
 7175TIP3    H143016   4.259   6.483   2.139  1.3086 -1.0014  1.0404
 7175TIP3    H243017   4.398   6.531   2.103 -0.2545  1.9042 -1.6564
 7176TIP3   OH243018   6.521   5.421   5.280  0.5209 -0.2926  0.0633
 7176TIP3    H143019   6.500   5.471   5.201 -1.7422 -1.0827  0.0940
 7176TIP3    H243020   6.569   5.482   5.335  0.8432  0.7474 -1.3046
 7177TIP3   OH243021   1.600   3.456  10.684  0.0110  0.5169  0.5484
 7177TIP3    H143022   1.554   3.469  10.767 -1.2751 -1.8505  0.3055
 7177TIP3    H243023   1.595   3.541  10.640 -2.6690  0.8558  1.3057
 7178TIP3   OH243024   0.642   1.457   5.485 -0.3512  0.0596  0.3383
 7178TIP3    H143025   0.672   1.417   5.567  1.2941 -0.7840 -0.6109
 7178TIP3    H243026   0.723   1.477   5.438 -1.2474 -1.2503 -1.8873
 7179TIP3   OH243027   0.337   4.433  13.145  0.0708  0.3703 -0.0630
 7179TIP3    H143028   0.313   4.443  13.053  2.3363  3.4179 -0.4441
 7179TIP3    H243029   0.310   4.514  13.186  1.1013 -0.0239  1.4777
 7180TIP3   OH243030   2.494   2.908   6.504  0.4052 -0.2180  0.4551
 7180TIP3    H143031   2.404   2.937   6.489 -0.1536 -0.5429  2.8459
 7180TIP3    H243032   2.486   2.815   6.526  1.5601 -0.7409 -1.1026
 7181TIP3   OH243033   0.221   6.629  16.030 -0.2822  0.0670 -0.4873
 7181TIP3    H143034   0.135   6.593  16.007 -0.8348  0.3219  1.0842
 7181TIP3    H243035   0.210   6.724  16.026 -0.7200  0.1604  1.7759
 7182TIP3   OH243036   0.432   3.132  13.600  0.0276 -0.1708 -0.1962
 7182TIP3    H143037   0.386   3.206  13.639  1.1463  0.2159  0.4278
 7182TIP3    H243038   0.485   3.096  13.671  1.6494  0.1806 -1.1752
 7183TIP3   OH243039   5.094   1.471   3.193 -0.0272  0.8974  0.1063
 7183TIP3    H143040   5.019   1.415   3.171  0.8067 -0.9847  1.7045
 7183TIP3    H243041   5.114   1.517   3.111 -2.4082  0.8927 -0.5644
 7184TIP3   OH243042   4.575   2.433  12.999 -0.3420  0.1514  0.0150
 7184TIP3    H143043   4.546   2.487  13.073  1.7386  0.2378  0.8439
 7184TIP3    H243044   4.603   2.496  12.933  1.1353  0.1598  0.5922
 7185TIP3   OH243045   2.891   5.422   3.380  0.4243  0.3462 -0.5698
 7185TIP3    H143046   2.829   5.467   3.436  1.4454  0.2398  0.6945
 7185TIP3    H243047   2.838   5.384   3.310 -1.1511 -0.9669  1.2323
 7186TIP3   OH243048   4.161   5.432  10.542  0.1162  0.2135  0.2790
 7186TIP3    H143049   4.095   5.397  10.482 -0.0526  0.7231  0.1595
 7186TIP3    H243050   4.222   5.480  10.486  0.0620  0.5367  0.4959
 7187TIP3   OH243051   0.178   5.631  16.004 -0.6464  0.5913  0.5985
 7187TIP3    H143052   0.135   5.692  15.944  0.1272 -0.9934 -1.6824
 7187TIP3    H243053   0.132   5.548  15.991  0.3092 -0.0731  1.3576
 7188TIP3   OH243054   0.503   3.517   3.443 -0.0154  0.0472 -0.3507
 7188TIP3    H143055   0.505   3.422   3.428  0.9698 -0.0284  0.1875
 7188TIP3    H243056   0.438   3.530   3.512  1.2807 -0.4697  1.0150
 7189TIP3   OH243057   4.880   0.860  11.430 -0.0089 -0.0796 -0.0443
 7189TIP3    H143058   4.840   0.913  11.499  1.7725  0.8010  0.3737
 7189TIP3    H243059   4.904   0.923  11.363 -0.9296 -0.8286 -1.1123
 7190TIP3   OH243060   4.622   5.119   4.802  0.0183  0.0517 -0.2577
 7190TIP3    H143061   4.665   5.202   4.782 -0.1944  0.0190 -0.8612
 7190TIP3    H243062   4.548   5.144   4.858 -1.3431  0.5573 -2.1674
 7191TIP3   OH243063   2.076   6.264  12.563 -0.5954  0.2590  0.3515
 7191TIP3    H143064   2.035   6.180  12.587 -1.0016  0.3432 -0.0340
 7191TIP3    H243065   2.006   6.313  12.521 -0.1925  0.5597  0.0312
 7192TIP3   OH243066   1.157   1.124   4.900  0.3494  0.3371 -0.2081
 7192TIP3    H143067   1.102   1.164   4.968  0.2963 -0.7935  0.4346
 7192TIP3    H243068   1.095   1.100   4.831 -0.3614 -2.6812  1.3155
 7193TIP3   OH243069   4.402   3.933   4.276  0.2155 -0.3673 -0.6093
 7193TIP3    H143070   4.439   3.864   4.330  0.0265  0.9659  1.3203
 7193TIP3    H243071   4.327   3.965   4.325  1.1512  2.1830 -0.6688
 7194TIP3   OH243072   0.627   5.377  13.317 -0.4490  0.2835 -0.2986
 7194TIP3    H143073   0.644   5.284  13.302  0.3136  0.7890 -3.4077
 7194TIP3    H243074   0.713   5.419  13.309 -0.5674  1.2113  2.3189
 7195TIP3   OH243075   1.653   5.810   3.421 -0.0687  0.5644 -0.3855
 7195TIP3    H143076   1.668   5.819   3.327  2.2813 -0.8135 -0.2238
 7195TIP3    H243077   1.675   5.896   3.457 -1.5675  1.2867 -1.1021
 7196TIP3   OH243078   2.242   2.909  13.803  0.0038  0.7730  0.4113
 7196TIP3    H143079   2.290   2.943  13.878  0.1749  0.8153  0.2829
 7196TIP3    H243080   2.231   2.984  13.745  1.3773  0.3804 -0.3961
 7197TIP3   OH243081   1.362   2.214   1.572 -0.0608  0.0254 -0.3441
 7197TIP3    H143082   1.410   2.193   1.653  0.6360 -0.2653 -0.8226
 7197TIP3    H243083   1.291   2.272   1.601  1.0915  1.1894  0.2713
 7198TIP3   OH243084   1.655   5.160   1.616  0.2578 -1.8509 -0.7497
 7198TIP3    H143085   1.567   5.173   1.652  0.8946  2.4532 -0.2202
 7198TIP3    H243086   1.712   5.164   1.692  1.1157 -0.6034 -1.4313
 7199TIP3   OH243087   1.382   2.432  15.709 -0.6896 -0.0712 -0.3833
 7199TIP3    H143088   1.397   2.477  15.792  0.1425 -1.3076  0.1853
 7199TIP3    H243089   1.417   2.344  15.723 -1.8208 -0.7576 -1.5900
 7200TIP3   OH243090   1.648   6.512  15.982 -0.1799 -0.2803  0.2676
 7200TIP3    H143091   1.680   6.457  16.054  1.3258  1.4110  0.9735
 7200TIP3    H243092   1.654   6.602  16.016  1.2749  0.6400 -2.1731
 7201TIP3   OH243093   1.439   4.051   4.167  0.3473  0.3150  0.1513
 7201TIP3    H143094   1.390   4.067   4.248 -1.6136 -0.9209 -0.7019
 7201TIP3    H243095   1.381   4.083   4.098  0.7842 -1.1008 -0.9162
 7202TIP3   OH243096   4.618   5.288   1.341  0.2110  0.2809 -0.4997
 7202TIP3    H143097   4.678   5.359   1.362 -1.2092  0.7528  2.4151
 7202TIP3    H243098   4.642   5.217   1.400 -0.7207 -0.3157 -0.8147
 7203TIP3   OH243099   5.792   1.432  14.174 -0.0590 -0.4948 -0.5149
 7203TIP3    H143100   5.819   1.495  14.107  0.0017 -0.8709 -0.8471
 7203TIP3    H243101   5.704   1.460  14.199 -0.3025 -0.6622 -1.1416
 7204TIP3   OH243102   1.819   0.442  17.005 -0.1181  0.0947  0.3497
 7204TIP3    H143103   1.791   0.386  17.076 -0.4312  0.6792  0.6890
 7204TIP3    H243104   1.891   0.393  16.963 -0.9912 -0.9727  0.0544
 7205TIP3   OH243105   5.430   2.935  12.379 -0.7126 -0.6920  0.0858
 7205TIP3    H143106   5.523   2.917  12.365 -1.0272 -2.0076 -0.4824
 7205TIP3    H243107   5.429   3.016  12.430  0.8362 -2.1229  2.6211
 7206TIP3   OH243108   3.738   2.433   4.944 -0.0992 -0.5033  0.0476
 7206TIP3    H143109   3.760   2.497   4.876 -0.7871 -0.9537 -0.6149
 7206TIP3    H243110   3.705   2.486   5.017  1.0687  0.0177  0.2160
 7207TIP3   OH243111   6.165   0.857   2.030 -0.2387 -0.0693  0.4085
 7207TIP3    H143112   6.095   0.883   2.090 -0.1347  0.3189  0.3619
 7207TIP3    H243113   6.171   0.929   1.967 -1.0741 -0.9495 -0.7173
 7208TIP3   OH243114   1.862   2.441   5.692 -0.2590  0.3434  0.8390
 7208TIP3    H143115   1.869   2.424   5.786  1.0332  0.1177  0.7092
 7208TIP3    H243116   1.950   2.464   5.665 -0.6730  0.6535 -0.2828
 7209TIP3   OH243117   1.351   0.458  14.793  0.3124 -0.3865  0.1327
 7209TIP3    H143118   1.419   0.494  14.736  1.7577 -1.1831  1.2853
 7209TIP3    H243119   1.278   0.519  14.785  0.8744  0.1103 -1.7009
 7210TIP3   OH243120   0.749   4.366  12.401  0.0848 -0.1221 -0.7197
 7210TIP3    H143121   0.658   4.385  12.424 -0.1285 -1.9777  0.2253
 7210TIP3    H243122   0.743   4.289  12.344  1.0752 -1.1278  0.4589
 7211TIP3   OH243123   3.167   0.009  16.151  0.0382 -0.0845 -0.2034
 7211TIP3    H143124   3.115   0.051  16.082  1.7066 -0.3121 -1.6526
 7211TIP3    H243125   3.239   0.070  16.167  0.0820 -0.3907  0.8165
 7212TIP3   OH243126   2.319   1.045  16.162  0.2392 -0.3826  0.3982
 7212TIP3    H143127   2.333   0.953  16.142 -0.3203 -0.0139 -1.9582
 7212TIP3    H243128   2.375   1.092  16.101  0.6678  0.8691  1.6995
 7213TIP3   OH243129   0.752   4.619   3.417  0.3377 -0.3185 -0.3221
 7213TIP3    H143130   0.808   4.694   3.437  0.9899 -0.3688 -1.8235
 7213TIP3    H243131   0.677   4.657   3.371  0.0271 -0.4602  0.0560
 7214TIP3   OH243132   1.628   0.719   3.142  0.6127 -0.2849 -0.6257
 7214TIP3    H143133   1.607   0.625   3.146  0.0250 -0.1192  2.6787
 7214TIP3    H243134   1.717   0.724   3.177  0.5870  0.4212 -0.6643
 7215TIP3   OH243135   2.214   4.872  14.569  0.4658 -0.1161  0.3133
 7215TIP3    H143136   2.240   4.871  14.477  0.5945 -0.1718  0.3509
 7215TIP3    H243137   2.278   4.816  14.613 -0.6298 -1.5483  0.1696
 7216TIP3   OH243138   4.963   3.541  14.258  0.3566  0.0412  0.2833
 7216TIP3    H143139   5.027   3.533  14.187  1.5112  0.9529  1.1996
 7216TIP3    H243140   5.011   3.520  14.337 -1.5461 -3.7721  0.6970
 7217TIP3   OH243141   0.052   0.354  16.610  0.3809  0.0474  0.2337
 7217TIP3    H143142   0.036   0.378  16.701 -1.4629 -1.3067  0.3325
 7217TIP3    H243143   0.129   0.404  16.584 -0.7544  2.6898  1.6546
 7218TIP3   OH243144   4.106   1.333   2.513  0.3859 -0.1738  0.1206
 7218TIP3    H143145   4.194   1.339   2.474  0.2279  0.8511 -0.1317
 7218TIP3    H243146   4.122   1.321   2.606  0.8578  1.5425  0.3117
 7219TIP3   OH243147   4.100   3.470   1.938  0.3376 -0.3250 -0.0609
 7219TIP3    H143148   4.152   3.551   1.932 -0.1504 -0.0876 -1.3210
 7219TIP3    H243149   4.148   3.407   1.885  1.7316 -1.4770  2.4138
 7220TIP3   OH243150   3.888   0.067  13.967 -0.0343  0.3026 -0.1211
 7220TIP3    H143151   3.934   0.049  14.049  1.3160  2.2122 -0.4081
 7220TIP3    H243152   3.953   0.110  13.911 -1.9904  2.6886 -0.7387
 7221TIP3   OH243153   0.014   2.800   0.829  0.4988  0.2611 -0.2629
 7221TIP3    H143154   0.025   2.746   0.751 -1.5515  0.6179 -0.8548
 7221TIP3    H243155   0.002   2.889   0.795 -1.2071  0.3058  0.3551
 7222TIP3   OH243156   5.788   5.416   3.768 -0.5721 -0.0064 -0.2145
 7222TIP3    H143157   5.862   5.420   3.828 -1.3876  0.5192  0.7925
 7222TIP3    H243158   5.789   5.327   3.734 -0.8500 -0.7522  1.6102
 7223TIP3   OH243159   1.138   1.483  13.232  0.1799 -0.1609  0.0318
 7223TIP3    H143160   1.129   1.407  13.290  2.9391 -0.9915 -0.4812
 7223TIP3    H243161   1.112   1.449  13.146  1.0684 -0.4811 -0.1293
 7224TIP3   OH243162   4.372   4.154  16.292 -0.4792 -0.1510 -0.0213
 7224TIP3    H143163   4.348   4.102  16.369 -1.0016  1.4332  0.9392
 7224TIP3    H243164   4.414   4.092  16.233 -1.0269 -1.6330  1.0926
 7225TIP3   OH243165   6.231   5.545   3.189 -0.0444 -0.1615  0.5850
 7225TIP3    H143166   6.227   5.491   3.110 -1.5418 -1.1940  1.3084
 7225TIP3    H243167   6.145   5.534   3.230  1.1407 -0.9002  3.1278
 7226TIP3   OH243168   0.009   2.097   6.158 -0.6715  0.2870 -0.0525
 7226TIP3    H143169   0.015   2.014   6.110  0.2114 -0.5307  1.3954
 7226TIP3    H243170  -0.003   2.071   6.249  0.4617  1.7192  0.5453
 7227TIP3   OH243171   4.494   2.618  12.331  0.6147  0.6121  0.8693
 7227TIP3    H143172   4.577   2.665  12.327 -0.4388  2.5440  0.2174
 7227TIP3    H243173   4.489   2.570  12.249 -0.0021  2.5862 -0.3281
 7228TIP3   OH243174   3.947   0.252  17.163  0.4974  0.0745  0.6141
 7228TIP3    H143175   4.009   0.303  17.111  0.8568  0.1856  1.1532
 7228TIP3    H243176   3.993   0.170  17.182  0.2273 -0.1179  0.4497
 7229TIP3   OH243177   4.616   6.426   0.341 -0.1951 -0.1245  0.1335
 7229TIP3    H143178   4.578   6.507   0.374 -1.8243 -0.4822 -0.7262
 7229TIP3    H243179   4.703   6.450   0.310 -1.2028  1.6788 -1.5275
 7230TIP3   OH243180   5.626   3.842  12.689  0.5443 -0.0590  0.2844
 7230TIP3    H143181   5.580   3.910  12.738  3.1922  1.1984  1.2162
 7230TIP3    H243182   5.680   3.798  12.754  0.8827 -1.2805 -0.7804
 7231TIP3   OH243183   0.546   5.421  14.535  0.2287 -0.0485 -0.4264
 7231TIP3    H143184   0.491   5.421  14.614  3.4525 -0.8011  2.0403
 7231TIP3    H243185   0.545   5.511  14.505 -2.0743  0.0114 -0.3713
 7232TIP3   OH243186   1.825   2.744   3.901  0.3965 -0.8828  0.2885
 7232TIP3    H143187   1.917   2.739   3.876  0.1472  2.7697 -2.1263
 7232TIP3    H243188   1.826   2.766   3.994  2.0543  0.1463  0.0668
 7233TIP3   OH243189   6.617   3.568  10.976  0.3489  0.0291 -0.2527
 7233TIP3    H143190   6.598   3.626  10.902 -0.0751 -1.8813 -1.7254
 7233TIP3    H243191   6.680   3.505  10.940 -2.3079 -2.9406 -0.0697
 7234TIP3   OH243192   2.599   5.043   3.357 -1.0089  0.4310  0.2938
 7234TIP3    H143193   2.679   4.993   3.375 -0.1597  1.9024  0.7891
 7234TIP3    H243194   2.631   5.128   3.328 -2.4183  0.7878 -0.2592
 7235TIP3   OH243195   5.916   6.069  16.544 -0.1984 -0.6246  0.1028
 7235TIP3    H143196   5.991   6.076  16.603  0.3705  1.2440 -0.7853
 7235TIP3    H243197   5.841   6.095  16.598  0.2820  0.8209  0.0912
 7236TIP3   OH243198   3.054   0.737   0.491  0.3056 -0.0318 -0.1235
 7236TIP3    H143199   3.026   0.810   0.545 -0.5827  0.2483 -0.9316
 7236TIP3    H243200   3.003   0.745   0.410 -1.1989 -2.5578  0.4493
 7237TIP3   OH243201   1.476   1.608  16.844  0.5950  0.1524  0.3681
 7237TIP3    H143202   1.535   1.568  16.779  2.0793  0.7608  1.2960
 7237TIP3    H243203   1.498   1.701  16.842  0.2556  0.2591  1.3390
 7238TIP3   OH243204   3.494   6.726   1.280  0.0260 -0.3472  0.2846
 7238TIP3    H143205   3.506   6.815   1.314  2.2256 -0.4402 -0.1253
 7238TIP3    H243206   3.531   6.729   1.191  1.2207 -1.9320  0.6881
 7239TIP3   OH243207   0.383   1.927   0.194  0.4893 -0.6488 -0.2706
 7239TIP3    H143208   0.446   1.957   0.259  1.1016 -0.3619 -0.9810
 7239TIP3    H243209   0.433   1.867   0.138  0.7081  1.0953 -2.0479
 7240TIP3   OH243210   4.952   4.509  11.251  0.0158  0.1559 -0.4676
 7240TIP3    H143211   4.909   4.581  11.204  0.1892  0.7360  0.2450
 7240TIP3    H243212   5.031   4.492  11.200  0.5276  1.2066 -0.0486
 7241TIP3   OH243213   0.301   6.622  16.686  0.2464  0.1771 -1.1074
 7241TIP3    H143214   0.362   6.562  16.642 -0.1933 -0.6078 -0.6735
 7241TIP3    H243215   0.302   6.701  16.633  0.1492 -0.5485 -2.2202
 7242TIP3   OH243216   1.848   1.834  13.222  0.8908  0.6624  0.0494
 7242TIP3    H143217   1.835   1.929  13.223  0.9197  0.6808 -0.6151
 7242TIP3    H243218   1.820   1.805  13.308  0.5561  1.2377  0.1401
 7243TIP3   OH243219   1.008   0.237   4.335  0.1814  0.8483  0.3317
 7243TIP3    H143220   0.968   0.290   4.265 -0.7001  1.0428  0.9654
 7243TIP3    H243221   1.019   0.150   4.295  1.2997  1.3962 -0.5967
 7244TIP3   OH243222   1.655   3.969   0.230 -0.2864 -0.2603  0.5208
 7244TIP3    H143223   1.707   3.889   0.233 -1.5866 -1.1192  1.7639
 7244TIP3    H243224   1.587   3.952   0.164  0.7802  0.7488 -0.9031
 7245TIP3   OH243225   0.651   6.432  15.565  0.1056  0.0527 -0.3837
 7245TIP3    H143226   0.683   6.492  15.632 -0.5743 -1.1583  1.0864
 7245TIP3    H243227   0.728   6.382  15.539  0.4424  0.7655 -0.7835
 7246TIP3   OH243228   4.366   5.869   4.253  1.0005  0.2922  0.1594
 7246TIP3    H143229   4.315   5.789   4.239  0.1580  0.8011  0.2362
 7246TIP3    H243230   4.333   5.930   4.188  2.1793  0.3496 -0.4093
 7247TIP3   OH243231   2.290   2.059  12.018 -0.7003 -0.0788 -0.2766
 7247TIP3    H143232   2.207   2.050  11.971 -0.3335  0.9394 -1.1675
 7247TIP3    H243233   2.303   2.153  12.026  0.0831 -0.2296  0.3640
 7248TIP3   OH243234   2.595   3.164  12.416  0.0963  0.3694  0.1513
 7248TIP3    H143235   2.620   3.240  12.363 -2.9008  0.3068 -1.6240
 7248TIP3    H243236   2.525   3.197  12.473 -0.7623 -0.8602 -0.1449
 7249TIP3   OH243237   0.837   4.204  15.651  0.0200 -0.1537 -0.1190
 7249TIP3    H143238   0.894   4.183  15.577 -1.0465 -0.3893 -0.8935
 7249TIP3    H243239   0.748   4.201  15.615 -0.4452  1.0676  0.8584
 7250TIP3   OH243240   0.474   0.853  14.911  0.0797  0.3200  0.5292
 7250TIP3    H143241   0.407   0.878  14.847 -0.0771 -0.6504  0.2826
 7250TIP3    H243242   0.540   0.921  14.905  0.6361 -0.3259 -1.5553
 7251TIP3   OH243243   4.245   1.888  16.741  0.5582 -0.5149  0.2953
 7251TIP3    H143244   4.174   1.832  16.772 -0.3929  0.2381 -0.4435
 7251TIP3    H243245   4.248   1.960  16.804  0.3381 -0.3033  0.0685
 7252TIP3   OH243246   0.608   0.161  14.441 -0.1362 -0.3705 -0.4188
 7252TIP3    H143247   0.634   0.179  14.531 -1.5534  2.6097 -0.4947
 7252TIP3    H243248   0.648   0.076  14.421 -0.1862 -1.3684  3.1298
 7253TIP3   OH243249   4.407   4.752   3.607  0.0424 -0.0610 -0.0804
 7253TIP3    H143250   4.464   4.829   3.609  0.3925 -0.3210  0.0834
 7253TIP3    H243251   4.356   4.762   3.527  1.3482 -0.5624 -0.9959
 7254TIP3   OH243252   4.569   0.011   2.911 -0.2389  0.4249  0.3440
 7254TIP3    H143253   4.574   0.095   2.865  0.9397  0.3319  0.2794
 7254TIP3    H243254   4.483   0.011   2.951 -0.0075  1.9582  0.8867
 7255TIP3   OH243255   0.123   6.655  11.854  0.0457  0.3440 -0.8046
 7255TIP3    H143256   0.127   6.572  11.807 -2.7605 -0.7584  0.6369
 7255TIP3    H243257   0.177   6.642  11.932  0.2210  0.1421 -0.9617
 7256TIP3   OH243258   2.383   5.623  15.629  0.3426 -0.2005 -0.0085
 7256TIP3    H143259   2.420   5.669  15.704  0.8629  0.3209 -0.5684
 7256TIP3    H243260   2.382   5.531  15.655  2.8760 -0.3832 -0.2399
 7257TIP3   OH243261   6.213   3.943  13.903  0.2671  0.4868  0.6560
 7257TIP3    H143262   6.158   3.893  13.842  0.6839 -1.7323  1.9668
 7257TIP3    H243263   6.164   3.941  13.985  0.7431  1.4892  0.9779
 7258TIP3   OH243264   6.564   0.730   6.204  0.0884 -0.1334 -0.1182
 7258TIP3    H143265   6.499   0.780   6.156  0.7107 -1.3141 -2.3231
 7258TIP3    H243266   6.518   0.649   6.228 -0.3184  0.5695  1.7042
 7259TIP3   OH243267   5.436   1.481   0.436 -0.1534 -0.1296 -0.2720
 7259TIP3    H143268   5.399   1.419   0.499  0.1416 -0.7248 -0.6689
 7259TIP3    H243269   5.376   1.478   0.361  1.4042 -2.2285 -1.5479
 7260TIP3   OH243270   2.485   3.786   4.457 -0.0346 -0.2345  0.2855
 7260TIP3    H143271   2.470   3.729   4.533  0.1227 -1.0649 -0.2950
 7260TIP3    H243272   2.470   3.730   4.381 -0.0060  0.5360 -0.3082
 7261TIP3   OH243273   2.730   2.371   3.675  1.3504 -0.0575  0.6126
 7261TIP3    H143274   2.660   2.436   3.684 -0.9704 -2.2430 -0.4979
 7261TIP3    H243275   2.758   2.379   3.584  1.4087 -0.2480  0.6141
 7262TIP3   OH243276   2.507   4.968   2.376  1.0067  0.2213 -0.0678
 7262TIP3    H143277   2.593   4.997   2.407  0.6409 -0.2081  1.4295
 7262TIP3    H243278   2.478   5.037   2.317  2.3399  0.4055 -0.5518
 7263TIP3   OH243279   0.382   2.461  13.639  0.4543  0.2793 -0.1636
 7263TIP3    H143280   0.437   2.530  13.677  1.1173 -0.0627 -0.4990
 7263TIP3    H243281   0.308   2.509  13.601  1.1166  0.8514 -0.7644
 7264TIP3   OH243282   6.619   2.089   1.077 -1.0902  0.5897  0.8094
 7264TIP3    H143283   6.605   2.008   1.126  2.0188  0.0264  0.9970
 7264TIP3    H243284   6.616   2.061   0.985 -0.9470  0.4248  0.8531
 7265TIP3   OH243285   5.953   6.491  14.603  0.7098  0.5299  0.1244
 7265TIP3    H143286   5.979   6.457  14.689 -0.4026 -0.9053 -0.0789
 7265TIP3    H243287   5.979   6.422  14.542 -0.0778  0.7812 -0.4970
 7266TIP3   OH243288   2.976   5.177   0.383 -0.4328 -0.5150  0.3681
 7266TIP3    H143289   3.044   5.222   0.332  0.6110 -2.5994 -0.1934
 7266TIP3    H243290   3.011   5.174   0.472 -2.0195  2.6515  1.2363
 7267TIP3   OH243291   5.309   2.344   0.218  0.1969 -0.3164  0.5253
 7267TIP3    H143292   5.371   2.344   0.291  0.7980  0.1009  0.0241
 7267TIP3    H243293   5.272   2.432   0.218 -0.6795 -0.6763  1.0490
 7268TIP3   OH243294   2.527   0.083   5.805 -0.4564 -0.1731 -0.1479
 7268TIP3    H143295   2.555   0.044   5.888  0.3808 -0.2126 -0.4318
 7268TIP3    H243296   2.437   0.112   5.820 -0.5865 -0.9058  0.5188
 7269TIP3   OH243297   3.593   4.095  15.230 -0.0969  0.4592 -0.1195
 7269TIP3    H143298   3.614   4.152  15.155  0.5370  0.7912  0.3026
 7269TIP3    H243299   3.676   4.085  15.277 -0.3556 -0.2463  0.2067
 7270TIP3   OH243300   5.485   5.253  11.016 -0.2936  1.2946  0.6178
 7270TIP3    H143301   5.425   5.326  10.999  0.0335  1.1432 -1.3764
 7270TIP3    H243302   5.548   5.256  10.945 -0.7526 -1.4127 -0.0348
 7271TIP3   OH243303   3.642   2.961  13.747 -0.4023  0.2099 -0.0219
 7271TIP3    H143304   3.668   2.872  13.769 -0.2096 -0.0778 -1.3376
 7271TIP3    H243305   3.568   2.980  13.805  0.2216 -0.4089  0.9926
 7272TIP3   OH243306   2.638   6.552  15.503  0.1200  0.8651 -0.0437
 7272TIP3    H143307   2.657   6.607  15.579  0.0680 -1.2053  1.5422
 7272TIP3    H243308   2.724   6.535  15.464  0.3232  0.6448  0.4953
 7273TIP3   OH243309   2.286   5.963   5.552 -0.0799  0.2619 -0.2041
 7273TIP3    H143310   2.327   5.936   5.634 -2.0439  0.6223  0.9529
 7273TIP3    H243311   2.197   5.929   5.557  0.3760 -1.7730 -3.2668
 7274TIP3   OH243312   6.342   1.926  13.261  0.8221  0.1943 -0.2959
 7274TIP3    H143313   6.327   1.832  13.255 -1.9137  0.4609  0.5678
 7274TIP3    H243314   6.370   1.952  13.174 -0.8898 -1.1134 -1.3093
 7275TIP3   OH243315   6.715   5.465   5.737 -0.7618 -0.4173  0.1575
 7275TIP3    H143316   6.671   5.537   5.692  0.1974 -0.1187 -0.3356
 7275TIP3    H243317   6.747   5.503   5.818 -0.2238 -0.2629 -0.1193
 7276TIP3   OH243318   0.535   6.604   1.946 -0.2713 -0.3933 -0.2471
 7276TIP3    H143319   0.503   6.616   1.857 -2.4684 -1.0972  0.3904
 7276TIP3    H243320   0.502   6.518   1.972  2.2251 -1.2033  0.5050
 7277TIP3   OH243321   4.556   6.786   5.343 -0.4188 -0.0102 -0.1529
 7277TIP3    H143322   4.578   6.802   5.435  0.6393  1.7159 -0.6532
 7277TIP3    H243323   4.628   6.733   5.310 -0.1203  0.4813 -0.2985
 7278TIP3   OH243324   2.591   0.182   4.193 -0.0278  0.5748  0.5091
 7278TIP3    H143325   2.502   0.163   4.162  1.2326 -0.5940 -2.9132
 7278TIP3    H243326   2.580   0.251   4.257 -3.3068  1.6097 -0.9667
 7279TIP3   OH243327   1.171   3.237   3.162 -0.1395  0.0684  0.2223
 7279TIP3    H143328   1.113   3.300   3.205 -0.2533  0.7507 -0.8924
 7279TIP3    H243329   1.192   3.174   3.230 -2.4740 -0.4147  0.5897
 7280TIP3   OH243330   1.722   3.219   5.342  0.3175 -0.6550 -0.0461
 7280TIP3    H143331   1.677   3.142   5.306 -2.3124  1.4863 -1.6555
 7280TIP3    H243332   1.658   3.258   5.402 -0.1071  2.3873 -2.2539
 7281TIP3   OH243333   6.198   1.316   3.385  0.0930  0.4836  0.0761
 7281TIP3    H143334   6.200   1.386   3.320 -0.1531 -0.4081 -0.9118
 7281TIP3    H243335   6.114   1.272   3.371  1.1017 -1.3105 -0.7516
 7282TIP3   OH243336   0.248   1.025  12.555 -0.4095 -0.0050  0.1438
 7282TIP3    H143337   0.269   0.985  12.471 -0.4879  0.1477  0.0487
 7282TIP3    H243338   0.330   1.065  12.584 -0.3323 -0.2297  0.2372
 7283TIP3   OH243339   2.978   6.627   4.812  0.5566  0.0817 -0.4506
 7283TIP3    H143340   2.945   6.639   4.901 -0.1271  0.4765 -0.7444
 7283TIP3    H243341   2.977   6.715   4.774 -0.3963 -0.2502 -1.2527
 7284TIP3   OH243342   3.784   4.631  14.930  0.4023 -0.0122  0.9182
 7284TIP3    H143343   3.743   4.706  14.888 -0.5007 -0.3388  1.2051
 7284TIP3    H243344   3.797   4.568  14.859  0.3084  0.0491  0.8464
 7285TIP3   OH243345   4.107   5.787  13.467  0.1999 -0.1848 -0.2906
 7285TIP3    H143346   4.089   5.726  13.396  0.6079  1.0927 -1.5274
 7285TIP3    H243347   4.141   5.865  13.424 -0.0233  0.8192  1.2784
 7286TIP3   OH243348   0.906   6.128  12.401 -0.3207 -0.0004 -0.4144
 7286TIP3    H143349   0.869   6.149  12.315 -2.3558  1.6196  0.7675
 7286TIP3    H243350   0.979   6.189  12.411 -0.0366 -0.2339 -0.9861
 7287TIP3   OH243351   2.953   2.490  11.104  0.0806 -0.6693  0.0211
 7287TIP3    H143352   2.956   2.446  11.020  1.0728 -1.4798  0.4571
 7287TIP3    H243353   2.867   2.533  11.106  0.3060 -0.0742 -1.6558
 7288TIP3   OH243354   3.628   1.702   3.484 -0.5314 -0.2502  0.2241
 7288TIP3    H143355   3.548   1.755   3.479 -0.0460  0.4702  0.0065
 7288TIP3    H243356   3.656   1.709   3.575 -0.7241 -0.5166  0.3043
 7289TIP3   OH243357   3.019   3.094  15.535 -0.5375 -0.2484  0.1769
 7289TIP3    H143358   3.038   3.129  15.448  2.5551  1.4563  1.4146
 7289TIP3    H243359   3.000   3.001  15.519  1.3703 -0.3374 -2.1986
 7290TIP3   OH243360   5.769   4.292   4.613  0.6098  0.1475 -0.6112
 7290TIP3    H143361   5.777   4.268   4.521 -0.4862  0.5841 -0.8478
 7290TIP3    H243362   5.745   4.385   4.611 -0.1021 -0.0123  0.0825
 7291TIP3   OH243363   6.067   3.074  11.984  0.3824  0.0180  0.5744
 7291TIP3    H143364   6.004   3.090  12.054  0.7432  0.5824  0.7654
 7291TIP3    H243365   6.012   3.060  11.906 -0.0361 -1.0655  1.0447
 7292TIP3   OH243366   4.162   2.174   5.089 -0.3800 -0.6286  0.7507
 7292TIP3    H143367   4.175   2.237   5.159  0.9124  1.7612 -1.4472
 7292TIP3    H243368   4.071   2.187   5.061 -0.8501 -1.4813  1.8327
 7293TIP3   OH243369   1.138   3.297  15.552  0.0464  0.4352  0.4827
 7293TIP3    H143370   1.161   3.339  15.635 -0.8341  0.1018  0.9119
 7293TIP3    H243371   1.185   3.213  15.553 -0.6237  0.0469  1.0575
 7294TIP3   OH243372   1.914   3.347  13.520  0.2833 -0.0394 -0.0221
 7294TIP3    H143373   1.876   3.281  13.580 -2.7839 -1.4228 -3.1337
 7294TIP3    H243374   1.855   3.422  13.527  1.2520  0.7064  0.3215
 7295TIP3   OH243375   4.839   1.704  14.476 -0.0349  0.1291  0.5561
 7295TIP3    H143376   4.874   1.761  14.544  1.8559 -0.2786 -0.0163
 7295TIP3    H243377   4.825   1.620  14.520  4.3434 -1.1819 -0.0782
 7296TIP3   OH243378   6.454   1.048   6.413 -0.1185 -0.2552 -0.4178
 7296TIP3    H143379   6.526   0.991   6.441 -0.1503  0.7344  1.9311
 7296TIP3    H243380   6.475   1.133   6.451 -1.5949  0.5397 -1.3037
 7297TIP3   OH243381   3.222   0.067  11.821 -0.5354  0.5372  0.1359
 7297TIP3    H143382   3.252   0.158  11.815  1.0396 -0.0416 -1.4803
 7297TIP3    H243383   3.258   0.024  11.744  0.6446 -1.9969  1.9386
 7298TIP3   OH243384   2.742   3.445   6.014 -0.7091  0.2005 -0.2471
 7298TIP3    H143385   2.800   3.426   5.941  2.0658 -2.7866  2.3936
 7298TIP3    H243386   2.797   3.495   6.075 -1.4749 -0.9689  1.4852
 7299TIP3   OH243387   2.837   0.735  14.043  0.5457  0.4627 -0.3747
 7299TIP3    H143388   2.787   0.663  14.081  0.3621  0.0169 -1.4380
 7299TIP3    H243389   2.785   0.765  13.969  0.8881  1.3291 -0.2813
 7300TIP3   OH243390   1.837   5.612   4.652  0.3434 -0.5360  0.3578
 7300TIP3    H143391   1.882   5.605   4.736 -0.9042 -2.6589  0.9354
 7300TIP3    H243392   1.906   5.632   4.589  1.0767  2.8444  2.0424
 7301TIP3   OH243393   1.731   2.854  12.336 -0.0942  0.1090  0.4210
 7301TIP3    H143394   1.696   2.918  12.274  0.7112 -0.2411 -0.4159
 7301TIP3    H243395   1.752   2.777  12.283  0.4769 -0.2597  1.1500
 7302TIP3   OH243396   1.738   5.840  13.593 -0.6054 -0.0197 -0.1110
 7302TIP3    H143397   1.725   5.749  13.621 -1.0362  0.0796  0.0351
 7302TIP3    H243398   1.784   5.881  13.666 -0.5351 -0.0869 -0.1171
 7303TIP3   OH243399   1.097   4.611  11.577  0.1021 -0.1330  0.7094
 7303TIP3    H143400   1.011   4.602  11.618 -0.6872 -0.4930 -0.9546
 7303TIP3    H243401   1.090   4.688  11.522  0.1127 -1.3535 -1.0830
 7304TIP3   OH243402   5.990   2.021  14.084  0.2726 -0.1390 -0.6136
 7304TIP3    H143403   6.044   1.948  14.053  0.4911 -0.1668 -0.1848
 7304TIP3    H243404   5.953   1.989  14.167  0.6692  0.3702 -0.2312
 7305TIP3   OH243405   5.701   3.101   3.276 -0.4810 -0.5577 -0.0943
 7305TIP3    H143406   5.777   3.085   3.333 -0.0140 -0.9536 -0.8158
 7305TIP3    H243407   5.626   3.100   3.336  0.1355  0.5670  0.7371
 7306TIP3   OH243408   5.205   4.175  15.639 -0.5423  0.1958  0.1314
 7306TIP3    H143409   5.233   4.230  15.712 -2.2609  0.8223  0.3714
 7306TIP3    H243410   5.266   4.195  15.568 -0.0779  1.0988  0.7713
 7307TIP3   OH243411   0.888   0.227  11.678  0.5004 -0.1594  0.3508
 7307TIP3    H143412   0.877   0.247  11.771 -0.6392 -0.3539  0.2717
 7307TIP3    H243413   0.964   0.169  11.674  0.7273  0.0731  1.1263
 7308TIP3   OH243414   4.223   5.851  15.088 -0.3106 -0.0270 -0.1292
 7308TIP3    H143415   4.284   5.924  15.094  0.4952 -0.7187  0.2946
 7308TIP3    H243416   4.227   5.823  14.997  2.0395 -1.7429  0.4167
 7309TIP3   OH243417   2.641   1.517   1.853 -0.3263  0.4998  0.3236
 7309TIP3    H143418   2.625   1.424   1.839  1.7761 -0.1809  1.9105
 7309TIP3    H243419   2.635   1.529   1.948  1.3590  1.5293  0.3465
 7310TIP3   OH243420   2.289   3.576  14.676  0.1616  0.1620 -0.2300
 7310TIP3    H143421   2.368   3.619  14.707 -0.6179  1.6076 -0.1406
 7310TIP3    H243422   2.217   3.627  14.713 -0.8629 -1.7992  0.6713
 7311TIP3   OH243423   4.153   1.749  11.626 -0.0542  0.5776 -0.0753
 7311TIP3    H143424   4.105   1.668  11.646  0.7171 -0.9067 -3.4690
 7311TIP3    H243425   4.240   1.735  11.663  0.1006 -0.2568 -0.7078
 7312TIP3   OH243426   3.845   5.743   5.659 -0.3588  0.7327 -0.4977
 7312TIP3    H143427   3.808   5.672   5.605 -0.9981  1.2469 -0.7559
 7312TIP3    H243428   3.793   5.743   5.739  1.2811 -0.7366  0.6460
 7313TIP3   OH243429   6.432   1.537  16.359  0.3772 -0.4119 -0.1996
 7313TIP3    H143430   6.438   1.466  16.295  3.2263  0.3987 -0.9544
 7313TIP3    H243431   6.522   1.564  16.374 -0.5279  2.4694  0.7314
 7314TIP3   OH243432   6.065   0.212  12.825 -0.2458 -0.2040 -0.4497
 7314TIP3    H143433   6.106   0.287  12.868  2.8114 -1.5966 -0.6863
 7314TIP3    H243434   6.077   0.229  12.731 -0.2315 -0.6080 -0.5232
 7315TIP3   OH243435   5.282   1.811   0.509 -0.5036  0.5905 -0.1305
 7315TIP3    H143436   5.305   1.884   0.566 -0.3742  0.0903  0.4774
 7315TIP3    H243437   5.362   1.793   0.459  0.2424 -0.6349  1.4121
 7316TIP3   OH243438   5.659   0.749   6.058 -0.3496 -0.1624 -0.0967
 7316TIP3    H143439   5.657   0.704   6.142 -2.2826 -1.9621 -1.0307
 7316TIP3    H243440   5.634   0.839   6.078 -0.4138 -0.4743  1.2799
 7317TIP3   OH243441   2.812   0.316  14.178  0.8362 -0.1243  0.2673
 7317TIP3    H143442   2.812   0.268  14.262  0.9181 -0.9353 -0.1849
 7317TIP3    H243443   2.815   0.247  14.112 -1.4207  0.4089 -0.4665
 7318TIP3   OH243444   6.716   2.979  12.690  0.9644  0.1305  0.0931
 7318TIP3    H143445   6.702   2.896  12.735 -1.0402  0.5878  0.3833
 7318TIP3    H243446   6.773   3.029  12.749  1.4374 -0.6718  0.3342
 7319TIP3   OH243447   4.350   2.265   2.563 -0.4933  0.0184  0.1144
 7319TIP3    H143448   4.259   2.262   2.534 -0.6912  0.3123  0.6844
 7319TIP3    H243449   4.397   2.309   2.492 -0.7659 -0.2689 -0.2456
 7320TIP3   OH243450   5.826   6.126  16.193 -0.2055  0.1031  0.2191
 7320TIP3    H143451   5.783   6.134  16.279  0.6897  0.4159  0.6436
 7320TIP3    H243452   5.774   6.182  16.135  0.6845  1.9433  1.1366
 7321TIP3   OH243453   0.212   5.193   3.948  0.1559  0.0137 -0.0489
 7321TIP3    H143454   0.153   5.258   3.986  0.7107  0.1306  0.6548
 7321TIP3    H243455   0.297   5.237   3.945 -0.0540  0.3522 -2.4012
 7322TIP3   OH243456   5.951   3.780  16.035 -0.0730  0.2939  0.5674
 7322TIP3    H143457   5.865   3.793  15.995 -0.2836 -2.3980 -0.0765
 7322TIP3    H243458   5.947   3.831  16.116 -2.8705 -0.8766  1.3051
 7323TIP3   OH243459   0.326   1.916  15.188 -0.2355 -0.2418  0.0095
 7323TIP3    H143460   0.232   1.927  15.197 -0.2465  0.3015 -0.6984
 7323TIP3    H243461   0.359   2.004  15.170  0.4580 -0.3604  0.6267
 7324TIP3   OH243462   1.048   3.808   0.213  0.2601 -0.2938 -0.5423
 7324TIP3    H143463   1.058   3.714   0.199  1.3545 -0.0961 -1.2123
 7324TIP3    H243464   1.134   3.845   0.192  0.1718  0.7382  0.7967
 7325TIP3   OH243465   6.570   6.430   1.588  0.3799 -0.4704  0.0050
 7325TIP3    H143466   6.477   6.412   1.603  0.4378 -0.0077  0.9662
 7325TIP3    H243467   6.588   6.511   1.636  0.9057  0.3668 -1.5271
 7326TIP3   OH243468   3.198   1.536  16.948 -0.1463  0.2393  0.4270
 7326TIP3    H143469   3.278   1.579  16.919 -0.8372  0.0976 -1.8552
 7326TIP3    H243470   3.221   1.443  16.954  0.0097  0.2742  0.3674
 7327TIP3   OH243471   6.796   4.136  12.803 -0.2074  0.4605  0.1500
 7327TIP3    H143472   6.705   4.118  12.824 -0.0149  0.0500  0.6597
 7327TIP3    H243473   6.843   4.124  12.885  0.5886 -1.4266 -0.5105
 7328TIP3   OH243474   5.641   2.827  11.292 -0.7835 -0.1440  0.3430
 7328TIP3    H143475   5.728   2.822  11.332 -0.0938  1.6249 -0.8404
 7328TIP3    H243476   5.657   2.850  11.201 -2.4110 -2.2159 -0.5578
 7329TIP3   OH243477   1.744   0.775   3.873  0.2494  0.5215  0.1132
 7329TIP3    H143478   1.779   0.769   3.962 -0.0677  1.2447  0.2943
 7329TIP3    H243479   1.696   0.858   3.871 -1.6170 -0.5075 -0.0574
 7330TIP3   OH243480   1.818   3.015  10.857  0.2768 -0.0274  0.1195
 7330TIP3    H143481   1.894   3.047  10.809 -0.8214  0.8275 -1.0938
 7330TIP3    H243482   1.749   3.078  10.839 -0.8873 -1.0650  0.7554
 7331TIP3   OH243483   3.076   0.839   3.512  0.1919 -0.3347 -0.3260
 7331TIP3    H143484   3.025   0.915   3.542 -0.5928 -0.5768 -1.0166
 7331TIP3    H243485   3.125   0.871   3.436  0.6976 -0.2401  0.0317
 7332TIP3   OH243486   6.408   5.952  10.597 -0.2404 -0.1159  0.1895
 7332TIP3    H143487   6.431   5.955  10.504 -0.8294 -1.5825 -0.0345
 7332TIP3    H243488   6.376   6.040  10.617  0.3983  0.3734 -0.8511
 7333TIP3   OH243489   3.724   0.794   3.163 -0.2149  0.7062 -0.4679
 7333TIP3    H143490   3.680   0.769   3.245 -0.2053  1.2743 -0.2793
 7333TIP3    H243491   3.652   0.823   3.106 -0.4179 -1.3019 -1.2992
 7334TIP3   OH243492   4.750   1.734  11.540 -0.1587  0.6775 -0.1381
 7334TIP3    H143493   4.810   1.740  11.465 -0.1864  0.3543 -0.1862
 7334TIP3    H243494   4.730   1.641  11.547  0.5223  0.5868  0.8068
 7335TIP3   OH243495   0.515   2.471  14.919  0.2540  0.3026 -0.5991
 7335TIP3    H143496   0.570   2.545  14.944  1.4168  0.2765 -2.8503
 7335TIP3    H243497   0.546   2.446  14.832 -0.7764 -2.2089 -0.3199
 7336TIP3   OH243498   2.684   4.250  14.565 -0.0936  0.0707 -0.2369
 7336TIP3    H143499   2.610   4.220  14.618  0.5003  0.7550  1.0317
 7336TIP3    H243500   2.702   4.178  14.505 -1.0397 -0.5816  0.2427
 7337TIP3   OH243501   6.644   0.961  15.735  0.7259 -0.0092 -0.2504
 7337TIP3    H143502   6.704   0.929  15.668 -1.1156 -1.8139 -1.1813
 7337TIP3    H243503   6.644   0.893  15.802  0.0376  0.1531 -0.0732
 7338TIP3   OH243504   1.112   5.201   2.449 -0.2136  0.1291 -0.5405
 7338TIP3    H143505   1.090   5.291   2.471  0.7132  0.5717 -1.3669
 7338TIP3    H243506   1.096   5.194   2.355  0.1496 -0.4371 -0.5672
 7339TIP3   OH243507   0.208   4.875   0.591 -0.2375  0.1702  0.3680
 7339TIP3    H143508   0.298   4.848   0.569 -0.2376 -0.0058  0.5854
 7339TIP3    H243509   0.202   4.863   0.686 -1.4346 -2.6889  0.0153
 7340TIP3   OH243510   3.718   5.182   1.764  0.0409  0.0325  0.0743
 7340TIP3    H143511   3.775   5.234   1.709 -1.1152  1.2584 -0.0083
 7340TIP3    H243512   3.634   5.180   1.718 -1.0508  1.3603  1.8878
 7341TIP3   OH243513   1.108   5.163  13.786  0.3506  0.2878  0.0272
 7341TIP3    H143514   1.046   5.125  13.724  1.4091 -0.9624 -0.3289
 7341TIP3    H243515   1.191   5.167  13.737  1.0976 -0.2923  1.1900
 7342TIP3   OH243516   5.366   0.285  16.909 -0.4076  0.6319  0.1713
 7342TIP3    H143517   5.325   0.243  16.985  0.6404 -1.1812 -0.2008
 7342TIP3    H243518   5.294   0.310  16.852 -1.0842 -1.4582  0.0419
 7343TIP3   OH243519   5.743   0.321  15.030 -0.0658 -0.0471 -0.3601
 7343TIP3    H143520   5.820   0.292  14.981 -0.4707 -0.9257 -0.5004
 7343TIP3    H243521   5.774   0.329  15.120  0.6210  1.3417 -0.6990
 7344TIP3   OH243522   3.454   4.228   0.691  0.3362  0.2215 -0.1111
 7344TIP3    H143523   3.372   4.179   0.696  1.2569 -1.6148 -1.5045
 7344TIP3    H243524   3.513   4.183   0.752  0.4774  1.1853  0.4786
 7345TIP3   OH243525   6.660   3.878  16.391  0.4702  0.1673  0.4405
 7345TIP3    H143526   6.658   3.804  16.330 -0.3578 -1.3780  2.2370
 7345TIP3    H243527   6.736   3.929  16.365  1.0054 -1.2519 -0.9402
 7346TIP3   OH243528   3.446   0.157  13.781  0.2098 -0.1368 -0.1161
 7346TIP3    H143529   3.484   0.221  13.721 -0.5044 -0.2357 -0.6812
 7346TIP3    H243530   3.511   0.086  13.783  0.5590  0.1736 -0.2333
 7347TIP3   OH243531   6.761   0.279   5.896  0.2748  0.4128 -0.6334
 7347TIP3    H143532   6.756   0.306   5.988 -0.7658 -0.7515 -0.3204
 7347TIP3    H243533   6.823   0.206   5.896 -0.4429 -0.2056 -0.6857
 7348TIP3   OH243534   3.538   4.699  12.356  0.3967  0.4430  0.4076
 7348TIP3    H143535   3.618   4.646  12.363  0.3766  0.5355  1.3818
 7348TIP3    H243536   3.501   4.674  12.271  0.2479 -1.3173  0.9527
 7349TIP3   OH243537   0.242   4.056   4.993 -0.2166 -0.1836  0.1362
 7349TIP3    H143538   0.209   4.130   4.943 -0.0195 -0.9011 -1.0945
 7349TIP3    H243539   0.212   3.979   4.944 -0.6103 -0.9335  1.5056
 7350TIP3   OH243540   0.746   0.028  16.690 -0.5333 -0.4110 -0.4763
 7350TIP3    H143541   0.807   0.083  16.640 -2.1913  1.6100 -0.4122
 7350TIP3    H243542   0.736  -0.051  16.637  0.7365  0.0015 -1.3780
 7351TIP3   OH243543   4.916   6.721  12.427 -0.3735 -0.2492  0.0059
 7351TIP3    H143544   4.844   6.778  12.454 -1.1144 -1.0522 -0.2268
 7351TIP3    H243545   4.893   6.693  12.339  0.4878 -0.1154 -0.2674
 7352TIP3   OH243546   4.707   3.824   6.194  0.0401  0.6356 -0.0041
 7352TIP3    H143547   4.719   3.779   6.277  2.5367  0.0291 -0.6134
 7352TIP3    H243548   4.755   3.906   6.203  0.2506  0.6089 -0.7941
 7353TIP3   OH243549   0.185   4.435   3.391 -0.1588 -0.0570  0.6426
 7353TIP3    H143550   0.223   4.441   3.303 -0.3734  1.1090  0.6133
 7353TIP3    H243551   0.248   4.382   3.440  0.8145  0.6700  0.2193
 7354TIP3   OH243552   2.133   4.385  16.857 -0.0969 -0.5948  0.1569
 7354TIP3    H143553   2.105   4.423  16.941  1.8780 -1.1848  1.1572
 7354TIP3    H243554   2.105   4.294  16.861 -0.3901 -0.5122 -0.0163
 7355TIP3   OH243555   4.804   3.569  13.669 -0.8925 -0.0422  0.3492
 7355TIP3    H143556   4.853   3.490  13.689 -0.7692 -0.6640 -2.0452
 7355TIP3    H243557   4.870   3.632  13.641 -1.1725  0.1863  0.1873
 7356TIP3   OH243558   0.652   5.294   0.355 -0.0989  0.0727 -0.2598
 7356TIP3    H143559   0.740   5.304   0.392 -0.4276  0.6404  0.4038
 7356TIP3    H243560   0.627   5.383   0.329 -0.8002  0.0643  0.3414
 7357TIP3   OH243561   2.653   4.989  13.027  0.0466  0.0988  0.7256
 7357TIP3    H143562   2.611   4.985  13.113  0.3456 -1.6320  0.8199
 7357TIP3    H243563   2.728   4.931  13.033 -0.1580 -0.3906 -0.8167
 7358TIP3   OH243564   4.967   5.288  15.752 -0.2213 -0.0359 -0.0026
 7358TIP3    H143565   5.060   5.282  15.773  0.0581  1.5814 -0.6469
 7358TIP3    H243566   4.960   5.261  15.661  0.1338  2.6775 -0.9352
 7359TIP3   OH243567   0.885   5.478  12.475 -0.1852  0.0576 -0.1684
 7359TIP3    H143568   0.875   5.520  12.560  2.3279 -0.5962  0.5305
 7359TIP3    H243569   0.859   5.387  12.490  1.0045 -0.2502  0.1544
 7360TIP3   OH243570   2.246   1.938  12.411  0.4671  0.1441 -0.1907
 7360TIP3    H143571   2.284   1.854  12.386  2.6790  0.7080  0.9317
 7360TIP3    H243572   2.305   2.003  12.374 -1.1107  1.2276 -0.8938
 7361TIP3   OH243573   2.903   3.470  11.555  0.1553  0.1798 -0.5614
 7361TIP3    H143574   2.931   3.525  11.482  0.7511  2.4534  1.2580
 7361TIP3    H243575   2.859   3.530  11.616 -2.2955 -1.9912  0.0294
 7362TIP3   OH243576   3.777   1.096  12.265  0.0116 -0.2830 -0.5305
 7362TIP3    H143577   3.716   1.022  12.262  1.2120 -1.3040 -0.4076
 7362TIP3    H243578   3.812   1.094  12.354  0.8338 -0.2184 -0.8492
 7363TIP3   OH243579   2.119   0.268   6.302  0.0450  0.2127 -0.4806
 7363TIP3    H143580   2.080   0.293   6.386  0.8267 -0.7436  0.1862
 7363TIP3    H243581   2.052   0.215   6.259 -0.7379  1.5061 -0.9167
 7364TIP3   OH243582   3.383   2.495  14.280 -0.8697  0.2562  0.4150
 7364TIP3    H143583   3.465   2.469  14.321 -0.1053 -0.4385 -1.4225
 7364TIP3    H243584   3.387   2.591  14.277 -0.4496  0.2586  0.9546
 7365TIP3   OH243585   3.677   1.382   1.024 -0.0303  0.2147  0.2853
 7365TIP3    H143586   3.690   1.456   0.965 -0.4276  1.0506  1.2189
 7365TIP3    H243587   3.724   1.406   1.104 -0.8338 -0.1760  0.8953
 7366TIP3   OH243588   0.188   5.306   5.318 -0.2790  0.5015  0.3071
 7366TIP3    H143589   0.269   5.254   5.321 -0.2235  0.6028  0.6418
 7366TIP3    H243590   0.122   5.250   5.357  0.0717  1.1784  1.9662
 7367TIP3   OH243591   3.659   2.263  13.195  0.5096  0.2764  0.2862
 7367TIP3    H143592   3.574   2.272  13.153  0.9695 -0.1757 -0.7811
 7367TIP3    H243593   3.685   2.173  13.177  2.6222  1.2535 -2.2365
 7368TIP3   OH243594   1.714   1.948  12.923 -0.4670  0.2593  0.6470
 7368TIP3    H143595   1.621   1.958  12.940 -0.7257 -0.2144 -0.4060
 7368TIP3    H243596   1.719   1.915  12.833  0.7213  0.5071  0.6003
 7369TIP3   OH243597   4.953   1.418   2.455  0.2068  0.0606  0.3311
 7369TIP3    H143598   4.991   1.330   2.453 -0.1786 -0.0890 -0.5543
 7369TIP3    H243599   4.935   1.433   2.548 -2.2716 -1.9301  0.2915
 7370TIP3   OH243600   3.737   6.085  16.559 -0.1722  0.0638  0.2278
 7370TIP3    H143601   3.687   6.014  16.599 -0.1718 -0.2861 -0.3765
 7370TIP3    H243602   3.767   6.138  16.633  1.1372 -1.4353  0.8413
 7371TIP3   OH243603   3.285   5.945  16.207 -0.1205 -0.2529 -0.1091
 7371TIP3    H143604   3.364   5.951  16.261 -1.0501 -1.2515  1.3911
 7371TIP3    H243605   3.288   5.857  16.171 -0.2720 -0.0908 -0.5222
 7372TIP3   OH243606   6.554   0.190   5.371 -0.1615  0.6590  0.1578
 7372TIP3    H143607   6.581   0.277   5.340 -2.2494  1.2672 -0.1145
 7372TIP3    H243608   6.472   0.173   5.326  1.1564 -2.4218 -1.3722
 7373TIP3   OH243609   2.089   5.258  13.709  0.4220 -0.5937 -0.1244
 7373TIP3    H143610   2.093   5.162  13.700 -0.5518 -0.6726  0.1457
 7373TIP3    H243611   1.996   5.278  13.701  0.5553  0.2736  0.4495
 7374TIP3   OH243612   3.321   6.137  11.883 -0.4747 -0.4521  0.4011
 7374TIP3    H143613   3.409   6.141  11.845 -0.1608 -0.5252  1.1045
 7374TIP3    H243614   3.263   6.166  11.812 -0.1677 -2.7860 -0.9168
 7375TIP3   OH243615   0.430   1.287   2.515  0.9385  0.2285 -0.0822
 7375TIP3    H143616   0.392   1.340   2.444  0.4441  1.0455  0.7633
 7375TIP3    H243617   0.485   1.223   2.471 -1.0193 -0.6802 -1.3684
 7376TIP3   OH243618   6.168   0.490   0.902 -0.1363  0.0538  0.0254
 7376TIP3    H143619   6.105   0.423   0.875 -0.2574  0.2392 -0.1535
 7376TIP3    H243620   6.143   0.568   0.853 -1.0204  0.6949  1.4114
 7377TIP3   OH243621   1.247   2.065   0.310  0.4657  0.4080  0.0172
 7377TIP3    H143622   1.227   2.063   0.216  0.0173  1.9611  0.0620
 7377TIP3    H243623   1.331   2.111   0.316  0.9852 -0.5484  0.3216
 7378TIP3   OH243624   2.632   2.964   3.520  0.5093 -0.0375  0.0657
 7378TIP3    H143625   2.684   2.889   3.549  1.7413  0.8225  0.1574
 7378TIP3    H243626   2.649   2.970   3.426  0.4659  0.1645  0.0699
 7379TIP3   OH243627   1.358   3.019   2.945  0.0038 -0.4223  0.9567
 7379TIP3    H143628   1.324   2.969   2.871  0.9571 -0.1502  0.3108
 7379TIP3    H243629   1.289   3.083   2.964  0.3177  0.4529 -0.6473
 7380TIP3   OH243630   2.797   0.227  16.271 -0.2560  0.0307  0.5223
 7380TIP3    H143631   2.850   0.183  16.205  0.9613  0.7133  0.9918
 7380TIP3    H243632   2.848   0.219  16.352  0.9720  3.7088  0.3261
 7381TIP3   OH243633   2.144   3.956  14.599  0.0304  0.3200  0.0210
 7381TIP3    H143634   2.163   3.979  14.689  0.6334  1.6778 -0.4267
 7381TIP3    H243635   2.115   4.037  14.558  1.1839  0.0803 -1.3570
 7382TIP3   OH243636   5.876   3.084   3.492  0.3058  0.2414 -0.6706
 7382TIP3    H143637   5.946   3.047   3.545 -1.2162 -0.8587  0.6900
 7382TIP3    H243638   5.814   3.121   3.555 -0.6260  0.6538 -1.7741
 7383TIP3   OH243639   0.966   6.756  14.596  0.4579 -0.1993  0.0431
 7383TIP3    H143640   1.002   6.734  14.510 -0.1649  1.0438 -0.5557
 7383TIP3    H243641   0.874   6.733  14.590  0.4631 -0.3343  0.4620
 7384TIP3   OH243642   6.807   6.640   1.545  0.6119 -0.0755  0.3496
 7384TIP3    H143643   6.788   6.561   1.494 -0.4901 -0.6842  1.6531
 7384TIP3    H243644   6.806   6.710   1.480 -1.0712 -0.7722 -0.4582
 7385TIP3   OH243645   2.203   1.114   1.766 -0.1394 -0.8865 -0.1165
 7385TIP3    H143646   2.173   1.136   1.854  1.4654 -0.8608  0.4578
 7385TIP3    H243647   2.271   1.048   1.779  2.0255  0.9988 -1.0823
 7386TIP3   OH243648   6.175   5.688  11.769 -0.1588 -0.0356 -0.3354
 7386TIP3    H143649   6.200   5.684  11.677 -1.5276  0.5353 -0.7626
 7386TIP3    H243650   6.083   5.715  11.768 -0.0024  0.7226  1.2201
 7387TIP3   OH243651   4.297   0.791   2.919  0.0925  0.1875 -0.2267
 7387TIP3    H143652   4.390   0.769   2.922  0.1711 -0.2172 -3.0765
 7387TIP3    H243653   4.253   0.719   2.964  1.0355 -0.5367 -0.4386
 7388TIP3   OH243654   3.663   5.370   2.515 -0.2138  0.1044  0.0774
 7388TIP3    H143655   3.601   5.326   2.573  1.5642 -1.0191  1.2240
 7388TIP3    H243656   3.649   5.464   2.531  0.8863 -0.1555  3.1555
 7389TIP3   OH243657   2.046   0.785  13.032 -0.1141  0.4427 -0.1589
 7389TIP3    H143658   1.999   0.811  12.953 -1.7889 -0.9732  0.3064
 7389TIP3    H243659   2.076   0.696  13.013 -0.0176  0.3100  0.5906
 7390TIP3   OH243660   1.862   4.615  13.464 -0.3499 -0.1632  0.4820
 7390TIP3    H143661   1.892   4.568  13.542  0.7674 -1.0649 -0.4539
 7390TIP3    H243662   1.790   4.563  13.431  0.3522 -0.7942 -0.0884
 7391TIP3   OH243663   6.117   2.367   2.784  0.3642 -0.2725 -0.4493
 7391TIP3    H143664   6.098   2.295   2.724  1.8855  0.3711 -1.7641
 7391TIP3    H243665   6.063   2.440   2.752 -0.3625 -0.4977  0.2302
 7392TIP3   OH243666   1.534   4.665  14.461 -0.0807 -0.2002 -0.1685
 7392TIP3    H143667   1.588   4.624  14.393  0.2825  1.0412 -0.6700
 7392TIP3    H243668   1.597   4.698  14.525 -0.3063  0.3346 -0.2175
 7393TIP3   OH243669   2.990   2.170  14.184 -0.3031  0.4018  0.2065
 7393TIP3    H143670   3.033   2.233  14.241  2.7013 -0.6385 -0.7361
 7393TIP3    H243671   3.036   2.178  14.100 -2.0729 -0.7513 -0.9558
 7394TIP3   OH243672   1.763   6.498  15.312 -0.1720  0.2276  0.1953
 7394TIP3    H143673   1.804   6.418  15.344 -3.3490 -1.9265 -0.6499
 7394TIP3    H243674   1.681   6.504  15.360 -2.2195  0.2545 -2.9905
 7395TIP3   OH243675   5.822   4.824   5.344 -0.1302  0.4202  0.4941
 7395TIP3    H143676   5.829   4.764   5.418  1.7033  0.5766  0.4767
 7395TIP3    H243677   5.788   4.770   5.273  0.5943 -0.3795  0.7445
 7396TIP3   OH243678   2.155   2.703  13.586  0.1948  0.2570  0.2700
 7396TIP3    H143679   2.187   2.766  13.652 -1.0811  0.9165  0.2896
 7396TIP3    H243680   2.219   2.632  13.588  1.2457  1.1837  0.8244
 7397TIP3   OH243681   2.828   5.470  12.457 -0.1481 -0.4872 -0.3688
 7397TIP3    H143682   2.783   5.487  12.375  0.3625 -1.5120 -0.8810
 7397TIP3    H243683   2.908   5.423  12.432  0.7924  0.5251  0.5738
 7398TIP3   OH243684   5.746   2.697  12.327  0.0265  0.4759 -0.3592
 7398TIP3    H143685   5.714   2.787  12.315 -1.7822 -0.1985 -0.8302
 7398TIP3    H243686   5.773   2.670  12.239 -0.4413  0.2019 -0.4212
 7399TIP3   OH243687   6.135   5.345   0.076  0.0737  0.3040 -0.0833
 7399TIP3    H143688   6.223   5.376   0.097  1.2269 -0.8938 -2.6792
 7399TIP3    H243689   6.088   5.346   0.159  2.6493  0.5770  1.4633
 7400TIP3   OH243690   6.648   4.266  12.544  0.2194 -0.2294  0.1460
 7400TIP3    H143691   6.656   4.335  12.609  0.0181 -1.8866  2.0269
 7400TIP3    H243692   6.709   4.198  12.574 -0.0572 -1.1504 -1.2786
 7401TIP3   OH243693   4.685   0.460  13.201 -0.0124 -0.2788  0.1381
 7401TIP3    H143694   4.756   0.517  13.171 -0.9294  1.7778  1.6129
 7401TIP3    H243695   4.710   0.372  13.171  1.7176  0.7934 -1.8014
 7402TIP3   OH243696   1.989   4.580  17.096 -0.4279 -0.3919  0.1060
 7402TIP3    H143697   2.002   4.675  17.100 -0.2345 -0.3380 -1.2703
 7402TIP3    H243698   1.894   4.570  17.086 -0.4280 -0.3344  0.0465
 7403TIP3   OH243699   1.763   3.412   0.865  0.0514  0.6323  0.1325
 7403TIP3    H143700   1.779   3.497   0.905  0.3702  0.5251  0.2337
 7403TIP3    H243701   1.839   3.397   0.809  0.4715 -0.0140  0.8489
 7404TIP3   OH243702   2.817   3.193  16.242  0.2448  0.2798 -0.7100
 7404TIP3    H143703   2.786   3.276  16.279  1.6654  0.6699 -0.3324
 7404TIP3    H243704   2.742   3.134  16.248 -0.4373  1.2070  0.0877
 7405TIP3   OH243705   4.795   4.656  15.904  0.3029  0.3405 -0.1310
 7405TIP3    H143706   4.797   4.707  15.985  0.5393  1.8873 -1.0748
 7405TIP3    H243707   4.761   4.571  15.931  1.2088  0.5109  1.7478
 7406TIP3   OH243708   1.424   3.504   0.763 -0.0882  0.5206  0.8755
 7406TIP3    H143709   1.435   3.433   0.699  0.8909  1.4238 -0.0200
 7406TIP3    H243710   1.438   3.584   0.712 -2.5759  1.4767  1.5419
 7407TIP3   OH243711   5.844   2.334  13.410 -0.0283  0.2001 -0.2756
 7407TIP3    H143712   5.886   2.248  13.398 -1.5875 -0.9603  1.9754
 7407TIP3    H243713   5.788   2.344  13.332  1.0562 -0.2202 -1.1452
 7408TIP3   OH243714   4.283   1.109   3.956 -0.0903 -0.4154  0.3898
 7408TIP3    H143715   4.315   1.080   3.871 -0.1223 -0.8350  0.5173
 7408TIP3    H243716   4.362   1.117   4.010  0.0768  1.1780 -0.0599
 7409TIP3   OH243717   3.842   1.824  12.434  0.5055  0.1289  0.1767
 7409TIP3    H143718   3.792   1.852  12.510 -0.0312  1.7252 -0.7206
 7409TIP3    H243719   3.918   1.882  12.432  0.9642 -0.4682 -0.0241
 7410TIP3   OH243720   5.978   5.976   1.293  0.3654 -0.4811  0.3481
 7410TIP3    H143721   5.955   5.884   1.282  0.0182 -0.3445 -0.1139
 7410TIP3    H243722   6.041   5.977   1.365 -2.2417 -0.7517  2.8453
 7411TIP3   OH243723   3.509   6.552  14.429 -0.1579 -0.0713  0.3593
 7411TIP3    H143724   3.494   6.616  14.499 -0.8932  2.3860 -1.8589
 7411TIP3    H243725   3.587   6.504  14.456  1.5565  3.0253  1.3863
 7412TIP3   OH243726   4.356   0.096  15.998 -0.4405  0.1839  0.0827
 7412TIP3    H143727   4.445   0.077  16.028 -1.1062  0.7543  2.6570
 7412TIP3    H243728   4.360   0.185  15.963 -0.2495  0.7380  1.4660
 7413TIP3   OH243729   5.488   1.579   0.853 -0.0871 -0.2564  0.1887
 7413TIP3    H143730   5.469   1.610   0.941 -2.1960 -0.3999 -0.1616
 7413TIP3    H243731   5.444   1.494   0.847 -0.2238 -0.1132 -1.1009
 7414TIP3   OH243732   1.713   3.437  11.603 -0.0130  0.5096 -0.9182
 7414TIP3    H143733   1.656   3.442  11.526 -1.7553 -1.3708  0.1495
 7414TIP3    H243734   1.795   3.400  11.570 -0.3582  0.6902 -2.0263
 7415TIP3   OH243735   1.941   6.349   5.942  0.2985  0.5535  0.4525
 7415TIP3    H143736   1.862   6.326   5.991  0.0240 -0.1040 -0.2807
 7415TIP3    H243737   2.012   6.304   5.987 -0.3625 -2.9950 -1.6644
 7416TIP3   OH243738   0.825   4.912   5.769  0.2588 -0.4282  0.0004
 7416TIP3    H143739   0.848   4.969   5.842  1.0152  1.5900 -1.7131
 7416TIP3    H243740   0.908   4.877   5.739  0.1877  0.2738 -1.0537
 7417TIP3   OH243741   4.771   4.899   0.192 -0.5335  0.2425  0.4934
 7417TIP3    H143742   4.773   4.852   0.109  1.3490  0.1646  0.5544
 7417TIP3    H243743   4.743   4.834   0.256  1.7122 -0.7505  0.5236
 7418TIP3   OH243744   4.632   3.804   1.485  0.1266  0.1840 -1.0544
 7418TIP3    H143745   4.604   3.879   1.434 -0.3332  0.3267 -0.5911
 7418TIP3    H243746   4.617   3.729   1.428 -2.0724  0.1492 -0.5113
 7419TIP3   OH243747   1.741   0.261   4.369 -0.0819  0.4945 -0.2798
 7419TIP3    H143748   1.776   0.325   4.432 -1.3663  0.7883  0.1659
 7419TIP3    H243749   1.700   0.194   4.424 -0.0853  0.0734 -0.7909
 7420TIP3   OH243750   5.448   1.321  11.822  0.3759 -0.1799 -0.1345
 7420TIP3    H143751   5.526   1.275  11.854 -0.4919 -2.2087 -0.7436
 7420TIP3    H243752   5.413   1.365  11.900  0.3881 -1.8892  0.8960
 7421TIP3   OH243753   1.020   1.455  13.631  0.3612 -0.0032 -0.0601
 7421TIP3    H143754   0.992   1.371  13.667  3.2673 -0.8985  0.3899
 7421TIP3    H243755   1.044   1.507  13.708  2.4493 -0.3224 -0.4293
 7422TIP3   OH243756   2.632   3.087   5.809 -0.0097  0.1351  0.3175
 7422TIP3    H143757   2.551   3.138   5.800  0.1560  0.3412 -0.0487
 7422TIP3    H243758   2.622   3.040   5.891 -0.4119  0.3255  0.3799
 7423TIP3   OH243759   5.065   3.896  13.987 -0.2089 -0.5548 -0.1427
 7423TIP3    H143760   5.099   3.886  14.076  0.0901 -1.0190 -0.3086
 7423TIP3    H243761   4.983   3.847  13.987 -0.7759  0.3814  0.1955
 7424TIP3   OH243762   4.160   5.584   2.707 -0.5153  0.1828 -0.0325
 7424TIP3    H143763   4.191   5.635   2.782 -0.1126 -0.1862  0.0562
 7424TIP3    H243764   4.142   5.650   2.640  0.8282  0.3927 -0.2176
 7425TIP3   OH243765   4.262   0.318   0.277 -0.2766 -0.0775 -0.1182
 7425TIP3    H143766   4.298   0.235   0.245 -0.2082  0.1720 -0.7148
 7425TIP3    H243767   4.327   0.349   0.340 -0.3059 -0.4824  0.1137
 7426TIP3   OH243768   6.484   1.181   6.159  0.0553  0.1067  0.2173
 7426TIP3    H143769   6.568   1.221   6.139  0.5761  0.0728  2.0774
 7426TIP3    H243770   6.505   1.111   6.222 -1.1714 -1.1277 -0.6723
 7427TIP3   OH243771   2.392   1.729  14.848  0.0861  0.1948 -0.0881
 7427TIP3    H143772   2.433   1.667  14.907  2.0805  0.6359 -0.9320
 7427TIP3    H243773   2.400   1.689  14.761  0.0569  0.9635 -0.4538
 7428TIP3   OH243774   5.234   5.161  14.129  0.5299 -0.6046 -0.1572
 7428TIP3    H143775   5.265   5.145  14.040 -1.0392 -2.1565 -0.4650
 7428TIP3    H243776   5.173   5.090  14.147 -0.0932  0.3403  1.7359
 7429TIP3   OH243777   5.887   2.333  15.585  0.2093  0.5898 -0.9475
 7429TIP3    H143778   5.947   2.362  15.654  1.9549  0.1396 -2.2125
 7429TIP3    H243779   5.840   2.260  15.624  1.4529  0.0736 -0.3465
 7430TIP3   OH243780   0.502   5.165  14.715 -0.3327  0.0885 -0.4634
 7430TIP3    H143781   0.557   5.140  14.640 -0.6507 -0.0648 -0.6498
 7430TIP3    H243782   0.564   5.182  14.785 -0.0602 -0.5145 -0.5451
 7431TIP3   OH243783   4.773   3.651  14.566 -0.1617  0.0493 -0.4150
 7431TIP3    H143784   4.705   3.706  14.605  0.8112  0.1136  1.2612
 7431TIP3    H243785   4.845   3.711  14.548 -0.2288 -0.1610 -1.4702
 7432TIP3   OH243786   1.601   1.905  15.059  0.4618 -0.2491  0.4157
 7432TIP3    H143787   1.601   1.971  15.129 -2.3339  0.9298 -0.5761
 7432TIP3    H243788   1.603   1.821  15.105  2.3973  0.4573  1.7553
 7433TIP3   OH243789   0.431   3.847   5.619  0.0922 -0.1632  0.1909
 7433TIP3    H143790   0.426   3.855   5.523 -1.2280 -2.3540 -0.0053
 7433TIP3    H243791   0.373   3.916   5.652 -1.4439 -0.9369 -0.7422
 7434TIP3   OH243792   1.865   5.932   1.821  0.6900 -1.0954 -0.4104
 7434TIP3    H143793   1.860   5.963   1.912  1.4954  3.4586 -1.6727
 7434TIP3    H243794   1.775   5.940   1.788  1.0933  1.6509 -1.0908
 7435TIP3   OH243795   6.449   0.981  14.922 -0.4164  0.3417  0.2840
 7435TIP3    H143796   6.386   0.930  14.871 -1.1062  0.1089  1.3297
 7435TIP3    H243797   6.531   0.932  14.915 -0.6677 -0.0388 -0.0464
 7436TIP3   OH243798   3.829   2.916  12.602 -0.4121  0.2735  0.3545
 7436TIP3    H143799   3.902   2.854  12.601 -0.0692  0.4270  3.8812
 7436TIP3    H243800   3.870   3.002  12.595 -0.7182  0.2790 -2.2805
 7437TIP3   OH243801   1.255   1.982  10.939  0.2864 -0.0572 -0.0276
 7437TIP3    H143802   1.321   1.923  10.976  1.9740  0.2387 -2.3174
 7437TIP3    H243803   1.220   1.935  10.863 -2.2331 -0.1989  1.1217
 7438TIP3   OH243804   2.938   0.162  15.233  0.2110  0.5055  0.7958
 7438TIP3    H143805   2.962   0.069  15.242 -1.6599 -0.0546  0.4523
 7438TIP3    H243806   2.885   0.165  15.154  0.5532  1.9637  0.6016
 7439TIP3   OH243807   2.091   3.103  13.051 -0.2142 -0.9815 -0.6412
 7439TIP3    H143808   2.179   3.113  13.014  0.6186 -2.0209  0.9274
 7439TIP3    H243809   2.079   3.180  13.106  0.2553 -1.4363  0.1199
 7440TIP3   OH243810   1.627   1.739  16.424  0.2033  0.2479 -0.0006
 7440TIP3    H143811   1.685   1.812  16.446  2.0313 -1.4083  0.9569
 7440TIP3    H243812   1.545   1.781  16.398  1.1823  2.6304  0.4908
 7441TIP3   OH243813   3.838   2.920   3.683 -0.5161  0.1852  0.0344
 7441TIP3    H143814   3.862   2.948   3.772  1.2009  0.1972 -0.3854
 7441TIP3    H243815   3.871   2.830   3.677  0.6167  0.6430 -1.0069
 7442TIP3   OH243816   6.112   6.182   0.019 -0.8802 -0.0727 -0.3716
 7442TIP3    H143817   6.091   6.275   0.010 -3.0722 -0.4982 -0.2904
 7442TIP3    H243818   6.151   6.158  -0.064 -2.1086  0.5111 -1.1475
 7443TIP3   OH243819   2.723   3.458   1.619  0.1332 -0.5395  0.1916
 7443TIP3    H143820   2.788   3.403   1.576  0.7569  0.9463 -0.8415
 7443TIP3    H243821   2.657   3.475   1.552 -0.9228 -1.3444  0.9836
 7444TIP3   OH243822   4.285   4.274  15.668  0.2167 -0.4279 -0.3632
 7444TIP3    H143823   4.321   4.266  15.579 -0.4673 -0.4698 -0.6430
 7444TIP3    H243824   4.254   4.365  15.672  1.0645 -0.1431  0.1594
 7445TIP3   OH243825   0.316   2.206   1.297 -0.1087 -0.0467 -0.0947
 7445TIP3    H143826   0.399   2.161   1.313  0.8621  1.0849 -1.7294
 7445TIP3    H243827   0.269   2.149   1.237  0.4239  0.3185 -0.8720
 7446TIP3   OH243828   4.025   5.458   5.491  0.1083  0.8478  0.3036
 7446TIP3    H143829   3.938   5.492   5.469 -0.0449  0.4864  0.3473
 7446TIP3    H243830   4.085   5.529   5.468 -0.0998  0.7092 -0.6801
 7447TIP3   OH243831   0.745   3.586  14.778  0.3841 -0.1118 -0.2386
 7447TIP3    H143832   0.670   3.600  14.720 -0.4156 -0.3738  0.7079
 7447TIP3    H243833   0.770   3.495  14.764 -0.5815 -0.5278  0.7158
 7448TIP3   OH243834   4.781   3.818   1.877 -0.5870 -0.3227 -0.8630
 7448TIP3    H143835   4.713   3.845   1.816 -1.9171  2.0229  1.4688
 7448TIP3    H243836   4.753   3.852   1.962  3.7920  1.4109  0.1772
 7449TIP3   OH243837   0.222   3.336  13.992  0.5585 -0.3482  0.6286
 7449TIP3    H143838   0.148   3.352  13.934  1.7577 -2.0961 -1.5113
 7449TIP3    H243839   0.204   3.250  14.030  1.0146 -0.3463  0.8500
 7450TIP3   OH243840   0.906   1.488   2.445  0.3854 -0.1404  0.5016
 7450TIP3    H143841   0.882   1.419   2.506 -0.0273 -0.8050 -0.3892
 7450TIP3    H243842   0.926   1.563   2.501 -0.6861 -0.5071  1.4249
 7451TIP3   OH243843   0.685   3.084  13.043 -0.6339  0.0161  0.0130
 7451TIP3    H143844   0.621   3.156  13.039  0.1859  0.7147 -0.7502
 7451TIP3    H243845   0.704   3.075  13.137 -0.5366  0.9807  0.0962
 7452TIP3   OH243846   2.462   1.542  16.277 -0.6405  0.1235 -0.7946
 7452TIP3    H143847   2.390   1.535  16.214 -0.9636 -2.7859 -0.2553
 7452TIP3    H243848   2.533   1.492  16.237 -1.0984 -2.4424  1.3271
 7453TIP3   OH243849   4.945   0.638   4.046 -0.0390  0.2364 -0.0446
 7453TIP3    H143850   4.967   0.556   4.001 -2.2355 -0.6467  0.3460
 7453TIP3    H243851   5.029   0.675   4.071  1.0294 -2.0825  0.0796
 7454TIP3   OH243852   0.251   2.305  14.679  0.4805  0.0171  0.4476
 7454TIP3    H143853   0.277   2.248  14.606  1.6367 -0.2901  1.0749
 7454TIP3    H243854   0.264   2.394  14.645  1.3195 -0.1244  0.3589
 7455TIP3   OH243855   3.387   5.849   4.998 -0.4834 -0.0165  0.8024
 7455TIP3    H143856   3.452   5.798   5.046 -0.6180 -0.8438  0.1202
 7455TIP3    H243857   3.438   5.897   4.932 -0.6116 -1.0678 -0.0755
 7456TIP3   OH243858   0.866   1.840  13.758  0.3268  0.1419  0.2599
 7456TIP3    H143859   0.812   1.776  13.712 -1.0837  0.4897  1.3430
 7456TIP3    H243860   0.896   1.900  13.689  0.7451 -1.0008 -0.5993
 7457TIP3   OH243861   6.630   6.756   2.196 -0.2965  0.3229 -0.1119
 7457TIP3    H143862   6.651   6.671   2.235 -0.1869 -1.1394 -3.1139
 7457TIP3    H243863   6.715   6.795   2.177 -0.3203 -0.1221 -1.1696
 7458TIP3   OH243864   3.372   1.520   1.192 -0.6350  0.1585  0.2793
 7458TIP3    H143865   3.366   1.505   1.097 -1.3422 -2.5177  0.6398
 7458TIP3    H243866   3.418   1.442   1.225  1.1290  1.8282  1.9962
 7459TIP3   OH243867   3.389   2.446  15.162  0.0499  0.1541  0.2749
 7459TIP3    H143868   3.423   2.481  15.244 -0.9641  0.4525  0.5784
 7459TIP3    H243869   3.440   2.490  15.094 -0.1833  1.1056  0.7009
 7460TIP3   OH243870   5.969   5.786  13.817  0.6578  0.1062 -0.3269
 7460TIP3    H143871   6.055   5.801  13.778  1.7447 -0.9736  1.4937
 7460TIP3    H243872   5.946   5.697  13.791  1.3045 -0.5544  1.1862
 7461TIP3   OH243873   3.557   1.017  16.858  0.3950  0.2933 -0.2330
 7461TIP3    H143874   3.607   1.097  16.871  0.3943  0.4370 -1.0923
 7461TIP3    H243875   3.495   1.038  16.788 -1.5750  0.4384  1.4530
 7462TIP3   OH243876   4.562   1.420   4.827 -0.1960  0.2854 -0.0219
 7462TIP3    H143877   4.569   1.325   4.835 -3.9398 -0.2669 -1.1416
 7462TIP3    H243878   4.630   1.445   4.765  0.4540 -1.7310 -0.1911
 7463TIP3   OH243879   4.529   4.976  11.148 -0.1937 -0.6300 -0.0990
 7463TIP3    H143880   4.622   4.975  11.172 -0.2293  2.1273  0.5367
 7463TIP3    H243881   4.500   5.065  11.168 -2.9716 -1.3568 -0.3967
 7464TIP3   OH243882   5.596   6.023   2.494  0.5775  0.1634  0.3511
 7464TIP3    H143883   5.565   6.055   2.409  2.0775  1.9599  0.3932
 7464TIP3    H243884   5.631   5.936   2.476 -2.4062 -1.0863 -0.0707
 7465TIP3   OH243885   0.663   6.494   3.505 -0.2502 -0.1178  0.0140
 7465TIP3    H143886   0.676   6.430   3.575 -0.6161  0.3723  0.5414
 7465TIP3    H243887   0.686   6.578   3.545 -1.0905  0.2514 -0.2528
 7466TIP3   OH243888   3.741   0.261  14.046  0.6791 -0.0993 -0.3435
 7466TIP3    H143889   3.800   0.199  14.005 -0.7229 -0.3154 -2.1202
 7466TIP3    H243890   3.758   0.344  14.001  0.9732  0.3000  0.4814
 7467TIP3   OH243891   4.798   1.874  15.415 -0.0133  1.0086  0.4613
 7467TIP3    H143892   4.874   1.929  15.434  0.9108  0.7307 -2.0682
 7467TIP3    H243893   4.762   1.910  15.334 -1.6143  0.1157  0.7381
 7468TIP3   OH243894   2.166   5.811  16.156 -0.3720 -0.3972  0.1443
 7468TIP3    H143895   2.137   5.815  16.065 -3.1633  1.5662  1.0075
 7468TIP3    H243896   2.110   5.745  16.196 -0.3459 -0.0160  0.8174
 7469TIP3   OH243897   4.418   1.044  12.991  0.0049  0.6208  0.4862
 7469TIP3    H143898   4.400   1.041  12.896  0.9163 -0.4796  0.3319
 7469TIP3    H243899   4.507   1.011  13.000 -0.3634 -0.0747  1.8109
 7470TIP3   OH243900   2.103   0.117   2.187 -0.3225  0.6275  0.1224
 7470TIP3    H143901   2.015   0.123   2.224 -0.3119  0.3396  0.1991
 7470TIP3    H243902   2.092   0.062   2.109  0.3660 -2.6122  2.1086
 7471TIP3   OH243903   1.025   3.052   1.939  0.2842 -0.0166 -0.3447
 7471TIP3    H143904   1.108   3.021   1.903 -0.2046  0.8858 -2.4118
 7471TIP3    H243905   0.965   2.979   1.928  0.3497 -0.0342 -0.5827
 7472TIP3   OH243906   0.321   5.512   1.551  0.1119 -0.1797 -0.0939
 7472TIP3    H143907   0.385   5.456   1.508  0.6307  0.7450 -0.5617
 7472TIP3    H243908   0.334   5.598   1.512 -2.5984 -0.3071 -1.4863
 7473TIP3   OH243909   5.892   5.137  17.095  0.2512 -0.1915 -0.1712
 7473TIP3    H143910   5.847   5.135  17.010 -0.6542 -1.8881  0.3013
 7473TIP3    H243911   5.903   5.045  17.118  1.1902  0.2353  1.2011
 7474TIP3   OH243912   0.633   3.485   0.571  0.2578  0.3859  0.2593
 7474TIP3    H143913   0.552   3.496   0.620  1.0730 -0.0031  1.7922
 7474TIP3    H243914   0.648   3.391   0.570  0.0461  0.3588 -1.1368
 7475TIP3   OH243915   4.032   0.953  13.874 -0.3061 -0.4517  0.3118
 7475TIP3    H143916   4.003   1.036  13.835  0.3082 -0.1653  0.4611
 7475TIP3    H243917   4.005   0.958  13.966 -2.6904 -1.5566 -0.2307
 7476TIP3   OH243918   5.999   3.742  14.443 -0.1830  0.1404  0.2783
 7476TIP3    H143919   6.080   3.699  14.416 -0.5979 -1.5478  1.5331
 7476TIP3    H243920   6.009   3.753  14.538 -1.6816 -0.6976  0.5537
 7477TIP3   OH243921   6.154   5.247  10.495 -0.7796 -0.1396  0.6784
 7477TIP3    H143922   6.134   5.301  10.418 -1.9235 -0.6565  0.6004
 7477TIP3    H243923   6.148   5.308  10.569 -0.1609  0.2500  0.4264
 7478TIP3   OH243924   2.537   0.542  12.076  0.1763  0.5125 -0.1779
 7478TIP3    H143925   2.538   0.492  11.994 -2.0815  0.1461 -0.0386
 7478TIP3    H243926   2.561   0.631  12.049 -0.6646  0.4300 -1.2874
 7479TIP3   OH243927   3.240   5.778  13.541  0.3143  0.1604  0.0279
 7479TIP3    H143928   3.176   5.788  13.611  1.9537  0.3935  1.5702
 7479TIP3    H243929   3.268   5.687  13.547 -0.0530 -0.0261 -0.8403
 7480TIP3   OH243930   1.738   4.331   4.033  0.4888 -0.0810  0.7389
 7480TIP3    H143931   1.710   4.254   3.983  0.3515 -0.0050  0.6981
 7480TIP3    H243932   1.830   4.344   4.008  0.9417 -1.0710  1.8040
 7481TIP3   OH243933   6.718   0.079   1.704  0.1725  0.0583  0.5211
 7481TIP3    H143934   6.658   0.110   1.637 -1.2145  0.3149  1.8419
 7481TIP3    H243935   6.771   0.012   1.659 -1.3415 -0.4565 -0.5717
 7482TIP3   OH243936   5.244   4.439  11.410  1.0060  0.2380  0.3592
 7482TIP3    H143937   5.298   4.360  11.419 -0.0380 -0.4825  0.6278
 7482TIP3    H243938   5.289   4.492  11.345 -0.2953 -2.4395 -3.0823
 7483TIP3   OH243939   5.497   3.016  11.586 -0.0193  0.3222 -0.2922
 7483TIP3    H143940   5.436   2.978  11.649  0.4284 -0.4846 -0.3357
 7483TIP3    H243941   5.573   3.040  11.637  0.7839 -1.3105 -0.6462
 7484TIP3   OH243942   5.100   0.650   2.409 -0.4328  0.5903 -0.3602
 7484TIP3    H143943   5.047   0.647   2.489 -0.6884  2.8434 -0.3962
 7484TIP3    H243944   5.145   0.734   2.413  0.7152  0.0935 -1.8915
 7485TIP3   OH243945   2.000   1.147  10.566  0.6344  0.0183 -0.1637
 7485TIP3    H143946   1.937   1.131  10.636  1.1757 -0.6139  0.1974
 7485TIP3    H243947   1.947   1.157  10.487  0.1259 -1.9426 -0.1296
 7486TIP3   OH243948   4.174   0.647  13.162 -0.6582  0.3327 -0.6257
 7486TIP3    H143949   4.249   0.590  13.180 -0.4400  0.3712 -1.3521
 7486TIP3    H243950   4.206   0.735  13.182 -1.5570  0.0865  2.2320
 7487TIP3   OH243951   0.717   4.246   0.509 -0.1458  0.0891  0.2157
 7487TIP3    H143952   0.733   4.160   0.548 -0.6540  1.1313  3.0132
 7487TIP3    H243953   0.692   4.228   0.419  1.7235 -2.5288  0.1106
 7488TIP3   OH243954   6.340   3.990  15.592 -0.3739 -0.2550  0.0077
 7488TIP3    H143955   6.287   3.924  15.549 -1.6128  1.3071 -0.9866
 7488TIP3    H243956   6.387   4.034  15.521 -1.6454  1.6731  0.2709
 7489TIP3   OH243957   3.612   3.961   0.224 -0.1309  0.3485  0.1707
 7489TIP3    H143958   3.673   3.925   0.288 -0.2775 -0.1438  0.0389
 7489TIP3    H243959   3.589   3.887   0.168 -0.6069  0.5996  0.0276
 7490TIP3   OH243960   4.263   1.106   0.079 -0.2949  0.3936  0.0351
 7490TIP3    H143961   4.264   1.011   0.070  0.8072  0.0928  2.5121
 7490TIP3    H243962   4.335   1.136   0.023  0.2821 -0.3891  0.3390
 7491TIP3   OH243963   6.529   1.533   3.399  0.1609  0.0660  0.4928
 7491TIP3    H143964   6.456   1.471   3.391  0.0027  0.2309  0.6362
 7491TIP3    H243965   6.606   1.478   3.407 -0.0307 -0.1238  1.1273
 7492TIP3   OH243966   2.579   3.796  13.424  0.5688  0.2284  0.6175
 7492TIP3    H143967   2.555   3.727  13.486 -0.7638  0.0376 -0.0773
 7492TIP3    H243968   2.550   3.763  13.339  0.0661  1.5641  0.2498
 7493TIP3   OH243969   6.158   4.671  15.136  0.4339 -0.0916  0.3521
 7493TIP3    H143970   6.137   4.588  15.094 -0.3020 -0.9992  2.3771
 7493TIP3    H243971   6.074   4.713  15.149  0.1453 -1.3749  3.7912
 7494TIP3   OH243972   2.590   6.537   0.347 -0.0735  0.4443  0.0324
 7494TIP3    H143973   2.677   6.518   0.311 -0.9416  0.7005 -2.4599
 7494TIP3    H243974   2.578   6.472   0.416  2.4466  1.0582  1.1732
 7495TIP3   OH243975   2.090   4.026  13.964 -0.0424 -0.3918  0.2126
 7495TIP3    H143976   2.002   3.990  13.951  0.2752 -0.7559 -1.0719
 7495TIP3    H243977   2.127   4.033  13.876  1.9977 -2.2926  0.8027
 7496TIP3   OH243978   3.008   6.103   0.772 -0.7988 -0.8056  0.1027
 7496TIP3    H143979   2.930   6.154   0.794  1.0733  1.5268  1.9745
 7496TIP3    H243980   3.059   6.161   0.716  0.5234 -1.4195  0.6326
 7497TIP3   OH243981   3.821   6.280   3.527 -0.7465 -0.0748 -0.6862
 7497TIP3    H143982   3.728   6.262   3.538 -1.5764  4.0585  0.8151
 7497TIP3    H243983   3.827   6.376   3.528  3.5783 -0.1710 -0.2997
 7498TIP3   OH243984   5.897   4.842   0.946  0.1649  0.0241  0.3569
 7498TIP3    H143985   5.901   4.871   1.037 -0.1345 -2.6156  1.2858
 7498TIP3    H243986   5.985   4.808   0.928 -0.0967 -0.4858  0.0291
 7499TIP3   OH243987   5.969   5.089  15.837  0.4365 -0.1533 -0.6574
 7499TIP3    H143988   5.975   5.185  15.832 -0.6941 -0.0297  0.1019
 7499TIP3    H243989   6.055   5.059  15.807  0.2069  1.0228 -2.7026
 7500TIP3   OH243990   3.444   2.876   2.967  0.0906  0.3480 -0.0696
 7500TIP3    H143991   3.407   2.920   3.043  1.6695  0.4764  0.6545
 7500TIP3    H243992   3.442   2.783   2.990  1.0607  0.4258  0.3812
 7501TIP3   OH243993   3.818   3.713  12.886  0.2743  0.3420 -0.2813
 7501TIP3    H143994   3.724   3.712  12.902  0.3563  1.0825  0.3532
 7501TIP3    H243995   3.828   3.759  12.803  0.0231 -0.7068 -0.9081
 7502TIP3   OH243996   3.947   1.632   3.550  0.5971 -0.5161  0.0012
 7502TIP3    H143997   3.993   1.548   3.543  0.1372 -0.8405  0.7521
 7502TIP3    H243998   3.907   1.631   3.637 -0.7407 -0.2092 -0.5833
 7503TIP3   OH243999   3.008   1.923   0.158 -0.3084 -0.2251 -0.1332
 7503TIP3    H144000   2.952   1.996   0.131 -0.9052 -0.8299 -0.5579
 7503TIP3    H244001   3.086   1.965   0.195 -0.0027  0.6544 -1.6720
 7504TIP3   OH244002   1.444   0.254  17.191  0.2522 -0.3929 -0.8189
 7504TIP3    H144003   1.410   0.178  17.144 -3.2008  0.8123 -0.5275
 7504TIP3    H244004   1.394   0.256  17.273  1.1642  1.4975 -0.2593
 7505TIP3   OH244005   4.763   0.878   1.837  0.4595 -0.0253 -0.1731
 7505TIP3    H144006   4.820   0.935   1.887  0.0433  0.1464  0.1162
 7505TIP3    H244007   4.804   0.872   1.750 -0.5996  2.4881 -0.9371
 7506TIP3   OH244008   6.536   0.840  11.817  0.0669  0.9875 -0.1866
 7506TIP3    H144009   6.482   0.835  11.896  0.9750  1.4028  0.4698
 7506TIP3    H244010   6.484   0.794  11.751 -0.5808  0.3624  0.7171
 7507TIP3   OH244011   4.343   3.474  14.502  0.1553  0.1767 -0.5629
 7507TIP3    H144012   4.398   3.551  14.516 -0.2127  0.5636 -1.2048
 7507TIP3    H244013   4.254   3.508  14.494 -0.2030 -0.4494  0.4931
 7508TIP3   OH244014   4.167   4.844   4.731 -0.2448  0.0868 -0.0459
 7508TIP3    H144015   4.216   4.852   4.812 -0.3315 -0.0564  0.0197
 7508TIP3    H244016   4.125   4.759   4.736  1.8730 -1.1288 -1.4191
 7509TIP3   OH244017   4.180   3.167   3.252 -0.3430 -0.5048 -0.2963
 7509TIP3    H144018   4.156   3.259   3.245 -2.1227 -0.9341 -0.2970
 7509TIP3    H244019   4.262   3.167   3.301  0.0552  1.1038 -0.8994
 7510TIP3   OH244020   4.676   2.631   4.644 -0.5131  0.6274 -0.2376
 7510TIP3    H144021   4.706   2.722   4.640 -1.6808  0.9887 -2.2086
 7510TIP3    H244022   4.707   2.592   4.563  1.6686 -1.3752  1.4510
 7511TIP3   OH244023   5.688   1.286  15.538 -0.1924  0.2932 -0.0524
 7511TIP3    H144024   5.671   1.236  15.617  1.0401 -0.1685 -0.0534
 7511TIP3    H244025   5.723   1.370  15.570  0.6883 -0.0437 -0.0858
 7512TIP3   OH244026   5.707   5.617  16.575 -0.0037 -0.0279 -0.2305
 7512TIP3    H144027   5.775   5.598  16.640  0.8996  1.3906 -0.7056
 7512TIP3    H244028   5.739   5.577  16.494  0.7570  1.4138 -0.6751
 7513TIP3   OH244029   3.786   2.727   4.523  0.0477 -0.1275  0.1050
 7513TIP3    H144030   3.786   2.653   4.584 -0.3658  0.2605  0.5878
 7513TIP3    H244031   3.830   2.797   4.570  1.6130 -0.4359 -0.8382
 7514TIP3   OH244032   0.033   5.549  13.494  0.2561 -0.5120  0.1979
 7514TIP3    H144033   0.088   5.544  13.572 -0.5981  1.3153  0.9761
 7514TIP3    H244034  -0.041   5.492  13.513 -0.2796  0.4271  1.0563
 7515TIP3   OH244035   4.656   3.128  13.018  0.4258 -0.0431 -0.0347
 7515TIP3    H144036   4.644   3.182  12.941  0.3417 -0.3361 -0.2278
 7515TIP3    H244037   4.711   3.181  13.076 -0.0932  0.4670  0.0024
 7516TIP3   OH244038   1.672   4.533   2.785  0.5954 -0.4215 -0.7534
 7516TIP3    H144039   1.618   4.606   2.815  0.6747 -0.1250 -1.3150
 7516TIP3    H244040   1.609   4.468   2.755  0.4367 -1.4572  1.6055
 7517TIP3   OH244041   3.931   2.120   0.780 -0.1982 -0.6381 -0.7957
 7517TIP3    H144042   3.965   2.176   0.850 -4.3123  1.6685 -0.3554
 7517TIP3    H244043   4.003   2.059   0.762  3.4362  2.6330  0.9926
 7518TIP3   OH244044   5.151   3.073   1.712  0.0378 -0.1003  0.1586
 7518TIP3    H144045   5.206   3.142   1.750  1.0366 -0.1793 -1.0811
 7518TIP3    H244046   5.101   3.039   1.786  0.3499  1.1916  0.9973
 7519TIP3   OH244047   6.042   6.469   2.760  0.0726 -0.2845  0.1057
 7519TIP3    H144048   5.965   6.488   2.813 -0.6506  0.0468 -1.0152
 7519TIP3    H244049   6.018   6.389   2.711  0.5203 -0.3041 -0.0877
 7520TIP3   OH244050   4.712   5.441   3.545  0.0027  0.0865 -0.0228
 7520TIP3    H144051   4.707   5.412   3.454 -0.2035  2.7837 -0.9510
 7520TIP3    H244052   4.774   5.379   3.586  2.2771  0.3920 -2.6740
 7521TIP3   OH244053   5.572   5.039  12.168  0.5610 -0.1719 -0.3174
 7521TIP3    H144054   5.502   5.093  12.205  1.8376  2.4688 -1.5422
 7521TIP3    H244055   5.536   4.950  12.169 -3.0224  1.0952 -1.3129
 7522TIP3   OH244056   4.666   3.617   1.295  0.0215  0.5182 -0.0457
 7522TIP3    H144057   4.699   3.670   1.223 -0.1315 -1.0153 -1.2973
 7522TIP3    H244058   4.741   3.607   1.354 -0.0468  2.3691  0.4061
 7523TIP3   OH244059   0.300   1.179   5.873 -0.2007  0.2172  0.2324
 7523TIP3    H144060   0.333   1.095   5.905  0.2424  1.1890  2.5310
 7523TIP3    H244061   0.255   1.218   5.948 -0.0226  2.2360 -0.6330
 7524TIP3   OH244062   1.786   0.550  12.276 -0.2015  0.4135  0.0696
 7524TIP3    H144063   1.705   0.514  12.311  0.0650 -0.2327  0.0330
 7524TIP3    H244064   1.774   0.645  12.282 -1.0085  0.3311 -0.0443
 7525TIP3   OH244065   4.687   5.738   3.145  0.0847 -0.1577  0.2338
 7525TIP3    H144066   4.670   5.814   3.090 -1.5534 -1.2240 -0.8417
 7525TIP3    H244067   4.684   5.664   3.085 -0.3902 -1.2325  1.5300
 7526TIP3   OH244068   0.891   5.769  15.965  0.0816  0.2208 -0.1693
 7526TIP3    H144069   0.884   5.859  15.998 -1.1655  0.4292 -0.9144
 7526TIP3    H244070   0.884   5.778  15.870 -0.8319 -0.7051 -0.2066
 7527TIP3   OH244071   6.262   0.866  14.742  0.5829  0.1679 -0.7044
 7527TIP3    H144072   6.328   0.891  14.678 -0.0738 -0.3339 -1.5868
 7527TIP3    H244073   6.232   0.780  14.714 -0.1017  0.1787 -0.0302
 7528TIP3   OH244074   5.099   1.994   3.088 -0.4701 -0.5471 -0.8318
 7528TIP3    H144075   5.086   2.047   3.167 -0.1328 -0.1161 -1.0629
 7528TIP3    H244076   5.029   1.928   3.092 -0.8215 -0.1641 -0.4790
 7529TIP3   OH244077   5.152   4.034  14.457  0.4040  0.2505  0.0846
 7529TIP3    H144078   5.172   3.942  14.438 -0.4751 -0.6335  2.9568
 7529TIP3    H244079   5.192   4.051  14.542 -1.3184  1.8278  0.6625
 7530TIP3   OH244080   2.220   4.390   1.711 -0.3002  0.7820 -0.2041
 7530TIP3    H144081   2.281   4.371   1.639 -0.7574 -3.5269  0.2383
 7530TIP3    H244082   2.138   4.348   1.683 -0.6040 -0.7011  2.5647
 7531TIP3   OH244083   0.424   0.288   6.195  0.1455 -0.0600  0.1034
 7531TIP3    H144084   0.469   0.330   6.121 -0.6837 -0.0079 -0.3850
 7531TIP3    H244085   0.493   0.273   6.259  0.7707  0.4770 -0.4221
 7532TIP3   OH244086   6.244   1.475   1.727 -0.3978 -0.2322 -0.1144
 7532TIP3    H144087   6.164   1.423   1.721  0.3601 -1.3946 -0.4270
 7532TIP3    H244088   6.286   1.465   1.642  0.9639 -1.1304  0.6303
 7533TIP3   OH244089   0.027   5.811  13.378  0.2846  0.2682 -0.5405
 7533TIP3    H144090   0.109   5.838  13.337  1.4008 -1.7665  0.2325
 7533TIP3    H244091   0.048   5.728  13.421 -1.2756  1.2817  2.5067
 7534TIP3   OH244092   2.780   5.022   1.196  0.7300 -0.0615 -0.1074
 7534TIP3    H144093   2.782   5.108   1.154  0.3842  0.2364  0.4720
 7534TIP3    H244094   2.830   4.965   1.138  3.1904  1.0776  0.7714
 7535TIP3   OH244095   3.734   1.982   0.134 -0.0685  0.7548  1.1741
 7535TIP3    H144096   3.775   1.923   0.070  0.9825  0.3057  2.2300
 7535TIP3    H244097   3.691   2.049   0.080 -0.6988 -0.5588 -0.0379
 7536TIP3   OH244098   3.746   3.200   5.594  0.2212  0.0039 -0.3597
 7536TIP3    H144099   3.727   3.280   5.644  0.5574 -1.0519  1.5649
 7536TIP3    H244100   3.659   3.167   5.569 -0.1009 -0.4682  1.2694
 7537TIP3   OH244101   2.689   1.135  11.209  0.1400 -0.6115 -0.4066
 7537TIP3    H144102   2.674   1.213  11.156 -0.9486 -0.1662  0.5139
 7537TIP3    H244103   2.641   1.065  11.165 -0.5115 -0.3104 -0.1863
 7538TIP3   OH244104   5.511   4.657   2.513 -0.1396 -0.3940  0.1479
 7538TIP3    H144105   5.523   4.592   2.444  1.3919 -1.4603  1.3420
 7538TIP3    H244106   5.556   4.735   2.481  1.0467 -1.0590  0.1252
 7539TIP3   OH244107   4.268   0.539   2.568 -0.5725  0.0516  0.3992
 7539TIP3    H144108   4.290   0.553   2.476  1.2237 -2.8921  0.2455
 7539TIP3    H244109   4.189   0.484   2.566 -0.0932 -0.6540  0.5729
 7540TIP3   OH244110   0.280   3.187  11.840  0.1692  0.4516 -0.7021
 7540TIP3    H144111   0.253   3.154  11.926 -0.8198  0.6578 -0.9204
 7540TIP3    H244112   0.302   3.279  11.855 -0.8625  0.7390 -0.8067
 7541TIP3   OH244113   1.366   5.371   1.204  0.1421  0.2111  0.0758
 7541TIP3    H144114   1.271   5.369   1.196  0.3225  0.0859 -2.7331
 7541TIP3    H244115   1.389   5.283   1.235 -0.7109  0.8580  2.8176
 7542TIP3   OH244116   0.864   3.141  11.669 -0.0473  0.1139 -0.4223
 7542TIP3    H144117   0.769   3.129  11.660  0.1631 -0.1028 -3.5789
 7542TIP3    H244118   0.889   3.193  11.592  2.2644  1.2672  0.9930
 7543TIP3   OH244119   0.331   1.570  12.190 -0.0642  0.0431  0.6658
 7543TIP3    H144120   0.299   1.486  12.155 -0.7119  0.4025  0.3678
 7543TIP3    H244121   0.319   1.563  12.284  1.2707 -0.7645  0.8011
 7544TIP3   OH244122   2.891   4.567  10.834 -0.1442 -0.3975  0.4098
 7544TIP3    H144123   2.820   4.629  10.852  1.2262  1.6918 -0.9950
 7544TIP3    H244124   2.926   4.595  10.750  2.1558 -1.5638  0.9216
 7545TIP3   OH244125   5.548   4.816   3.605 -0.5550  0.2171  0.1823
 7545TIP3    H144126   5.585   4.866   3.677  0.3523 -1.2070  0.7501
 7545TIP3    H244127   5.577   4.861   3.526 -0.9262  1.3544  0.6718
 7546TIP3   OH244128   2.327   4.900  13.470 -0.7142 -0.1789 -0.5655
 7546TIP3    H144129   2.302   4.857  13.552  0.1534 -2.2234 -1.3025
 7546TIP3    H244130   2.420   4.918  13.480 -1.0991  1.8974 -0.1817
 7547TIP3   OH244131   1.661   4.019  13.984  0.1358 -0.3733  0.1361
 7547TIP3    H144132   1.597   3.962  14.027  1.4873 -1.3641  0.9500
 7547TIP3    H244133   1.727   3.959  13.949  0.7819  0.6187 -0.4073
 7548TIP3   OH244134   3.564   6.142   0.937  0.4014  0.2385 -0.0435
 7548TIP3    H144135   3.500   6.201   0.977  0.6678 -0.6648  1.7846
 7548TIP3    H244136   3.638   6.199   0.916 -0.7369  1.2040 -1.7287
 7549TIP3   OH244137   2.526   6.021  11.431  0.1481 -0.2484 -0.4404
 7549TIP3    H144138   2.575   5.991  11.508  0.9476  0.1013 -0.8065
 7549TIP3    H244139   2.592   6.027  11.362 -0.4604  0.0060 -1.0023
 7550TIP3   OH244140   3.375   0.123   5.141  0.3209 -0.1833 -0.8522
 7550TIP3    H144141   3.285   0.102   5.115  0.1127 -0.5070  0.0917
 7550TIP3    H244142   3.369   0.213   5.174  0.2290 -0.4111 -0.2482
 7551TIP3   OH244143   5.161   6.738  16.362  0.2344 -1.1896 -0.0581
 7551TIP3    H144144   5.155   6.747  16.267 -0.4500 -2.0882 -0.1166
 7551TIP3    H244145   5.164   6.828  16.395 -1.8721 -0.7786 -0.8047
 7552TIP3   OH244146   6.797   6.440  13.494  0.1436  0.7068 -0.1740
 7552TIP3    H144147   6.816   6.399  13.410  2.0805  0.9575  0.0928
 7552TIP3    H244148   6.790   6.367  13.555  1.9260  0.6308 -0.0063
 7553TIP3   OH244149   0.554   1.726  11.941  0.1408  0.2947 -0.4561
 7553TIP3    H144150   0.474   1.745  11.891 -0.4767 -0.3207  0.2731
 7553TIP3    H244151   0.594   1.653  11.893  0.6971  1.1258 -1.2794
 7554TIP3   OH244152   0.415   6.430   0.546  0.1399 -0.1482  0.3052
 7554TIP3    H144153   0.332   6.388   0.525  0.4485 -0.2352 -0.8173
 7554TIP3    H244154   0.411   6.515   0.502  0.8122 -0.3320 -0.1273
 7555TIP3   OH244155   6.145   5.054  11.779  0.1926  0.5981 -0.0533
 7555TIP3    H144156   6.120   5.008  11.699  1.3575  0.0418 -0.1263
 7555TIP3    H244157   6.198   4.991  11.828 -0.6556  0.8660  1.2597
 7556TIP3   OH244158   2.734   1.579  13.360  0.4666  0.9004 -0.3508
 7556TIP3    H144159   2.806   1.591  13.422 -0.2186  0.7389  0.5007
 7556TIP3    H244160   2.768   1.611  13.277  2.2319 -1.0424 -0.4535
 7557TIP3   OH244161   5.664   4.931   1.793  0.1171 -0.4995  0.2225
 7557TIP3    H144162   5.701   4.938   1.881  0.9937 -0.7042 -0.1263
 7557TIP3    H244163   5.703   4.851   1.757  0.8045  0.3072 -0.8434
 7558TIP3   OH244164   2.460   2.245   6.091  0.7250 -0.3843 -0.8775
 7558TIP3    H144165   2.464   2.268   6.184 -1.2794 -1.2022 -0.5286
 7558TIP3    H244166   2.480   2.327   6.045  0.3287  0.3912  0.2796
 7559TIP3   OH244167   5.274   2.546   2.305  0.8226  0.2233 -0.0585
 7559TIP3    H144168   5.321   2.569   2.386  1.5344  1.8600 -0.8916
 7559TIP3    H244169   5.219   2.622   2.287  0.4126 -0.2700 -0.9458
 7560TIP3   OH244170   2.980   6.490   3.392 -0.0563  0.3351  0.1491
 7560TIP3    H144171   2.907   6.526   3.340  1.2386 -0.2310 -2.1877
 7560TIP3    H244172   2.962   6.520   3.481 -3.6588 -0.5742 -0.0904
 7561TIP3   OH244173   4.419   4.298   1.544  0.5190 -0.0759 -0.1631
 7561TIP3    H144174   4.349   4.357   1.572  2.6067  1.7776  1.5359
 7561TIP3    H244175   4.373   4.218   1.518 -2.3141  1.6097 -0.8200
 7562TIP3   OH244176   4.060   6.729   0.709  0.2228  0.0327  0.4072
 7562TIP3    H144177   3.972   6.740   0.745 -0.4678 -2.0840 -0.4655
 7562TIP3    H244178   4.066   6.797   0.641 -1.2590 -0.5604 -0.3842
 7563TIP3   OH244179   0.025   1.116   4.290 -0.6187 -0.0384  0.5646
 7563TIP3    H144180   0.063   1.120   4.378 -1.7105  0.1125  1.0436
 7563TIP3    H244181  -0.053   1.171   4.295  0.1002  1.2073 -0.9220
 7564TIP3   OH244182   6.082   6.658  13.908  0.2865  0.2949  0.4340
 7564TIP3    H144183   6.100   6.570  13.941 -0.0438  0.1336  0.1880
 7564TIP3    H244184   6.163   6.683  13.863  0.9024  0.6877  1.7009
 7565TIP3   OH244185   2.841   2.138  15.761 -0.4761 -0.0635  0.1454
 7565TIP3    H144186   2.773   2.180  15.814 -0.4143 -0.8034  0.8383
 7565TIP3    H244187   2.869   2.206  15.700 -1.8602  0.2398 -0.1864
 7566TIP3   OH244188   6.243   3.581   1.622  0.0412  0.4361 -0.1507
 7566TIP3    H144189   6.169   3.536   1.582  0.6508  0.7978 -1.7603
 7566TIP3    H244190   6.312   3.516   1.626 -0.3552  0.0785  1.4181
 7567TIP3   OH244191   6.231   3.208   5.307 -0.5027  0.6083 -0.1513
 7567TIP3    H144192   6.310   3.161   5.281 -1.1309 -1.5010  1.4057
 7567TIP3    H244193   6.261   3.295   5.330  1.2146  0.1415 -0.4716
 7568TIP3   OH244194   4.907   1.421  14.945 -0.2243 -0.1725 -0.2166
 7568TIP3    H144195   4.884   1.333  14.974  1.5941 -0.5121  0.2894
 7568TIP3    H244196   4.863   1.480  15.007 -1.3977 -0.6923 -0.5237
 7569TIP3   OH244197   1.862   0.203  11.263 -0.0139 -0.1231 -0.9357
 7569TIP3    H144198   1.835   0.115  11.287 -1.1545  0.7369  1.2286
 7569TIP3    H244199   1.782   0.243  11.227  0.4955  0.0455 -1.9134
 7570TIP3   OH244200   5.830   0.876  11.862 -0.1115  0.3641 -0.1260
 7570TIP3    H144201   5.783   0.902  11.942  0.5460 -0.8520  0.6929
 7570TIP3    H244202   5.768   0.822  11.814  0.7077 -2.4082  1.6080
 7571TIP3   OH244203   0.973   4.348   1.151 -0.0849  0.0772 -0.4010
 7571TIP3    H144204   0.922   4.292   1.093 -0.3064 -0.8767  0.6767
 7571TIP3    H244205   1.042   4.384   1.095 -0.7507 -0.1921 -1.4195
 7572TIP3   OH244206   1.000   1.413  15.930 -0.0600  0.0047  0.7789
 7572TIP3    H144207   0.954   1.396  15.848  2.2393  2.3672 -1.1366
 7572TIP3    H244208   1.024   1.326  15.962 -0.1963 -0.9472 -1.5427
 7573TIP3   OH244209   0.922   1.205  13.686  0.4324  0.5032 -0.0687
 7573TIP3    H144210   0.911   1.157  13.767 -1.2242  1.0318  0.0554
 7573TIP3    H244211   0.895   1.144  13.617 -0.0256  0.6776 -0.0493
 7574TIP3   OH244212   0.411   1.896   0.757  0.0893  0.3362 -0.1172
 7574TIP3    H144213   0.384   1.856   0.675 -1.4325  0.8061  0.1356
 7574TIP3    H244214   0.468   1.969   0.731  0.1385  0.0919 -0.7092
 7575TIP3   OH244215   3.115   5.053   5.462  0.5735 -0.3972  0.1233
 7575TIP3    H144216   3.163   4.973   5.487 -2.4918 -2.2856  0.5176
 7575TIP3    H244217   3.168   5.124   5.498  2.6174 -2.3292  1.2406
 7576TIP3   OH244218   1.299   0.660  16.546 -0.1953 -0.7943 -0.3137
 7576TIP3    H144219   1.270   0.611  16.623 -1.6768  0.8194  0.2386
 7576TIP3    H244220   1.223   0.659  16.487 -0.7740  1.7508  0.2444
 7577TIP3   OH244221   0.955   0.325   3.058  0.2335 -0.2280  0.1817
 7577TIP3    H144222   0.989   0.297   3.143  0.0750  0.9945  0.6791
 7577TIP3    H244223   1.026   0.308   2.996  1.9657  2.5561  1.2391
 7578TIP3   OH244224   0.683   1.756  15.924  1.3154 -0.4332  0.1331
 7578TIP3    H144225   0.713   1.759  15.834  2.8907 -0.4655  0.6230
 7578TIP3    H244226   0.706   1.841  15.961 -1.2300  0.4151 -0.0131
 7579TIP3   OH244227   5.283   6.359  12.991  0.3124  0.3045  0.0689
 7579TIP3    H144228   5.230   6.295  13.038 -1.3157  1.6898  0.2124
 7579TIP3    H244229   5.268   6.339  12.899 -0.7393  0.8615  0.1015
 7580TIP3   OH244230   2.794   3.657  12.594  0.8208 -0.1091 -0.1287
 7580TIP3    H144231   2.713   3.631  12.638  1.0151 -1.3955 -0.4981
 7580TIP3    H244232   2.768   3.726  12.534  0.2938  0.6384  0.9167
 7581TIP3   OH244233   6.357   0.062  15.822 -0.2120 -0.3797 -0.1339
 7581TIP3    H144234   6.381   0.035  15.911  0.5613  0.0398 -0.2103
 7581TIP3    H244235   6.270   0.102  15.831  0.2375  0.4579  0.5809
 7582TIP3   OH244236   5.859   4.168  14.598  0.5318  0.1915  0.3074
 7582TIP3    H144237   5.875   4.079  14.629 -1.4275  0.1490  1.3543
 7582TIP3    H244238   5.842   4.158  14.504 -1.6853 -0.8650  0.7696
 7583TIP3   OH244239   6.680   4.472   4.869 -0.4136  0.3037  0.4077
 7583TIP3    H144240   6.688   4.532   4.795  1.9053  0.1585  0.4819
 7583TIP3    H244241   6.720   4.519   4.943  2.9258 -1.7551  0.1273
 7584TIP3   OH244242   6.621   0.372  12.245  0.0225 -0.0362  0.0050
 7584TIP3    H144243   6.704   0.339  12.210 -0.5604 -3.0425  1.1433
 7584TIP3    H244244   6.641   0.398  12.335 -0.0622  0.1228 -0.0227
 7585TIP3   OH244245   0.812   1.949  15.133  0.7263 -0.4962 -0.9507
 7585TIP3    H144246   0.825   2.018  15.068 -0.9093  0.2633 -0.5183
 7585TIP3    H244247   0.774   1.994  15.209  0.4498 -1.7225 -0.3413
 7586TIP3   OH244248   4.764   3.847   2.954 -0.0884  0.2478 -0.3004
 7586TIP3    H144249   4.759   3.780   2.887 -0.5904  0.8623 -0.8919
 7586TIP3    H244250   4.717   3.810   3.029 -1.5195  0.4358 -1.0672
 7587TIP3   OH244251   5.386   6.282  16.511 -0.7069  0.6032  0.1555
 7587TIP3    H144252   5.354   6.337  16.440 -0.6755  1.1725  0.5823
 7587TIP3    H244253   5.338   6.200  16.501  0.9327 -0.1839 -1.9150
 7588TIP3   OH244254   6.565   6.706  15.821 -0.2320  0.2462  0.5263
 7588TIP3    H144255   6.526   6.663  15.897 -1.4799  1.6292  0.7166
 7588TIP3    H244256   6.495   6.764  15.788  0.5593  0.2801 -1.1782
 7589TIP3   OH244257   2.238   1.202  14.747 -0.1396  0.1759  0.9569
 7589TIP3    H144258   2.331   1.183  14.754 -0.0580  0.6991  1.3384
 7589TIP3    H244259   2.198   1.152  14.818 -0.0262  0.7160  1.4124
 7590TIP3   OH244260   1.822   3.744  11.896 -0.3091  0.0520 -0.4851
 7590TIP3    H144261   1.865   3.745  11.811 -1.2847 -0.3531 -0.9935
 7590TIP3    H244262   1.803   3.835  11.915 -1.3829  0.0296 -1.3779
 7591TIP3   OH244263   1.291   1.342   2.527 -0.5143 -0.1977  0.1532
 7591TIP3    H144264   1.303   1.305   2.615  1.7815  0.6934  0.2959
 7591TIP3    H244265   1.339   1.425   2.530  0.3325 -0.5434 -2.1703
 7592TIP3   OH244266   5.641   4.999   5.135  0.5574 -0.4000 -0.8305
 7592TIP3    H144267   5.571   4.952   5.091  0.2690  0.9705 -1.8831
 7592TIP3    H244268   5.713   5.000   5.072  1.5805 -1.7802  0.2268
 7593TIP3   OH244269   0.317   2.133  14.441  0.8152 -0.1920 -0.1465
 7593TIP3    H144270   0.342   2.167  14.355  0.6407 -1.8504 -0.8694
 7593TIP3    H244271   0.272   2.051  14.424  0.0244 -0.1547  1.4934
 7594TIP3   OH244272   6.810   6.704   2.758 -0.5989  0.0473  0.2599
 7594TIP3    H144273   6.800   6.736   2.847 -0.2736 -0.1885  0.3836
 7594TIP3    H244274   6.777   6.614   2.761  3.2168 -1.5368  1.1788
 7595TIP3   OH244275   6.617   6.109   6.016 -0.0298  0.4606  0.0807
 7595TIP3    H144276   6.550   6.097   6.084 -0.1139 -1.9308 -0.3604
 7595TIP3    H244277   6.681   6.167   6.057 -0.3255 -0.5223  2.0421
 7596TIP3   OH244278   4.250   5.216   0.171  0.0837  0.4653 -0.2636
 7596TIP3    H144279   4.298   5.221   0.254  0.8617 -0.1418 -0.6626
 7596TIP3    H244280   4.158   5.212   0.197  0.2830  0.8849  0.5471
 7597TIP3   OH244281   6.439   5.612  16.874 -0.0617  0.2921 -0.4752
 7597TIP3    H144282   6.489   5.657  16.943 -1.8959 -1.9021  2.5279
 7597TIP3    H244283   6.476   5.523  16.872 -1.7320 -0.4509 -0.3793
 7598TIP3   OH244284   4.699   1.335   2.154  0.0877  0.0338 -0.2577
 7598TIP3    H144285   4.649   1.406   2.193  1.3226  1.5463 -1.2793
 7598TIP3    H244286   4.750   1.298   2.226  0.1816  0.8611  0.1051
 7599TIP3   OH244287   2.359   3.912  14.438 -0.2222  0.1077  0.4303
 7599TIP3    H144288   2.314   3.937  14.358 -0.1657 -1.1344 -0.0119
 7599TIP3    H244289   2.292   3.918  14.506 -0.7315 -0.4692 -0.0060
 7600TIP3   OH244290   4.184   1.042  15.826  0.5366 -0.5541  0.4339
 7600TIP3    H144291   4.117   1.048  15.758  0.0539  1.3416  1.0397
 7600TIP3    H244292   4.168   0.957  15.867  0.3511 -1.3975 -1.2948
 7601TIP3   OH244293   4.524   0.086  14.695 -0.1608 -0.1485  0.2805
 7601TIP3    H144294   4.441   0.038  14.705  0.6393 -1.4690  0.8158
 7601TIP3    H244295   4.589   0.031  14.738  1.5797 -0.7883 -2.8689
 7602TIP3   OH244296   2.743   2.188  14.596  0.3251 -0.6956  0.3773
 7602TIP3    H144297   2.718   2.180  14.689  1.3572  0.9126  0.8253
 7602TIP3    H244298   2.670   2.147  14.549  1.1262 -4.4483  1.9622
 7603TIP3   OH244299   4.935   1.164  13.855 -0.2863 -0.3457  0.0944
 7603TIP3    H144300   4.844   1.136  13.865 -1.1553  0.3899 -3.9421
 7603TIP3    H244301   4.971   1.107  13.787  0.5072  2.6289 -2.2328
 7604TIP3   OH244302   3.076   3.869  14.547 -0.0732 -0.2731  0.4029
 7604TIP3    H144303   2.987   3.847  14.573  0.1167  0.6396  1.9357
 7604TIP3    H244304   3.065   3.927  14.472 -0.7457 -0.4960  0.3235
 7605TIP3   OH244305   1.299   4.793  15.030  0.7030 -0.4115  0.5581
 7605TIP3    H144306   1.383   4.763  15.063  0.1071 -3.6616 -0.5062
 7605TIP3    H244307   1.250   4.712  15.013 -2.3114  1.3353  0.3174
 7606TIP3   OH244308   4.076   4.487   5.292  0.1543  0.1311 -0.0282
 7606TIP3    H144309   4.002   4.432   5.265  0.0738 -0.1188  0.6764
 7606TIP3    H244310   4.078   4.479   5.388 -1.2421  3.1294  0.3666
 7607TIP3   OH244311   3.821   6.763   0.825 -0.2694 -0.0609  0.0663
 7607TIP3    H144312   3.793   6.673   0.808 -0.3939 -0.1773  0.8455
 7607TIP3    H244313   3.745   6.816   0.800  0.3227 -0.0315 -1.8204
 7608TIP3   OH244314   6.503   1.402   2.141 -0.5554 -0.2280 -0.5690
 7608TIP3    H144315   6.431   1.437   2.194 -0.0173 -0.8286  0.5954
 7608TIP3    H244316   6.499   1.452   2.060 -0.4122  1.8441  0.6303
 7609TIP3   OH244317   6.636   6.449   2.715  0.1529  0.3459  0.1283
 7609TIP3    H144318   6.578   6.521   2.691  0.1759 -0.1424 -1.5472
 7609TIP3    H244319   6.663   6.411   2.631  0.4439 -1.3723  0.9526
 7610TIP3   OH244320   3.730   0.146   2.692  0.2653 -0.2284 -0.2946
 7610TIP3    H144321   3.705   0.165   2.601  0.5718  1.5028 -0.0651
 7610TIP3    H244322   3.778   0.224   2.720 -1.4848  0.1548  1.9742
 7611TIP3   OH244323   0.558   0.679   4.032 -0.3669 -0.0047  0.1013
 7611TIP3    H144324   0.586   0.759   4.077  0.8927 -0.4060  0.0849
 7611TIP3    H244325   0.540   0.707   3.942 -1.0396  0.4531  0.3705
 7612TIP3   OH244326   3.776   5.689   0.048 -0.2199 -0.5002 -0.1713
 7612TIP3    H144327   3.693   5.699   0.002 -0.3865 -0.8621  0.0539
 7612TIP3    H244328   3.842   5.717  -0.016 -0.6075  1.3549  0.1599
 7613TIP3   OH244329   0.856   3.197   1.711  0.1111 -0.0247  0.1681
 7613TIP3    H144330   0.847   3.117   1.659 -0.9825 -0.2664  0.7071
 7613TIP3    H244331   0.803   3.181   1.789  2.3212  0.0290  1.7660
 7614TIP3   OH244332   0.061   1.150  11.488 -0.0771 -0.2396 -0.1594
 7614TIP3    H144333   0.034   1.203  11.413 -0.3190 -1.0313 -0.6491
 7614TIP3    H244334   0.137   1.196  11.524 -2.0256  2.0459  1.2748
 7615TIP3   OH244335   5.054   5.387  13.619  0.2674 -0.2250 -0.3816
 7615TIP3    H144336   5.001   5.420  13.547 -0.3801 -1.8639 -0.7112
 7615TIP3    H244337   5.008   5.308  13.647  0.4982  0.3758  1.8486
 7616TIP3   OH244338   2.112   4.462   1.963  0.0972  0.3268  0.0513
 7616TIP3    H144339   2.096   4.557   1.957 -0.7024  0.1530 -0.8972
 7616TIP3    H244340   2.143   4.438   1.876  0.8679 -0.1973  0.4612
 7617TIP3   OH244341   0.899   5.163   3.803  0.0795 -0.4820  0.4261
 7617TIP3    H144342   0.852   5.106   3.864 -1.0521 -2.0664 -1.7649
 7617TIP3    H244343   0.845   5.242   3.798  1.4946  0.8030  3.2502
 7618TIP3   OH244344   1.579   1.988  14.069 -0.1494  0.0306  0.0225
 7618TIP3    H144345   1.590   1.951  14.157  1.4908 -1.9359 -0.9192
 7618TIP3    H244346   1.598   2.082  14.081 -0.7830 -0.0278  1.8772
 7619TIP3   OH244347   3.851   2.736  15.165  0.0341  0.2919  0.3536
 7619TIP3    H144348   3.908   2.777  15.230  0.4581  2.2773 -1.1920
 7619TIP3    H244349   3.901   2.661  15.132  0.3690  0.0807  1.3031
 7620TIP3   OH244350   3.780   5.601  12.837  0.1745  0.1634  0.1028
 7620TIP3    H144351   3.837   5.601  12.760  0.3846  0.2114  0.2581
 7620TIP3    H244352   3.710   5.662  12.814  0.5559  0.6392  0.1829
 7621TIP3   OH244353   0.146   3.419   6.034 -0.1544  0.5478  0.2319
 7621TIP3    H144354   0.166   3.329   6.059 -0.4133  0.7125  1.0679
 7621TIP3    H244355   0.051   3.427   6.047 -0.4177  0.4394 -1.4953
 7622TIP3   OH244356   4.112   3.477   0.428  0.2534 -0.3981  0.4786
 7622TIP3    H144357   4.196   3.437   0.451  0.7333  0.0892 -0.3628
 7622TIP3    H244358   4.120   3.496   0.335 -1.1689 -1.2138  0.1723
 7623TIP3   OH244359   3.530   5.419  12.597 -0.1459  0.1164  0.2854
 7623TIP3    H144360   3.445   5.420  12.551 -0.9318 -2.1251  1.5134
 7623TIP3    H244361   3.590   5.381  12.533 -0.9662 -1.8666  0.6151
 7624TIP3   OH244362   5.252   2.895  13.210 -0.2985  0.4294  0.2550
 7624TIP3    H144363   5.242   2.803  13.231  2.3392  0.2221  0.9202
 7624TIP3    H244364   5.248   2.899  13.114 -1.6611 -0.1707  0.2760
 7625TIP3   OH244365   6.743   3.755  11.630  0.0355  0.2482  0.0823
 7625TIP3    H144366   6.762   3.708  11.549  0.0944  0.0415  0.2152
 7625TIP3    H244367   6.647   3.761  11.632  0.0313  0.2008  0.0261
 7626TIP3   OH244368   2.397   2.025   1.486 -0.3924  0.0035 -0.6776
 7626TIP3    H144369   2.302   2.028   1.488 -0.4101 -0.8846  1.3004
 7626TIP3    H244370   2.418   2.007   1.394 -2.3109 -3.6393 -0.5815
 7627TIP3   OH244371   0.633   2.381  10.962 -0.0176 -0.6732 -0.7647
 7627TIP3    H144372   0.704   2.429  10.919  2.7836  0.4720  4.3538
 7627TIP3    H244373   0.667   2.292  10.971  1.8882  0.2568  3.1978
 7628TIP3   OH244374   4.302   4.622   3.826  1.1801 -0.0582 -0.3013
 7628TIP3    H144375   4.309   4.667   3.910 -0.0310 -0.1519 -0.1315
 7628TIP3    H244376   4.312   4.691   3.761 -1.2911  0.6340 -0.0491
 7629TIP3   OH244377   3.983   3.569   0.825 -0.2588  0.4829 -0.4200
 7629TIP3    H144378   3.974   3.665   0.831 -1.0168  0.4748 -1.2445
 7629TIP3    H244379   3.968   3.550   0.733 -0.9881 -0.5243 -0.1028
 7630TIP3   OH244380   0.791   1.924  14.781  0.1155 -0.2691 -0.5573
 7630TIP3    H144381   0.807   2.015  14.805 -0.3472 -0.3037 -0.1028
 7630TIP3    H244382   0.699   1.909  14.801  0.2565 -0.9161 -0.3614
 7631TIP3   OH244383   2.302   0.284   1.102 -0.0029 -0.2575 -0.1244
 7631TIP3    H144384   2.355   0.354   1.066  0.9268 -1.3546 -0.9683
 7631TIP3    H244385   2.316   0.210   1.043 -2.9654 -0.4490 -0.7505
 7632TIP3   OH244386   5.515   0.777   2.346 -0.6881  0.0222  0.2807
 7632TIP3    H144387   5.571   0.809   2.275  1.5392 -1.3688  1.3244
 7632TIP3    H244388   5.574   0.730   2.404 -3.0243 -1.8392  1.2964
 7633TIP3   OH244389   5.127   6.010  13.660  0.5058 -0.6653  0.2329
 7633TIP3    H144390   5.189   6.026  13.589  1.8417  0.7876  1.6430
 7633TIP3    H244391   5.170   5.944  13.715  0.2898 -0.5290  0.5733
 7634TIP3   OH244392   3.665   2.083  14.686  0.1461 -0.8675  0.0559
 7634TIP3    H144393   3.701   2.002  14.652  0.4383 -0.6994 -0.0434
 7634TIP3    H244394   3.630   2.060  14.772  0.3634 -1.0650  0.0907
 7635TIP3   OH244395   1.152   1.802   5.320 -0.3050  0.1570 -0.3822
 7635TIP3    H144396   1.127   1.865   5.252 -3.1760 -1.8560 -1.3800
 7635TIP3    H244397   1.069   1.764   5.348  1.1140 -1.4348  1.9498
 7636TIP3   OH244398   2.621   6.300  14.394 -0.3977  0.5249  0.4805
 7636TIP3    H144399   2.569   6.356  14.452 -1.8923 -2.0882  1.8313
 7636TIP3    H244400   2.558   6.265  14.331  0.9770  2.3053 -2.1147
 7637TIP3   OH244401   3.695   2.834   6.101 -0.1244 -0.4247 -0.1928
 7637TIP3    H144402   3.782   2.841   6.063  0.6045 -0.8556  1.3225
 7637TIP3    H244403   3.664   2.925   6.106  0.6430 -0.1698  0.1403
 7638TIP3   OH244404   2.893   4.618   0.199  0.6434 -0.0876 -0.0475
 7638TIP3    H144405   2.941   4.700   0.215  0.9485 -0.6899  2.4559
 7638TIP3    H244406   2.850   4.598   0.282 -1.3681 -1.2867 -1.2867
 7639TIP3   OH244407   5.758   3.764   2.710 -0.4072  0.0276 -0.5976
 7639TIP3    H144408   5.708   3.842   2.733  0.9667  1.1457 -1.2109
 7639TIP3    H244409   5.756   3.710   2.789 -0.6039  1.1195  0.1683
 7640TIP3   OH244410   6.548   4.004  15.775  0.7515 -0.1625 -0.3116
 7640TIP3    H144411   6.462   4.005  15.734  0.9573  1.2304 -0.7817
 7640TIP3    H244412   6.579   3.914  15.766  0.4684 -0.0872 -2.5915
 7641TIP3   OH244413   1.061   0.082   2.702 -0.1465 -0.2100  0.0184
 7641TIP3    H144414   1.021   0.169   2.707  0.9047  0.2473  0.9851
 7641TIP3    H244415   0.987   0.022   2.691 -0.7928  0.8922 -2.3275
 7642TIP3   OH244416   1.914   3.209   0.429 -0.4781  0.0891 -0.3846
 7642TIP3    H144417   1.992   3.186   0.479  0.4577 -0.8848 -2.1812
 7642TIP3    H244418   1.932   3.295   0.392 -0.5072  0.1237 -0.3183
 7643TIP3   OH244419   5.556   2.319   2.831  0.1239  0.3616  0.6295
 7643TIP3    H144420   5.629   2.291   2.886 -0.1041  2.3691  2.0396
 7643TIP3    H244421   5.573   2.412   2.814 -0.8041  0.2514 -1.1502
 7644TIP3   OH244422   0.427   0.059  13.866  0.0923 -0.0579  0.7136
 7644TIP3    H144423   0.506   0.025  13.824 -0.5651 -1.4209  0.5251
 7644TIP3    H244424   0.439   0.039  13.959 -0.7150 -1.8173  0.4955
 7645TIP3   OH244425   4.758   2.881   5.708  0.3558  0.5414  0.0903
 7645TIP3    H144426   4.800   2.799   5.736 -0.2689 -0.2197 -1.1227
 7645TIP3    H244427   4.805   2.907   5.630 -0.3325  0.5885 -0.3147
 7646TIP3   OH244428   6.081   3.174   3.932  0.1918 -0.3925 -0.0352
 7646TIP3    H144429   6.119   3.113   3.995  1.9967  1.2361  0.5468
 7646TIP3    H244430   5.989   3.148   3.926  0.8333 -3.0114  0.3010
 7647TIP3   OH244431   6.416   5.938   6.126  0.3134 -1.0101  0.1869
 7647TIP3    H144432   6.459   5.978   6.202  1.1461  0.1970 -0.8765
 7647TIP3    H244433   6.481   5.876   6.092  0.5618 -0.4502 -0.3972
 7648TIP3   OH244434   4.988   6.362   5.645  0.1742  0.0471 -0.3210
 7648TIP3    H144435   4.945   6.346   5.729  1.8504  0.8186  0.7435
 7648TIP3    H244436   5.080   6.373   5.667  0.4931  1.4970 -2.1097
 7649TIP3   OH244437   4.827   6.612  15.107 -0.0486 -0.5562 -0.3176
 7649TIP3    H144438   4.841   6.689  15.052  0.9018  0.0067  0.6700
 7649TIP3    H244439   4.911   6.566  15.105 -0.4589 -1.3087 -0.5002
 7650TIP3   OH244440   2.624   2.100   1.753  0.4494 -0.8087 -0.6021
 7650TIP3    H144441   2.630   2.031   1.687  0.3964 -2.4762  1.0248
 7650TIP3    H244442   2.691   2.076   1.818 -0.7749 -0.3571  0.8914
 7651TIP3   OH244443   0.451   2.875  15.521 -0.7556 -0.2252 -0.2101
 7651TIP3    H144444   0.415   2.807  15.464  0.7252  0.7926 -2.5103
 7651TIP3    H244445   0.510   2.828  15.580 -0.2598 -1.0336 -1.3106
 7652TIP3   OH244446   3.704   0.443   4.322 -0.0266 -0.1225  0.5785
 7652TIP3    H144447   3.655   0.361   4.328  0.0534 -0.3810 -1.6198
 7652TIP3    H244448   3.795   0.417   4.335 -0.1215 -0.1749  1.1627
 7653TIP3   OH244449   0.229   2.267   2.043  0.2952  0.6179  0.2966
 7653TIP3    H144450   0.151   2.323   2.045  0.6375  1.1123 -0.1320
 7653TIP3    H244451   0.224   2.221   1.959 -0.1420 -0.2410  0.7704
 7654TIP3   OH244452   5.573   3.873   4.255 -0.3206  0.0794  0.0802
 7654TIP3    H144453   5.495   3.928   4.270  0.9413  2.0225 -0.0647
 7654TIP3    H244454   5.571   3.855   4.161 -0.7276 -0.0809  0.1168
 7655TIP3   OH244455   0.606   4.091   2.245  0.3960  0.1143  0.2600
 7655TIP3    H144456   0.682   4.150   2.236  0.4875 -0.0939 -0.3600
 7655TIP3    H244457   0.532   4.143   2.215 -0.3803  1.6154  4.1701
 7656TIP3   OH244458   6.195   5.399   1.663  0.4684 -0.7309 -0.4366
 7656TIP3    H144459   6.159   5.471   1.612 -0.1753 -0.5655  0.2340
 7656TIP3    H244460   6.290   5.408   1.654  0.3674 -0.7754 -1.6779
 7657TIP3   OH244461   3.189   4.762   4.755 -0.0367  0.2847  1.0380
 7657TIP3    H144462   3.233   4.844   4.775 -1.3055  0.6877  2.3856
 7657TIP3    H244463   3.132   4.746   4.830  0.6464 -2.1839  1.1336
 7658TIP3   OH244464   0.310   0.180   4.358 -0.3618  0.4616 -0.3643
 7658TIP3    H144465   0.259   0.212   4.432  0.3549 -2.1648  1.3686
 7658TIP3    H244466   0.401   0.189   4.385 -0.1119 -3.1479  0.4041
 7659TIP3   OH244467   5.870   2.843   2.438  0.8687 -0.1657  0.3520
 7659TIP3    H144468   5.830   2.756   2.447  2.1903 -0.9387 -0.9040
 7659TIP3    H244469   5.841   2.890   2.516 -0.7549 -1.3658  0.5397
 7660TIP3   OH244470   6.084   5.667  17.156 -0.4938  0.1304 -0.1351
 7660TIP3    H144471   6.060   5.584  17.114  0.0513  0.1620 -0.5081
 7660TIP3    H244472   6.082   5.731  17.085  0.7503  0.1260 -0.1939
 7661TIP3   OH244473   3.558   5.504  15.720  0.3444  0.4596  0.4405
 7661TIP3    H144474   3.590   5.528  15.634 -1.5289 -1.8048 -0.9996
 7661TIP3    H244475   3.516   5.584  15.753 -0.2220  0.9712 -1.4205
 7662TIP3   OH244476   4.483   2.585  16.706 -0.2710 -0.1603 -0.6310
 7662TIP3    H144477   4.549   2.521  16.734  0.0099  0.6544  0.7031
 7662TIP3    H244478   4.505   2.664  16.756 -0.3202  1.1382 -2.5685
 7663TIP3   OH244479   3.026   4.076  15.542  0.5005 -0.0901 -0.3178
 7663TIP3    H144480   2.969   4.113  15.610  1.8207 -1.2240  1.4789
 7663TIP3    H244481   3.113   4.111  15.562  0.7753  0.3478 -2.0711
 7664TIP3   OH244482   4.764   0.472  13.573  0.1472  0.0374 -0.0056
 7664TIP3    H144483   4.727   0.408  13.512 -0.8903  1.0303 -0.4382
 7664TIP3    H244484   4.858   0.472  13.554  0.3858 -2.2396  0.8553
 7665TIP3   OH244485   2.598   5.152   5.428  0.5032 -0.0153  0.2958
 7665TIP3    H144486   2.541   5.185   5.497 -0.0569  1.2271 -0.7189
 7665TIP3    H244487   2.682   5.134   5.472 -0.9065 -3.0101  2.0632
 7666TIP3   OH244488   3.208   6.533  13.436 -0.6340 -0.3345  0.2818
 7666TIP3    H144489   3.133   6.589  13.453 -1.8158 -2.1505  1.3847
 7666TIP3    H244490   3.208   6.471  13.509  0.6001 -1.7781 -0.8966
 7667TIP3   OH244491   6.134   2.273  15.449  0.1830 -0.5071 -0.1830
 7667TIP3    H144492   6.048   2.313  15.461  0.6171  0.2759  0.3892
 7667TIP3    H244493   6.145   2.269  15.354 -0.7343 -1.1779 -0.2740
 7668TIP3   OH244494   1.439   1.897   3.561 -0.2990  0.2848  0.0613
 7668TIP3    H144495   1.466   1.906   3.652  2.1138  0.2665 -0.5757
 7668TIP3    H244496   1.377   1.824   3.560 -1.4173  1.1577  1.8405
 7669TIP3   OH244497   6.330   6.220  16.318  0.4383 -0.0777 -0.0256
 7669TIP3    H144498   6.297   6.238  16.230  1.3231 -0.0156 -0.3539
 7669TIP3    H244499   6.271   6.268  16.376 -0.8366 -1.0184 -0.4945
 7670TIP3   OH244500   3.202   6.501  14.448 -0.9363 -0.0301 -0.3871
 7670TIP3    H144501   3.144   6.426  14.432  0.7194 -1.2038 -1.2369
 7670TIP3    H244502   3.274   6.465  14.500  0.0461  0.8859 -1.0757
 7671TIP3   OH244503   3.066   5.329   6.548  0.2551  0.3423 -0.1905
 7671TIP3    H144504   3.106   5.242   6.552  1.0977  0.7225 -0.0356
 7671TIP3    H244505   3.133   5.387   6.585  0.0865  1.1808 -1.1597
 7672TIP3   OH244506   3.566   1.643  17.113 -0.1173 -0.3164 -0.1816
 7672TIP3    H144507   3.608   1.557  17.114 -0.8104 -0.6958 -1.5338
 7672TIP3    H244508   3.499   1.638  17.181 -0.2541 -0.9070 -0.3530
 7673TIP3   OH244509   4.802   1.605  15.132 -0.0476  0.1692 -0.8800
 7673TIP3    H144510   4.711   1.632  15.118 -0.5289 -1.5185 -1.1825
 7673TIP3    H244511   4.853   1.684  15.112 -1.3287  0.6496 -2.5207
 7674TIP3   OH244512   2.521   1.361   3.406  1.0121 -0.0082  0.0029
 7674TIP3    H144513   2.444   1.396   3.360  0.7031  0.2832  0.7298
 7674TIP3    H244514   2.592   1.370   3.342  1.0667  2.4932  0.3190
 7675TIP3   OH244515   0.192   6.261  12.068 -0.3533  0.1281  0.0030
 7675TIP3    H144516   0.113   6.219  12.035 -0.1387  0.8537 -1.5264
 7675TIP3    H244517   0.227   6.199  12.132 -2.1879 -0.1555  0.8000
 7676TIP3   OH244518   6.489   6.522   2.286 -0.3623 -0.7180  0.4095
 7676TIP3    H144519   6.468   6.585   2.218  2.0749  2.1935  2.0621
 7676TIP3    H244520   6.443   6.554   2.364  2.1599  0.0877  1.6722
 7677TIP3   OH244521   2.437   4.093  10.566 -0.2301  0.6035 -0.7029
 7677TIP3    H144522   2.486   4.017  10.534 -0.9620 -0.0338 -0.3572
 7677TIP3    H244523   2.504   4.153  10.598  0.2989 -0.8333  1.0486
 7678TIP3   OH244524   0.125   6.425  15.346  0.1383 -0.8378 -0.2372
 7678TIP3    H144525   0.048   6.434  15.290 -1.0593 -0.7743  1.3554
 7678TIP3    H244526   0.164   6.513  15.346 -1.1697 -0.2063  0.7987
 7679TIP3   OH244527   0.746   0.555  11.372  0.3501 -0.5244 -0.1671
 7679TIP3    H144528   0.818   0.562  11.435  1.2263  0.7754 -1.2718
 7679TIP3    H244529   0.754   0.466  11.337  0.8391 -0.7116  0.3986
 7680TIP3   OH244530   3.108   3.648   1.599 -0.6228  0.2643 -0.4021
 7680TIP3    H144531   3.144   3.674   1.683 -1.2866 -0.7694  0.2331
 7680TIP3    H244532   3.185   3.630   1.544 -0.1850  0.5068  0.1246
 7681TIP3   OH244533   3.213   2.326   4.649  1.0207  0.9021 -0.0410
 7681TIP3    H144534   3.246   2.403   4.603  2.2301  0.8749  0.7617
 7681TIP3    H244535   3.147   2.360   4.709 -1.8074  0.7752 -2.8177
 7682TIP3   OH244536   2.052   2.125   3.412 -0.2372  0.3948  0.4258
 7682TIP3    H144537   2.120   2.110   3.477  0.7843 -1.0915 -0.9041
 7682TIP3    H244538   1.985   2.175   3.458  1.1479  0.7554  2.1461
 7683TIP3   OH244539   2.125   2.703   2.882 -0.5448  0.3391 -0.5021
 7683TIP3    H144540   2.070   2.680   2.957 -1.2813  1.0347 -0.8170
 7683TIP3    H244541   2.177   2.777   2.912 -1.9874  1.6798 -1.1413
 7684TIP3   OH244542   4.076   1.377   1.313  0.0345 -0.5081  0.0592
 7684TIP3    H144543   4.038   1.302   1.267 -2.1846  0.2858  0.4554
 7684TIP3    H244544   4.170   1.364   1.307 -0.0099 -0.2967 -4.9904
 7685TIP3   OH244545   1.543   6.688  17.107 -0.3927  0.0321  0.3095
 7685TIP3    H144546   1.569   6.596  17.104 -0.1425  0.0971  0.4196
 7685TIP3    H244547   1.626   6.736  17.116 -0.6183  0.1924  1.7070
 7686TIP3   OH244548   2.688   5.787   0.986  0.8095  0.2046 -0.0918
 7686TIP3    H144549   2.739   5.867   0.999  1.5680 -0.5393  1.9689
 7686TIP3    H244550   2.609   5.800   1.039  1.5190 -0.8468  1.3102
 7687TIP3   OH244551   4.204   2.005  11.933 -0.6778 -0.7130  0.3345
 7687TIP3    H144552   4.211   2.069  12.003  0.2966 -0.5373  0.0854
 7687TIP3    H244553   4.231   1.922  11.973 -0.8372 -0.7525  0.3609
 7688TIP3   OH244554   2.454   4.457  11.283  0.0169 -0.0077 -0.0768
 7688TIP3    H144555   2.407   4.376  11.303  2.1932 -1.2478  0.3456
 7688TIP3    H244556   2.543   4.428  11.262  0.7036  2.2456 -0.4961
 7689TIP3   OH244557   6.667   0.437   3.874 -0.2042 -0.3334 -0.1847
 7689TIP3    H144558   6.661   0.525   3.837  0.7314 -1.3314 -2.9406
 7689TIP3    H244559   6.668   0.379   3.798  0.2590 -2.6738  1.5027
 7690TIP3   OH244560   3.089   0.787  15.072 -0.8412 -0.0975  1.1640
 7690TIP3    H144561   3.016   0.730  15.045  0.5871 -0.5741 -2.3255
 7690TIP3    H244562   3.153   0.727  15.110 -0.6030 -0.3831  0.3422
 7691TIP3   OH244563   4.403   3.558   1.200 -0.5180  0.4742 -0.1020
 7691TIP3    H144564   4.367   3.646   1.205  1.3090  1.3158 -0.6277
 7691TIP3    H244565   4.482   3.561   1.254 -0.4898 -0.8907 -0.0257
 7692TIP3   OH244566   6.307   1.677   3.043  0.2846 -0.3184 -0.2189
 7692TIP3    H144567   6.265   1.597   3.073  0.6930 -0.8625 -1.0625
 7692TIP3    H244568   6.388   1.647   3.001  1.4165  0.6818  1.1768
 7693TIP3   OH244569   4.131   1.074   4.783  0.4613 -0.2245 -0.0016
 7693TIP3    H144570   4.067   1.003   4.787 -0.6160  0.5820 -1.8132
 7693TIP3    H244571   4.216   1.031   4.797 -0.2465 -1.6966 -0.0880
 7694TIP3   OH244572   2.280   2.944   5.162 -0.6425 -0.4880 -0.1306
 7694TIP3    H144573   2.255   3.035   5.143  0.5063 -0.4148 -1.4431
 7694TIP3    H244574   2.370   2.950   5.194 -0.5161 -1.1806 -0.3450
 7695TIP3   OH244575   3.797   2.502  14.209 -0.3354  0.2043 -0.1918
 7695TIP3    H144576   3.753   2.582  14.237  0.0316  0.4140 -0.2225
 7695TIP3    H244577   3.809   2.452  14.290  0.0573  0.4849 -0.0735
 7696TIP3   OH244578   4.791   2.266  12.557 -0.0292 -0.0496 -0.7735
 7696TIP3    H144579   4.770   2.357  12.580  0.0025 -0.1725 -0.2582
 7696TIP3    H244580   4.811   2.224  12.640 -2.5718 -1.1895 -0.6369
 7697TIP3   OH244581   4.249   0.673   5.769 -0.3979 -0.4318 -0.0751
 7697TIP3    H144582   4.305   0.705   5.840  0.6085  0.5331 -1.2565
 7697TIP3    H244583   4.165   0.717   5.783  1.0772  3.5262 -1.9540
 7698TIP3   OH244584   0.453   1.355  13.083  0.4797  0.4830  0.4581
 7698TIP3    H144585   0.362   1.384  13.073  0.1289 -0.0551  1.8659
 7698TIP3    H244586   0.499   1.431  13.118  0.5389  0.7026 -0.0923
 7699TIP3   OH244587   6.280   1.526   2.244 -1.2504  0.4198  0.3025
 7699TIP3    H144588   6.226   1.519   2.166 -0.7958  0.4071 -0.0133
 7699TIP3    H244589   6.229   1.581   2.304 -1.9755 -0.2534  0.3264
 7700TIP3   OH244590   4.526   0.022   2.540  0.1422 -0.1710 -0.0815
 7700TIP3    H144591   4.573   0.099   2.508 -0.0248 -0.0177  0.0424
 7700TIP3    H244592   4.591  -0.025   2.593  0.6623 -0.8436 -1.2736
 7701TIP3   OH244593   5.357   6.003  13.154 -0.3974 -0.7044  0.1988
 7701TIP3    H144594   5.263   5.988  13.166 -0.3567 -0.0402  1.6622
 7701TIP3    H244595   5.397   5.966  13.233  0.4744 -0.1760  0.0197
 7702TIP3   OH244596   3.794   1.155   5.505 -0.2596  0.1376 -0.1062
 7702TIP3    H144597   3.813   1.085   5.441  1.2716 -0.4932  0.9793
 7702TIP3    H244598   3.750   1.110   5.577  0.0911  0.4089  0.2821
 7703TIP3   OH244599   5.840   4.769   4.935 -0.5567 -0.5371  0.1840
 7703TIP3    H144600   5.911   4.828   4.908 -1.0494  0.3296  0.7336
 7703TIP3    H244601   5.876   4.681   4.923  0.0544 -0.1404 -1.0392
 7704TIP3   OH244602   5.272   5.354  15.728 -0.2549 -0.1991  0.0922
 7704TIP3    H144603   5.299   5.262  15.728  0.9671  0.0407  2.8612
 7704TIP3    H244604   5.355   5.402  15.734 -0.9242  1.0750 -0.5460
 7705TIP3   OH244605   3.973   6.287  15.650  0.3518 -0.5703 -0.1249
 7705TIP3    H144606   3.959   6.226  15.578 -0.6112  1.1663 -1.4939
 7705TIP3    H244607   4.044   6.344  15.619  0.2358 -0.0863  0.4847
 7706TIP3   OH244608   3.237   3.267  16.798  0.0362 -0.0954  0.2392
 7706TIP3    H144609   3.156   3.217  16.784 -1.3681  1.7458  1.3854
 7706TIP3    H244610   3.251   3.266  16.892  1.7408 -0.8798  0.0238
 7707TIP3   OH244611   5.984   1.114   4.371 -0.0754 -0.9874 -0.1548
 7707TIP3    H144612   6.064   1.164   4.350 -0.5271 -0.0151  0.3616
 7707TIP3    H244613   6.014   1.023   4.378  1.5886 -0.3363  2.9223
 7708TIP3   OH244614   2.244   1.527   1.954  0.1208 -0.1115 -0.6046
 7708TIP3    H144615   2.262   1.615   1.920 -0.7270 -0.5335 -2.2398
 7708TIP3    H244616   2.190   1.485   1.886  0.3826 -1.8501  0.2046
 7709TIP3   OH244617   0.714   3.171  15.494 -0.1114 -0.2175  0.8256
 7709TIP3    H144618   0.792   3.221  15.473 -0.0737 -0.5290  0.2175
 7709TIP3    H244619   0.739   3.118  15.570  0.9128 -1.7944 -0.5442
 7710TIP3   OH244620   3.096   6.717   2.908  0.6939  0.2396 -0.1354
 7710TIP3    H144621   3.016   6.738   2.956 -0.3113 -2.4861 -0.4232
 7710TIP3    H244622   3.165   6.718   2.974  0.1418  0.9064  0.4561
 7711TIP3   OH244623   4.944   6.264  11.906  0.1982  0.5310 -0.2368
 7711TIP3    H144624   4.918   6.172  11.916  1.6413 -0.1469 -2.0718
 7711TIP3    H244625   4.888   6.297  11.836 -1.0428  1.3980  1.1292
 7712TIP3   OH244626   6.635   2.017  11.206 -0.6830  0.2111  0.4337
 7712TIP3    H144627   6.705   1.953  11.222 -1.5022 -0.4183  1.6921
 7712TIP3    H244628   6.681   2.095  11.175  0.8084  0.4040  2.8343
 7713TIP3   OH244629   1.664   3.734  11.579  0.1277 -0.4639 -0.1310
 7713TIP3    H144630   1.641   3.676  11.652  1.1311  0.8974  1.3056
 7713TIP3    H244631   1.759   3.731  11.574  0.2711  1.7036  0.5435
 7714TIP3   OH244632   0.578   2.122   0.074  0.3596 -0.6361  0.8786
 7714TIP3    H144633   0.650   2.097   0.132 -1.5761 -1.8291  2.9208
 7714TIP3    H244634   0.558   2.043   0.025  0.6750 -0.1803 -0.0173
 7715TIP3   OH244635   2.760   5.650  15.242  0.1047  0.5567 -0.3102
 7715TIP3    H144636   2.702   5.665  15.317  1.4674  2.6288  0.4109
 7715TIP3    H244637   2.707   5.673  15.166 -1.0182 -0.7235  0.0424
 7716TIP3   OH244638   3.843   1.940  14.073  0.0607  0.0148 -0.0946
 7716TIP3    H144639   3.855   1.962  13.981 -0.0332  0.1411 -0.0774
 7716TIP3    H244640   3.856   1.846  14.078  2.9060  0.3294  0.1961
 7717TIP3   OH244641   1.019   6.429  15.164 -0.0190 -0.5040  0.4565
 7717TIP3    H144642   0.992   6.357  15.107 -1.6139  0.4224 -0.0124
 7717TIP3    H244643   1.074   6.484  15.109 -0.2662 -0.4322  0.2822
 7718TIP3   OH244644   4.609   0.997   0.051  0.2172  0.3071  0.5871
 7718TIP3    H144645   4.628   1.041   0.134 -1.1357  0.9439  0.5899
 7718TIP3    H244646   4.536   0.938   0.071  1.7222 -1.6616  0.4746
 7719TIP3   OH244647   0.095   6.232  12.409 -0.3257 -0.4207 -0.1394
 7719TIP3    H144648   0.146   6.299  12.455 -0.3573  0.3081 -1.1204
 7719TIP3    H244649   0.161   6.179  12.364 -0.3821  0.3781 -1.2169
 7720TIP3   OH244650   2.143   1.546   3.895  0.2669  0.0381 -0.0881
 7720TIP3    H144651   2.144   1.455   3.866 -0.0184 -0.7692  2.2881
 7720TIP3    H244652   2.235   1.568   3.909  0.4911  0.7052 -2.1760
 7721TIP3   OH244653   0.869   4.505   3.944  0.2762  0.1724 -0.1779
 7721TIP3    H144654   0.780   4.472   3.959  0.0078  2.1551  3.7112
 7721TIP3    H244655   0.926   4.437   3.980  0.3241 -0.4079 -1.2932
 7722TIP3   OH244656   6.594   2.631   4.396  0.3443  0.2340 -0.2805
 7722TIP3    H144657   6.644   2.556   4.427  0.4215  0.9665  1.4873
 7722TIP3    H244658   6.553   2.667   4.475  0.2858  2.0293 -1.0707
 7723TIP3   OH244659   3.036   0.980   0.152 -0.1688  0.2765  0.1436
 7723TIP3    H144660   3.056   0.887   0.137  1.6435  0.6844 -0.1605
 7723TIP3    H244661   2.954   0.978   0.202  0.8793 -1.5765  1.9649
 7724TIP3   OH244662   6.468   3.868   5.222 -0.0836  0.0615  0.0697
 7724TIP3    H144663   6.408   3.802   5.256  0.5975 -0.8832 -0.5236
 7724TIP3    H244664   6.513   3.902   5.299  1.3224 -1.9287  0.1894
 7725TIP3   OH244665   4.099   4.252  14.594  0.1805  0.6646 -0.0423
 7725TIP3    H144666   4.036   4.321  14.576 -1.8623 -1.6109 -2.4304
 7725TIP3    H244667   4.144   4.238  14.510  0.1991 -1.1773  0.2210
 7726TIP3   OH244668   6.199   2.255   1.289 -0.7254  0.0725  0.0377
 7726TIP3    H144669   6.115   2.299   1.270  0.1356  2.3821  1.1618
 7726TIP3    H244670   6.250   2.321   1.336  1.3237 -1.6649  0.3910
 7727TIP3   OH244671   6.386   4.580   5.478  0.1155  0.0048  0.1607
 7727TIP3    H144672   6.305   4.614   5.440  0.4968  0.3192 -0.3882
 7727TIP3    H244673   6.441   4.657   5.489 -0.8075  0.3527  3.6082
 7728TIP3   OH244674   0.124   4.613   6.426 -1.0636  0.0838 -0.2184
 7728TIP3    H144675   0.049   4.554   6.436 -2.5149  2.1850  3.5107
 7728TIP3    H244676   0.091   4.698   6.454  2.3045  1.4865 -0.0534
 7729TIP3   OH244677   4.461   5.869  13.964  0.2958 -0.2353  0.3909
 7729TIP3    H144678   4.553   5.862  13.938 -0.0984 -0.7572 -0.9547
 7729TIP3    H244679   4.424   5.782  13.946 -1.1612  0.7885 -2.0819
 7730TIP3   OH244680   5.231   0.484  10.961  0.2983 -0.7061 -0.0603
 7730TIP3    H144681   5.225   0.542  11.037  1.0750 -0.1245 -0.4219
 7730TIP3    H244682   5.199   0.536  10.888  1.2026 -0.6436 -0.4247
 7731TIP3   OH244683   6.281   1.919  11.890 -0.3531 -0.5420 -0.0851
 7731TIP3    H144684   6.376   1.932  11.896 -0.0531 -1.6325 -1.7391
 7731TIP3    H244685   6.254   1.898  11.980  0.7648  0.8645  0.6115
 7732TIP3   OH244686   6.120   2.307   0.851  0.6683  0.0890  0.1001
 7732TIP3    H144687   6.196   2.270   0.805  0.8761  0.8081 -0.1549
 7732TIP3    H244688   6.094   2.239   0.912  0.1901 -1.0371 -1.2975
 7733TIP3   OH244689   1.898   5.701  11.179  0.2643 -0.0673 -0.0706
 7733TIP3    H144690   1.819   5.718  11.228  0.6326 -0.6333  0.7364
 7733TIP3    H244691   1.874   5.633  11.116 -0.3632  1.0788 -1.1179
 7734TIP3   OH244692   1.640   2.201   4.681  0.2327  0.1345  0.0516
 7734TIP3    H144693   1.693   2.138   4.730 -0.6960 -0.0924  0.8025
 7734TIP3    H244694   1.587   2.147   4.622  0.0986  0.2779  0.0395
 7735TIP3   OH244695   1.357   4.048   5.560  0.3897 -0.7068 -0.1344
 7735TIP3    H144696   1.362   3.980   5.626  0.3104 -0.1009  0.5019
 7735TIP3    H244697   1.372   4.130   5.607 -1.1492 -0.1243 -0.5946
 7736TIP3   OH244698   5.664   2.287  14.491  0.0581  0.2174  0.0292
 7736TIP3    H144699   5.681   2.318  14.402 -1.0341  0.1669 -0.2114
 7736TIP3    H244700   5.662   2.367  14.544  2.2116  0.1494  0.3113
 7737TIP3   OH244701   1.104   5.370  14.501 -0.3265 -0.4074 -0.0522
 7737TIP3    H144702   1.099   5.459  14.468 -1.8622 -0.3077  0.3815
 7737TIP3    H244703   1.188   5.367  14.549  0.3449  0.3954 -1.1327
 7738TIP3   OH244704   2.470   6.084  16.642  0.1024  0.2693  0.4617
 7738TIP3    H144705   2.408   6.156  16.629 -0.7123 -0.1573  1.8505
 7738TIP3    H244706   2.431   6.030  16.710  3.3369  1.6480  3.7853
 7739TIP3   OH244707   6.703   3.750  13.581  0.4045 -0.3679  0.2752
 7739TIP3    H144708   6.798   3.762  13.588  0.2398  1.4680 -0.0351
 7739TIP3    H244709   6.689   3.724  13.491  0.7818 -3.2196  0.9574
 7740TIP3   OH244710   5.914   6.673  11.825  0.0217  0.5511 -0.4650
 7740TIP3    H144711   5.913   6.607  11.894  1.3316  0.2126 -0.7296
 7740TIP3    H244712   5.906   6.757  11.871  1.1890  0.3489  0.1568
 7741TIP3   OH244713   3.029   6.660   2.135 -0.1901 -0.0426  0.4369
 7741TIP3    H144714   3.040   6.713   2.214  3.7368 -1.4291  1.0421
 7741TIP3    H244715   3.099   6.690   2.077 -2.6759  0.5940 -2.4586
 7742TIP3   OH244716   3.438   0.571   4.647  0.5103 -0.4131 -0.5550
 7742TIP3    H144717   3.398   0.489   4.617 -1.3159  0.4804 -0.7235
 7742TIP3    H244718   3.525   0.571   4.606  0.0222 -1.6128 -1.6955
 7743TIP3   OH244719   5.287   6.604   2.935  0.0000 -0.3533  0.8742
 7743TIP3    H144720   5.199   6.580   2.965  0.3104 -1.3187  1.0250
 7743TIP3    H244721   5.307   6.685   2.982 -1.7151  1.1602 -0.8537
 7744TIP3   OH244722   2.623   5.861  10.755 -0.3279  0.6792 -0.3799
 7744TIP3    H144723   2.577   5.829  10.833  0.5726 -1.3284 -0.6007
 7744TIP3    H244724   2.557   5.859  10.686 -0.3577 -0.7174 -0.3564
 7745TIP3   OH244725   2.901   6.802  15.531  0.5140 -0.1771  0.2298
 7745TIP3    H144726   2.849   6.755  15.596  0.9678 -1.7382 -0.5033
 7745TIP3    H244727   2.982   6.824  15.576  0.2402  0.0309  0.6208
 7746TIP3   OH244728   2.626   5.469  15.652 -0.6493 -0.1365 -0.0605
 7746TIP3    H144729   2.601   5.404  15.587  2.3960 -0.3629 -1.2071
 7746TIP3    H244730   2.649   5.547  15.601  1.4147 -0.1784  0.6693
 7747TIP3   OH244731   6.269   5.582  11.094 -0.2019 -0.5610  0.3125
 7747TIP3    H144732   6.206   5.521  11.057 -1.1518  0.3886  0.3217
 7747TIP3    H244733   6.259   5.574  11.189 -0.2589 -0.4612  0.3152
 7748TIP3   OH244734   1.478   3.083   6.256 -0.3343  0.6736  0.1283
 7748TIP3    H144735   1.428   3.133   6.191  1.0135 -0.0703 -1.5716
 7748TIP3    H244736   1.440   2.996   6.254 -0.0924  0.5689  0.1151
 7749TIP3   OH244737   1.929   1.951  16.273  0.3155 -0.2950  0.0678
 7749TIP3    H144738   1.953   1.873  16.222 -0.0664 -0.2324 -0.2139
 7749TIP3    H244739   1.925   2.022  16.209  0.8566 -0.0024  0.3571
 7750TIP3   OH244740   2.646   5.691  15.504  0.1010 -0.0680 -0.7948
 7750TIP3    H144741   2.663   5.782  15.528 -0.2219 -0.3217  0.4322
 7750TIP3    H244742   2.563   5.669  15.546  1.2489 -1.5925  0.8618
 7751TIP3   OH244743   6.760   2.930   4.269  0.1526  0.0637 -0.1988
 7751TIP3    H144744   6.672   2.894   4.256  0.4056  0.1791 -2.6879
 7751TIP3    H244745   6.750   3.024   4.257  0.1838  0.4735  2.3895
 7752TIP3   OH244746   6.033   2.207   2.556 -0.1488 -0.8937 -0.3382
 7752TIP3    H144747   5.937   2.213   2.558 -0.1470 -0.6443 -0.8648
 7752TIP3    H244748   6.058   2.248   2.473  0.2758 -2.8757 -1.2357
 7753TIP3   OH244749   2.833   0.817  12.271  0.0974 -0.2324  0.4846
 7753TIP3    H144750   2.916   0.769  12.265  0.0439 -0.4795  1.4835
 7753TIP3    H244751   2.856   0.897  12.318  0.1321  0.6290 -0.9465
 7754TIP3   OH244752   0.241   6.491  13.339  0.4824 -0.2784 -0.3706
 7754TIP3    H144753   0.178   6.551  13.298  0.2688  1.3827  2.1681
 7754TIP3    H244754   0.187   6.420  13.374  0.0237  0.8775  1.3469
 7755TIP3   OH244755   5.826   5.419  11.216  0.4303 -0.5913 -0.2687
 7755TIP3    H144756   5.845   5.345  11.274 -2.5801  0.4142  2.2769
 7755TIP3    H244757   5.876   5.492  11.252 -0.4206 -0.2658  0.2597
 7756TIP3   OH244758   0.589   1.601  11.414  0.0100 -0.4026  0.7680
 7756TIP3    H144759   0.561   1.583  11.504 -1.9145  0.3635  0.3600
 7756TIP3    H244760   0.519   1.655  11.377  1.0389 -0.2151 -1.0259
 7757TIP3   OH244761   4.703   1.055  16.327 -0.0605 -0.3260  0.9198
 7757TIP3    H144762   4.737   1.133  16.283 -2.0843  1.9181  3.0112
 7757TIP3    H244763   4.642   1.016  16.265  1.9432 -1.1089 -0.6579
 7758TIP3   OH244764   3.672   5.897  15.516  0.1969 -0.1458  0.5167
 7758TIP3    H144765   3.742   5.841  15.482 -0.6614 -1.1941  0.4178
 7758TIP3    H244766   3.593   5.844  15.508 -0.6410  1.0609  0.5069
 7759TIP3   OH244767   0.142   2.459  16.953  0.5964  0.5696  0.4157
 7759TIP3    H144768   0.178   2.373  16.972  0.0942  0.5585  1.3466
 7759TIP3    H244769   0.055   2.459  16.992  0.3988  1.3346  0.0111
 7760TIP3   OH244770   1.458   0.473   4.807  0.6823 -0.0545 -0.0189
 7760TIP3    H144771   1.546   0.502   4.783  0.1783  1.2072 -0.4100
 7760TIP3    H244772   1.429   0.421   4.732 -0.7831  3.6436 -2.2906
 7761TIP3   OH244773   0.153   1.915   2.140 -0.2607 -0.5435  0.6003
 7761TIP3    H144774   0.083   1.859   2.107  0.6244 -0.8387 -0.8224
 7761TIP3    H244775   0.231   1.860   2.140  0.5235  0.4991 -0.3341
 7762TIP3   OH244776   0.142   0.765  13.844  0.2574  0.6514 -0.1404
 7762TIP3    H144777   0.208   0.732  13.784  0.9985 -0.3573  1.1748
 7762TIP3    H244778   0.072   0.700  13.841  0.0148  0.9202 -0.3728
 7763TIP3   OH244779   1.023   1.865  15.454  0.2434 -0.4275 -0.1845
 7763TIP3    H144780   1.116   1.884  15.463  0.5033 -0.1676 -2.6568
 7763TIP3    H244781   1.019   1.770  15.439  0.1133 -0.4195 -0.2043
 7764TIP3   OH244782   6.512   4.743   4.522  0.1216 -0.2073 -0.3837
 7764TIP3    H144783   6.570   4.736   4.598  0.2588 -0.2459 -0.4907
 7764TIP3    H244784   6.566   4.712   4.449  0.3016  0.7003 -0.6493
 7765TIP3   OH244785   4.720   3.764   1.066 -0.3037 -0.1480 -0.4323
 7765TIP3    H144786   4.662   3.837   1.091  1.0026  0.3774  1.3035
 7765TIP3    H244787   4.784   3.804   1.008 -1.5387 -0.7111 -2.2786
 7766TIP3   OH244788   2.707   2.233  13.695 -0.3186 -0.0840 -0.2945
 7766TIP3    H144789   2.793   2.192  13.686 -0.9130 -1.1547 -1.3465
 7766TIP3    H244790   2.651   2.164  13.730 -0.3153  1.2188  2.6198
 7767TIP3   OH244791   5.574   6.115  14.966 -0.2229  0.1424 -0.4724
 7767TIP3    H144792   5.487   6.155  14.971 -0.0551  0.4378  0.2448
 7767TIP3    H244793   5.587   6.077  15.053 -0.5024 -1.7525 -1.1888
 7768TIP3   OH244794   5.522   2.412  13.834  0.3480  0.3070 -0.2947
 7768TIP3    H144795   5.605   2.384  13.796  0.5893 -1.8438  1.5624
 7768TIP3    H244796   5.456   2.363  13.786  0.5595 -1.4433  1.0935
 7769TIP3   OH244797   0.559   2.596   0.293 -0.2329  0.0094  0.1441
 7769TIP3    H144798   0.485   2.650   0.322  0.0165  0.6964 -0.4620
 7769TIP3    H244799   0.522   2.538   0.227 -0.0218  1.1682 -1.0391
 7770TIP3   OH244800   0.875   2.848   1.875  0.0760  0.1421 -0.2425
 7770TIP3    H144801   0.882   2.890   1.790  0.1234 -1.0784 -0.8600
 7770TIP3    H244802   0.810   2.778   1.862  1.0001 -0.8681  0.3628
 7771TIP3   OH244803   6.116   6.260  13.019  0.1052 -0.4610 -0.4163
 7771TIP3    H144804   6.129   6.316  13.096 -0.1754  0.6092 -1.1308
 7771TIP3    H244805   6.200   6.260  12.974  0.5881 -1.9325  0.3979
 7772TIP3   OH244806   3.927   4.375   0.046 -0.2211  0.5065  0.6019
 7772TIP3    H144807   3.964   4.461   0.027 -1.3615  0.6382 -1.2702
 7772TIP3    H244808   3.945   4.324  -0.032  0.0003 -0.8434  1.4976
 7773TIP3   OH244809   5.105   5.318   0.743  0.3060  1.0342 -0.0857
 7773TIP3    H144810   5.029   5.333   0.687  0.4719  0.1918 -0.5456
 7773TIP3    H244811   5.109   5.396   0.799 -2.2460  0.1431  1.5010
 7774TIP3   OH244812   3.106   1.760  14.772 -0.4196  0.1087 -0.2904
 7774TIP3    H144813   3.080   1.687  14.828  0.6294  0.1833  0.3105
 7774TIP3    H244814   3.064   1.837  14.811 -0.6483 -0.0061 -0.3058
 7775TIP3   OH244815   4.994   4.350  16.176  0.3001  0.1301 -0.0838
 7775TIP3    H144816   4.946   4.360  16.258 -0.8102 -1.0067 -0.5711
 7775TIP3    H244817   5.083   4.326  16.203  0.2862  0.9802  0.7941
 7776TIP3   OH244818   4.646   6.359  14.692 -0.1123 -0.4317  0.6083
 7776TIP3    H144819   4.724   6.304  14.698 -1.8062 -3.1338  0.0246
 7776TIP3    H244820   4.664   6.418  14.619  1.1676 -1.4513  0.0484
 7777TIP3   OH244821   1.632   4.281   3.611 -0.3581 -0.2505 -0.1570
 7777TIP3    H144822   1.629   4.320   3.523 -0.8126  0.2911  0.0967
 7777TIP3    H244823   1.702   4.329   3.655 -0.1840 -0.4695 -0.1903
 7778TIP3   OH244824   3.572   2.268  16.246 -0.2265 -0.2414  0.1396
 7778TIP3    H144825   3.553   2.317  16.326 -0.1816 -0.2500  0.1560
 7778TIP3    H244826   3.500   2.205  16.239 -0.1256 -0.3761  0.2814
 7779TIP3   OH244827   1.876   5.463  14.474 -0.2287  0.3234  0.0055
 7779TIP3    H144828   1.867   5.379  14.430 -0.9777  0.8133 -0.8038
 7779TIP3    H244829   1.901   5.441  14.563 -0.0719 -0.7412 -0.2925
 7780TIP3   OH244830   2.746   6.039  11.248  0.3264 -0.1793  0.9703
 7780TIP3    H144831   2.836   6.066  11.236  0.7433 -0.6592  2.7627
 7780TIP3    H244832   2.750   5.943  11.253 -0.3772 -0.2503  0.3271
 7781TIP3   OH244833   5.408   2.262  13.628 -0.2011 -0.3902  0.4518
 7781TIP3    H144834   5.353   2.275  13.551 -0.1665  2.0426  0.7651
 7781TIP3    H244835   5.365   2.192  13.677 -1.6684 -0.1831 -0.5014
 7782TIP3   OH244836   5.191   5.199   3.208 -0.3665 -0.3075 -0.1366
 7782TIP3    H144837   5.185   5.160   3.121  0.1799 -2.1287  0.5993
 7782TIP3    H244838   5.260   5.150   3.252  1.2896  2.3580  0.4717
 7783TIP3   OH244839   3.479   1.814   5.871 -0.3498  0.3580  0.2074
 7783TIP3    H144840   3.494   1.903   5.903 -0.2463  0.1581  0.7223
 7783TIP3    H244841   3.408   1.823   5.808 -0.0320  0.8740 -0.0876
 7784TIP3   OH244842   4.833   6.526  16.035  0.7063 -0.1330  0.1759
 7784TIP3    H144843   4.802   6.550  16.122 -2.0025  0.1305 -0.7687
 7784TIP3    H244844   4.919   6.567  16.028  0.3398  1.1150  2.1452
 7785TIP3   OH244845   0.915   1.908   2.976 -0.1211 -0.3577  0.4071
 7785TIP3    H144846   0.880   1.910   3.065  0.0607  0.1628  0.4746
 7785TIP3    H244847   0.953   1.821   2.967 -0.8808 -0.7114  0.5418
 7786TIP3   OH244848   1.446   1.365  11.434 -0.4769 -0.5015  0.1332
 7786TIP3    H144849   1.490   1.437  11.480  0.3215 -0.8224 -0.1230
 7786TIP3    H244850   1.365   1.405  11.400 -0.5566  0.0041  0.8953
 7787TIP3   OH244851   1.542   3.419   2.063  0.1597 -0.0298 -0.1749
 7787TIP3    H144852   1.620   3.409   2.008  1.2728 -2.9334  1.6567
 7787TIP3    H244853   1.470   3.388   2.008  1.2580 -2.9622 -0.1560
 7788TIP3   OH244854   2.543   3.856   2.603  0.1903 -0.4216  0.0478
 7788TIP3    H144855   2.534   3.813   2.518 -1.0719  0.2052 -0.1708
 7788TIP3    H244856   2.484   3.808   2.660 -0.9128  0.6959 -0.0952
 7789TIP3   OH244857   5.836   0.646   4.492  0.4334 -1.0549  0.0351
 7789TIP3    H144858   5.852   0.740   4.504 -1.6392 -0.7999  1.0981
 7789TIP3    H244859   5.873   0.627   4.405 -0.7241  1.1562 -1.0109
 7790TIP3   OH244860   2.509   2.695  14.741  0.2603 -0.7275 -0.3043
 7790TIP3    H144861   2.474   2.612  14.772  0.3543 -0.6750 -0.0533
 7790TIP3    H244862   2.438   2.758  14.754  0.3568 -0.6726 -0.0386
 7791TIP3   OH244863   4.360   1.045  16.699 -0.1442 -0.0788 -0.1592
 7791TIP3    H144864   4.269   1.069  16.681 -0.5505 -1.5304 -0.0990
 7791TIP3    H244865   4.369   0.955  16.669  0.0358 -1.5375  3.7449
 7792TIP3   OH244866   1.058   2.671  12.694 -0.1154  0.2134 -0.3007
 7792TIP3    H144867   1.140   2.630  12.666  0.0061  0.9384 -1.0541
 7792TIP3    H244868   1.002   2.598  12.720  0.7475 -0.2906  0.1729
 7793TIP3   OH244869   5.612   0.627  11.458 -0.1894  0.6684 -0.1226
 7793TIP3    H144870   5.577   0.657  11.374 -0.0405 -0.0991 -0.4655
 7793TIP3    H244871   5.542   0.572  11.494 -0.2111  0.9136  0.2046
 7794TIP3   OH244872   4.442   0.623   6.229  0.0697  0.0149 -0.0585
 7794TIP3    H144873   4.439   0.532   6.258  0.3317 -1.1431 -3.3345
 7794TIP3    H244874   4.365   0.633   6.174  0.2631  1.6882 -0.0679
 7795TIP3   OH244875   4.508   1.809  12.154 -0.2201 -0.3309  0.0467
 7795TIP3    H144876   4.542   1.732  12.109  0.4547  0.5868 -1.0874
 7795TIP3    H244877   4.510   1.785  12.247 -0.7761 -1.9461 -0.3233
 7796TIP3   OH244878   4.527   3.101  14.606  0.0480 -0.3481 -0.2848
 7796TIP3    H144879   4.558   3.184  14.570 -1.2554 -0.4697 -1.7595
 7796TIP3    H244880   4.521   3.117  14.700  2.4761  0.3143 -0.1571
 7797TIP3   OH244881   6.045   6.632  12.255  0.1304  0.1387 -0.4431
 7797TIP3    H144882   5.998   6.711  12.229 -1.4397 -1.4806 -3.0680
 7797TIP3    H244883   5.997   6.599  12.330 -0.8863  0.2936 -1.0036
 7798TIP3   OH244884   2.853   6.438   5.189 -0.8108  0.3846 -0.0662
 7798TIP3    H144885   2.891   6.350   5.186 -1.6398 -0.1281  2.1008
 7798TIP3    H244886   2.928   6.496   5.201 -0.4482 -0.4091  2.0090
 7799TIP3   OH244887   1.340   2.990   1.869  0.0711  0.2213 -0.1323
 7799TIP3    H144888   1.283   2.956   1.799 -0.1543  2.2841 -1.0278
 7799TIP3    H244889   1.425   3.003   1.827 -0.5252  3.2158 -0.6588
 7800TIP3   OH244890   1.823   5.673  15.960  0.5574 -0.3271  0.3242
 7800TIP3    H144891   1.786   5.593  15.997  0.9415  0.9052  3.7408
 7800TIP3    H244892   1.914   5.650  15.940  0.6048 -0.8269  1.0619
 7801TIP3   OH244893   5.983   6.387   2.436  1.0716 -0.3970 -0.2684
 7801TIP3    H144894   5.993   6.372   2.342 -0.8375 -1.1907 -0.4010
 7801TIP3    H244895   6.026   6.312   2.477  0.8446 -0.7023 -0.5723
 7802TIP3   OH244896   1.542   1.398  12.882 -0.1194  0.2736  0.1492
 7802TIP3    H144897   1.457   1.414  12.840 -0.6033 -1.1112  0.5360
 7802TIP3    H244898   1.592   1.477  12.865 -1.3175  0.9259 -0.5207
 7803TIP3   OH244899   2.523   0.694   1.797 -0.1242 -0.1325  0.2454
 7803TIP3    H144900   2.440   0.653   1.818 -0.4997  0.1925 -0.5283
 7803TIP3    H244901   2.577   0.684   1.875 -0.3425 -1.7216  0.2144
 7804TIP3   OH244902   6.187   5.139  17.102 -0.0864  0.7265 -0.0896
 7804TIP3    H144903   6.099   5.121  17.068  0.2985 -2.6464  0.3386
 7804TIP3    H244904   6.172   5.173  17.190 -1.0697 -1.0982  0.5239
 7805TIP3   OH244905   3.868   3.462  12.718  0.5932  0.1726  0.3376
 7805TIP3    H144906   3.909   3.429  12.638 -0.4037  0.1069 -0.1683
 7805TIP3    H244907   3.918   3.421  12.789 -0.0730 -1.8149 -0.2587
 7806TIP3   OH244908   2.876   0.316   3.328  0.5718  0.0719 -0.2847
 7806TIP3    H144909   2.869   0.280   3.416  0.1749 -0.2269 -0.4341
 7806TIP3    H244910   2.860   0.409   3.338  2.0516  0.2914  0.1700
 7807TIP3   OH244911   2.679   2.655   0.583 -0.1704  0.2713  0.3943
 7807TIP3    H144912   2.751   2.663   0.645 -0.3087  0.3541  0.5440
 7807TIP3    H244913   2.602   2.640   0.637 -0.0932 -0.9645  0.1720
 7808TIP3   OH244914   3.923   3.074   3.261  0.0283 -0.1305 -0.2940
 7808TIP3    H144915   4.013   3.098   3.237 -0.2609  0.2368 -1.0626
 7808TIP3    H244916   3.877   3.157   3.267 -0.1809 -0.2963  0.4567
 7809TIP3   OH244917   5.030   6.434  16.500 -0.4932 -0.1864 -0.2119
 7809TIP3    H144918   5.098   6.424  16.567  1.5030 -0.2979 -2.1077
 7809TIP3    H244919   4.971   6.360  16.514 -0.4859  0.1464  1.7556
 7810TIP3   OH244920   3.907   5.142   3.830 -0.1644 -0.0981  0.5714
 7810TIP3    H144921   3.958   5.063   3.846  0.0364  0.0349  0.5998
 7810TIP3    H244922   3.896   5.182   3.916 -0.9736 -0.5163  0.6736
 7811TIP3   OH244923   2.248   4.702   3.386  0.4495 -0.1495  0.0550
 7811TIP3    H144924   2.316   4.749   3.338 -0.1230 -0.0681 -0.6919
 7811TIP3    H244925   2.178   4.766   3.399  0.4321 -0.2819  0.6719
 7812TIP3   OH244926   4.027   1.423  12.702 -0.0557  0.0381  0.4848
 7812TIP3    H144927   4.015   1.456  12.791 -0.3649 -0.6761  0.7150
 7812TIP3    H244928   3.942   1.389  12.677  0.1568 -0.2325  0.1139
 7813TIP3   OH244929   6.040   1.052  11.811  0.0468  0.3541  0.0406
 7813TIP3    H144930   6.038   1.117  11.881  0.2441  1.9212 -1.3498
 7813TIP3    H244931   5.965   0.996  11.828 -1.5958  2.4196 -0.0331
 7814TIP3   OH244932   5.884   0.005  11.519 -0.0841 -0.3895  0.4841
 7814TIP3    H144933   5.843   0.041  11.441 -0.3970  1.1645  1.3250
 7814TIP3    H244934   5.816  -0.051  11.558 -0.1898 -0.5566  0.0605
 7815TIP3   OH244935   4.918   2.634   6.440  0.2754 -0.3679 -0.2529
 7815TIP3    H144936   4.838   2.583   6.426  0.9192 -1.7729  0.9176
 7815TIP3    H244937   4.887   2.718   6.473 -0.7208 -0.8504  0.0792
 7816TIP3   OH244938   3.355   6.734  15.163  0.0082 -0.2293  0.4146
 7816TIP3    H144939   3.398   6.665  15.113 -0.1525  0.0661 -0.1376
 7816TIP3    H244940   3.277   6.756  15.112 -0.3061 -0.1173  0.9364
 7817TIP3   OH244941   2.838   2.271  16.467  0.0675 -0.1238 -0.3919
 7817TIP3    H144942   2.890   2.211  16.520  3.0091  2.3403 -0.2624
 7817TIP3    H244943   2.879   2.357  16.478 -4.4712  2.3187  0.2745
 7818TIP3   OH244944   5.654   2.340  15.441  0.4447 -0.2211  0.3689
 7818TIP3    H144945   5.617   2.426  15.424 -0.7953 -0.3592  2.1075
 7818TIP3    H244946   5.724   2.356  15.505  1.8448 -0.2671 -1.0738
 7819TIP3   OH244947   3.099   2.494  14.668  0.1647  0.6813  0.1899
 7819TIP3    H144948   3.050   2.458  14.594 -0.3498 -0.0972  0.8888
 7819TIP3    H244949   3.106   2.587  14.648  1.2569  0.2939 -1.5053
 7820TIP3   OH244950   4.378   0.753  16.015 -0.0723  0.2477 -0.1658
 7820TIP3    H144951   4.286   0.779  16.020 -0.6682 -1.7427 -0.0473
 7820TIP3    H244952   4.381   0.666  16.055  1.5452 -0.5126 -1.7972
 7821TIP3   OH244953   2.745   6.645   2.036  0.0608  0.0046  0.2470
 7821TIP3    H144954   2.763   6.656   2.130 -1.0196 -1.8035  0.6981
 7821TIP3    H244955   2.669   6.588   2.032 -1.3345  1.8135 -1.7231
 7822TIP3   OH244956   2.405   4.572  15.722  0.1520 -0.6587 -0.2022
 7822TIP3    H144957   2.315   4.543  15.711  0.4234 -2.2803  1.3001
 7822TIP3    H244958   2.422   4.629  15.647 -2.3730  0.3987 -0.0558
 7823TIP3   OH244959   0.115   0.438  11.163 -0.5894 -0.1353 -0.2821
 7823TIP3    H144960   0.139   0.386  11.240  0.1333 -1.3104 -1.2857
 7823TIP3    H244961   0.064   0.379  11.108  1.6547 -0.3856 -2.2359
 7824TIP3   OH244962   0.602   3.253  11.908  0.1605 -0.7314 -0.0093
 7824TIP3    H144963   0.594   3.199  11.829 -1.3388 -0.2079 -0.2524
 7824TIP3    H244964   0.629   3.191  11.976 -0.1323 -1.5200 -0.5831
 7825TIP3   OH244965   6.714   4.485  12.784 -0.0969  0.0315 -0.5513
 7825TIP3    H144966   6.717   4.547  12.712 -1.7170  0.7524 -0.0456
 7825TIP3    H244967   6.684   4.537  12.859 -0.0694 -1.0543  0.2343
 7826TIP3   OH244968   3.128   5.859   2.470 -0.1480  0.7336  0.4624
 7826TIP3    H144969   3.059   5.822   2.526 -1.3664  1.5738 -0.4191
 7826TIP3    H244970   3.134   5.950   2.498  0.3852  0.7488  0.3073
 7827TIP3   OH244971   1.401   4.471  10.947  0.3577 -0.3052 -0.0305
 7827TIP3    H144972   1.325   4.495  10.895 -0.0690  0.1809  0.7989
 7827TIP3    H244973   1.439   4.396  10.901 -0.6597 -0.6020 -0.4062
 7828TIP3   OH244974   1.019   4.261  15.417  0.7810 -0.2721 -0.3632
 7828TIP3    H144975   0.953   4.212  15.368 -1.6348  2.5944 -0.2609
 7828TIP3    H244976   1.102   4.237  15.377 -0.5988 -1.8571 -2.4637
 7829TIP3   OH244977   2.449   5.199   4.819  0.4014  0.6459  0.2743
 7829TIP3    H144978   2.355   5.201   4.798  0.4191  1.4568  0.2492
 7829TIP3    H244979   2.492   5.184   4.735  0.2891  0.1190  0.3086
 7830TIP3   OH244980   4.628   4.833  14.249  0.0172 -0.0675 -0.3237
 7830TIP3    H144981   4.578   4.861  14.172 -1.6692 -2.5881 -0.2556
 7830TIP3    H244982   4.671   4.751  14.222 -2.9225 -2.6571  2.0799
 7831TIP3   OH244983   3.394   4.442  13.971 -0.3339  0.2794 -0.0199
 7831TIP3    H144984   3.386   4.525  13.924  1.5058  2.2629  2.8438
 7831TIP3    H244985   3.488   4.427  13.979 -0.4825  0.3393  3.2353
 7832TIP3   OH244986   5.799   3.496   2.133 -0.0871  0.3014 -0.0261
 7832TIP3    H144987   5.759   3.467   2.215 -0.5491 -0.5763 -0.5413
 7832TIP3    H244988   5.891   3.472   2.141 -0.1670  0.0561  0.1673
 7833TIP3   OH244989   4.939   3.393  15.668 -0.4550  0.4129 -0.2120
 7833TIP3    H144990   4.936   3.347  15.584 -2.3592  1.6551 -0.8991
 7833TIP3    H244991   4.979   3.331  15.729 -0.3702 -1.0528 -1.7064
 7834TIP3   OH244992   3.749   2.137  11.059  0.2266 -0.3188  0.3003
 7834TIP3    H144993   3.826   2.142  11.003 -0.6528  1.1101 -0.8657
 7834TIP3    H244994   3.679   2.107  11.002 -0.3847 -0.2407  0.9871
 7835TIP3   OH244995   3.055   1.688   4.698  0.3487 -0.0915  0.0540
 7835TIP3    H144996   3.001   1.763   4.724  0.3584 -0.6752  1.9344
 7835TIP3    H244997   3.017   1.657   4.616 -0.9438  0.7127  0.3270
 7836TIP3   OH244998   5.719   0.678  11.717  0.0905  0.5752  0.0372
 7836TIP3    H144999   5.704   0.681  11.622 -0.0804  0.2299  0.0530
 7836TIP3    H245000   5.799   0.626  11.727  0.8443  1.6901  0.0074
 7837TIP3   OH245001   6.240   2.959   5.048  0.1465 -0.1224  0.4846
 7837TIP3    H145002   6.164   3.001   5.088  0.6819  2.0008 -0.5940
 7837TIP3    H245003   6.315   2.989   5.099  0.5749  0.5563 -0.5129
 7838TIP3   OH245004   4.559   6.036   3.362  0.1089  0.9491  0.3549
 7838TIP3    H145005   4.505   5.958   3.349  1.2495  0.5470 -3.0430
 7838TIP3    H245006   4.633   6.006   3.415  0.5840 -0.3964 -0.9814
 7839TIP3   OH245007   3.428   2.821   2.043 -0.0292  0.8535  0.4648
 7839TIP3    H145008   3.413   2.797   2.135 -0.3611  0.4923  0.3161
 7839TIP3    H245009   3.387   2.907   2.034 -0.1133  0.8310  0.6214
 7840TIP3   OH245010   0.302   1.384   1.006  0.0025 -0.2543 -0.0890
 7840TIP3    H145011   0.347   1.393   1.090 -0.0674  0.5429 -0.1351
 7840TIP3    H245012   0.244   1.460   1.000 -1.8809 -1.5804  0.2635
 7841TIP3   OH245013   3.504   4.793  11.562 -0.0192 -0.2585  0.1238
 7841TIP3    H145014   3.525   4.719  11.618  0.4416  0.3496  0.7768
 7841TIP3    H245015   3.504   4.758  11.473  2.3985 -0.6030  0.1955
 7842TIP3   OH245016   3.922   1.838  15.039 -0.6398  0.8514 -0.2446
 7842TIP3    H145017   3.841   1.790  15.022 -0.1770 -0.2064  0.4217
 7842TIP3    H245018   3.913   1.870  15.128  0.0025  0.0154  0.1348
 7843TIP3   OH245019   6.288   2.177   3.559 -0.0101  0.7782 -0.3927
 7843TIP3    H145020   6.242   2.093   3.558 -0.7433  1.1828 -0.7472
 7843TIP3    H245021   6.225   2.240   3.525  0.1226  1.6971  0.9771
 7844TIP3   OH245022   0.701   6.462  16.817 -0.4468 -0.1209  0.2408
 7844TIP3    H145023   0.716   6.384  16.764 -1.1217  0.5455 -0.9679
 7844TIP3    H245024   0.707   6.535  16.755 -1.1350  0.6946  1.1034
 7845TIP3   OH245025   0.378   1.150  15.228  0.4920 -0.1830  0.2508
 7845TIP3    H145026   0.439   1.116  15.163  0.6134 -0.4120  0.4846
 7845TIP3    H245027   0.394   1.098  15.306 -0.7650 -1.0092 -0.0069
 7846TIP3   OH245028   0.586   1.136  14.471  0.2434 -0.3166 -0.0199
 7846TIP3    H145029   0.629   1.063  14.515 -1.8493 -0.9753  1.1032
 7846TIP3    H245030   0.532   1.176  14.539 -0.0502  1.1436 -1.0640
 7847TIP3   OH245031   3.596   3.598   1.953  0.1544  0.3564 -0.1051
 7847TIP3    H145032   3.613   3.549   2.034 -0.6752 -0.4878 -0.4142
 7847TIP3    H245033   3.555   3.679   1.983  0.0580  0.1495  0.3395
 7848TIP3   OH245034   1.306   2.881  14.802 -0.1765 -0.6183  0.1220
 7848TIP3    H145035   1.240   2.915  14.862 -1.7832 -1.5586 -1.0324
 7848TIP3    H245036   1.364   2.829  14.858 -0.4375  0.1645  1.1455
 7849TIP3   OH245037   5.370   6.136   1.468 -1.2234  0.2851  0.2375
 7849TIP3    H145038   5.368   6.087   1.387  1.3432  0.0981  0.2171
 7849TIP3    H245039   5.363   6.228   1.441 -2.7537  0.1289  0.0311
 7850TIP3   OH245040   2.381   4.773   5.074 -0.1376 -0.2523  0.0715
 7850TIP3    H145041   2.373   4.702   5.011 -2.4762  0.0841 -0.0840
 7850TIP3    H245042   2.424   4.844   5.026 -0.0750 -0.6897 -0.5268
 7851TIP3   OH245043   0.783   5.452  10.699 -0.4496 -0.3777 -0.0584
 7851TIP3    H145044   0.804   5.507  10.775 -0.1504 -1.0194  0.3330
 7851TIP3    H245045   0.705   5.493  10.661  2.5486  3.4262 -2.8691
 7852TIP3   OH245046   0.913   4.801  12.316 -0.4714 -0.2450 -0.1865
 7852TIP3    H145047   0.885   4.803  12.225  1.7465  1.1030 -0.9211
 7852TIP3    H245048   0.931   4.892  12.338  1.9076 -0.8416  0.6154
 7853TIP3   OH245049   1.036   5.857   2.021  0.1841 -0.0850  0.4968
 7853TIP3    H145050   1.001   5.918   1.956 -1.9605 -0.0752  1.5732
 7853TIP3    H245051   1.020   5.770   1.984 -1.7603 -0.1100  1.2549
 7854TIP3   OH245052   5.717   5.401  13.411  0.2362 -0.0905 -0.5847
 7854TIP3    H145053   5.631   5.389  13.372  0.0951 -1.2662  0.0359
 7854TIP3    H245054   5.779   5.381  13.340 -0.0141 -0.7083 -0.6350
 7855TIP3   OH245055   6.686   5.863   2.514 -0.5607 -0.5274  0.4933
 7855TIP3    H145056   6.699   5.935   2.576 -0.4591 -0.9032  0.9141
 7855TIP3    H245057   6.644   5.794   2.566 -1.8242 -0.3073 -0.2044
 7856TIP3   OH245058   1.997   6.582  14.884  0.0189  0.2069 -0.5477
 7856TIP3    H145059   1.938   6.564  14.956 -1.0919  0.0662 -1.4557
 7856TIP3    H245060   2.084   6.568  14.919 -0.5827 -2.1994  0.1223
 7857TIP3   OH245061   4.041   0.201  13.787  0.2486 -0.5370 -0.2298
 7857TIP3    H145062   4.110   0.262  13.760 -0.8658  0.6297 -0.5720
 7857TIP3    H245063   4.016   0.157  13.706 -1.6840  1.4916 -0.8477
 7858TIP3   OH245064   0.235   6.691  15.387  0.4693  0.1859  0.1084
 7858TIP3    H145065   0.195   6.726  15.307  2.2189  1.9925 -0.0598
 7858TIP3    H245066   0.203   6.747  15.457  0.2639 -0.3363  0.4382
 7859TIP3   OH245067   2.623   5.168  13.728 -0.3865 -0.0758  0.1034
 7859TIP3    H145068   2.692   5.224  13.763 -0.7666  0.4943 -0.0528
 7859TIP3    H245069   2.542   5.211  13.753 -0.6935 -0.8242  0.4220
 7860TIP3   OH245070   1.432   0.613   3.563  0.0492  0.0823 -0.9228
 7860TIP3    H145071   1.480   0.677   3.510  2.3297  0.0266  0.8857
 7860TIP3    H245072   1.500   0.571   3.616 -1.8873 -1.0001  0.8438
 7861TIP3   OH245073   3.625   2.950   5.107  0.3648  0.0383  0.0138
 7861TIP3    H145074   3.674   2.991   5.179 -0.9403  0.8836  0.4526
 7861TIP3    H245075   3.576   3.022   5.068 -0.4591 -0.7719 -0.4617
 7862TIP3   OH245076   0.882   3.901  12.940 -0.1382 -0.3466 -0.1065
 7862TIP3    H145077   0.901   3.827  12.999 -1.9194 -0.3008  0.5875
 7862TIP3    H245078   0.841   3.861  12.864 -0.9998 -0.1123  0.2201
 7863TIP3   OH245079   0.019   2.901   5.312  0.6472 -0.4322  0.8057
 7863TIP3    H145080   0.047   2.992   5.300  0.5107 -0.5377 -0.4962
 7863TIP3    H245081  -0.076   2.906   5.320  0.0129 -0.7316 -3.9213
 7864TIP3   OH245082   6.699   6.130   3.970  0.2791  0.2778  0.1384
 7864TIP3    H145083   6.716   6.056   4.028  1.6165 -1.6292 -2.4565
 7864TIP3    H245084   6.744   6.204   4.011  1.2216 -0.9709  1.4823
 7865TIP3   OH245085   1.222   2.473  17.065 -0.0779  0.3618 -0.5507
 7865TIP3    H145086   1.312   2.481  17.099 -0.7449 -2.2693  2.2796
 7865TIP3    H245087   1.168   2.464  17.143 -2.4463 -1.0204 -2.2329
 7866TIP3   OH245088   1.449   4.157   3.026  0.0765 -0.1709 -0.3484
 7866TIP3    H145089   1.510   4.231   3.028 -0.6918  0.5393 -1.4932
 7866TIP3    H245090   1.465   4.110   3.107  2.2207 -0.0823 -0.6683
 7867TIP3   OH245091   1.736   4.109  15.116 -0.0388 -0.1111  0.3536
 7867TIP3    H145092   1.731   4.042  15.184  0.5292  1.0377  1.5612
 7867TIP3    H245093   1.683   4.181  15.149 -0.0052  0.3480 -0.5655
 7868TIP3   OH245094   5.624   3.724   2.490  0.0606  0.3281  0.9267
 7868TIP3    H145095   5.637   3.812   2.456  0.4665 -0.4871 -1.1763
 7868TIP3    H245096   5.683   3.718   2.565  1.0290  1.4260  0.2822
 7869TIP3   OH245097   3.345   2.854  11.562  0.0434  0.2385 -0.0486
 7869TIP3    H145098   3.396   2.801  11.622  0.7676  0.1597 -0.7189
 7869TIP3    H245099   3.259   2.862  11.604  0.5245  0.1889  0.9865
 7870TIP3   OH245100   0.208   1.851  12.732 -0.2415  0.1650 -0.0311
 7870TIP3    H145101   0.176   1.858  12.822  0.3695  0.9070  0.1349
 7870TIP3    H245102   0.185   1.762  12.706  0.0376 -0.2415  1.0432
 7871TIP3   OH245103   1.852   1.659  12.975  0.0174  0.1422  0.4319
 7871TIP3    H145104   1.878   1.572  13.005 -0.1471  0.2005  0.7418
 7871TIP3    H245105   1.853   1.713  13.054  2.8235  1.1024 -0.1407
 7872TIP3   OH245106   0.830   3.252   3.542  0.1133  0.0671  0.2023
 7872TIP3    H145107   0.856   3.343   3.529  2.3372 -0.5684 -0.3453
 7872TIP3    H245108   0.832   3.240   3.637 -0.5478  0.6720  0.2963
 7873TIP3   OH245109   6.752   0.063  12.858  0.0484  0.2542 -0.3165
 7873TIP3    H145110   6.715  -0.025  12.849  1.0315 -0.2160  0.1392
 7873TIP3    H245111   6.742   0.084  12.950  0.7969  0.1691 -0.2096
 7874TIP3   OH245112   5.351   6.381  10.843 -0.1517  0.0492  0.6922
 7874TIP3    H145113   5.343   6.290  10.869 -0.2737 -0.2238 -0.2653
 7874TIP3    H245114   5.264   6.406  10.812 -0.2299  0.6210  1.3526
 7875TIP3   OH245115   6.782   3.561  11.414  0.4675 -0.4090 -0.3047
 7875TIP3    H145116   6.728   3.592  11.342  2.2147  2.4138 -0.5674
 7875TIP3    H245117   6.871   3.559  11.378  0.9839 -1.8764  0.9499
 7876TIP3   OH245118   4.990   6.426  11.101  0.1341 -0.0045 -0.2150
 7876TIP3    H145119   4.969   6.342  11.142 -0.7422 -0.1563 -0.9415
 7876TIP3    H245120   4.966   6.414  11.009 -3.2434  2.0483  0.2014
 7877TIP3   OH245121   4.029   6.623  14.372 -0.4840  0.0774  0.4359
 7877TIP3    H145122   4.083   6.681  14.427 -2.6719  1.5621  1.1572
 7877TIP3    H245123   3.974   6.575  14.434 -0.8946 -0.4419 -0.3198
 7878TIP3   OH245124   5.307   1.544  11.465 -0.9290 -0.4592  0.1645
 7878TIP3    H145125   5.330   1.617  11.407  1.9104 -0.0486  1.5989
 7878TIP3    H245126   5.304   1.468  11.407  2.1692 -0.1232 -0.6421
 7879TIP3   OH245127   0.371   2.279   5.461  0.7624  0.3271  0.4723
 7879TIP3    H145128   0.366   2.269   5.366  1.8437  1.0781  0.3097
 7879TIP3    H245129   0.336   2.366   5.478  3.5183  1.5525  0.3642
 7880TIP3   OH245130   6.638   5.312   4.701  0.7271 -0.2187  0.5818
 7880TIP3    H145131   6.573   5.383   4.694  0.0871 -0.6575  1.8057
 7880TIP3    H245132   6.641   5.292   4.794  2.2148 -0.6132  0.4703
 7881TIP3   OH245133   1.803   1.436  10.514 -0.4264  0.1882 -0.0497
 7881TIP3    H145134   1.822   1.342  10.522  0.1866  0.3966  1.2301
 7881TIP3    H245135   1.878   1.472  10.467 -1.1272 -0.0890 -1.4417
 7882TIP3   OH245136   1.081   1.528  15.526 -0.6042 -0.0445  0.0502
 7882TIP3    H145137   1.011   1.539  15.462 -1.6749  0.1164  1.2107
 7882TIP3    H245138   1.060   1.446  15.571 -0.0282 -0.0133  0.3837
 7883TIP3   OH245139   0.319   6.293  16.908  0.3990 -0.2833 -0.7787
 7883TIP3    H145140   0.339   6.379  16.872 -0.4186  0.4879  0.5431
 7883TIP3    H245141   0.379   6.234  16.863  1.1365  1.0050 -1.5435
 7884TIP3   OH245142   2.761   6.664   5.791 -0.3558 -0.2652 -0.1100
 7884TIP3    H145143   2.846   6.629   5.818 -0.5504 -0.8118 -0.1723
 7884TIP3    H245144   2.708   6.585   5.772 -0.9027  0.0654  0.0234
 7885TIP3   OH245145   2.231   1.291  14.471  0.3208 -0.1486 -0.3641
 7885TIP3    H145146   2.327   1.294  14.474  0.4489 -2.1108 -1.1088
 7885TIP3    H245147   2.205   1.254  14.555  0.3631 -1.3645 -0.8636
 7886TIP3   OH245148   6.527   3.708  16.641 -0.0532  0.2884 -0.2692
 7886TIP3    H145149   6.464   3.637  16.625 -0.5357  0.7631 -0.5069
 7886TIP3    H245150   6.555   3.735  16.554  0.9742 -0.3375 -0.1570
 7887TIP3   OH245151   1.038   2.161   2.088  0.4997  0.2693 -0.0275
 7887TIP3    H145152   1.096   2.165   2.012  1.1847 -0.8764  0.4035
 7887TIP3    H245153   0.985   2.083   2.073  1.6092 -0.8038  1.2997
 7888TIP3   OH245154   4.976   3.790  16.643  0.3325  0.3093  0.0155
 7888TIP3    H145155   5.028   3.807  16.721  2.4375 -2.0174 -0.7268
 7888TIP3    H245156   5.007   3.854  16.578 -0.3560  1.2630  0.6025
 7889TIP3   OH245157   2.680   4.325  11.195 -0.0893  0.8136  0.2266
 7889TIP3    H145158   2.669   4.342  11.101  1.0215 -1.4759 -0.4034
 7889TIP3    H245159   2.763   4.276  11.201  0.8971  2.5708  2.6508
 7890TIP3   OH245160   6.272   2.003   1.392  0.1418  0.1001  0.3386
 7890TIP3    H145161   6.252   2.091   1.359  0.5670  0.7945  1.8365
 7890TIP3    H245162   6.263   2.010   1.487 -0.9956 -1.8003  0.4298
 7891TIP3   OH245163   2.440   6.285   2.726 -0.3957  0.1758 -0.3321
 7891TIP3    H145164   2.368   6.344   2.750 -0.4856 -0.1410  0.2003
 7891TIP3    H245165   2.420   6.204   2.773 -0.3891 -0.3558 -1.2231
 7892TIP3   OH245166   3.889   4.959   2.563  0.0968 -0.6972  0.2807
 7892TIP3    H145167   3.833   4.959   2.485 -0.3650  0.4035  0.5988
 7892TIP3    H245168   3.891   5.050   2.591 -0.5724 -1.2065  2.1504
 7893TIP3   OH245169   4.932   3.289  11.279  0.4561 -0.5101  0.6788
 7893TIP3    H145170   4.938   3.374  11.235  2.2731 -0.6577  0.5821
 7893TIP3    H245171   4.938   3.309  11.372 -0.0205 -0.4715  0.7046
 7894TIP3   OH245172   0.995   1.593   1.193  0.3179  0.2441 -0.2237
 7894TIP3    H145173   0.989   1.665   1.256  1.3833  1.9218 -1.9341
 7894TIP3    H245174   1.015   1.636   1.110 -0.5636 -1.9302 -1.6292
 7895TIP3   OH245175   4.944   3.697   2.214 -0.1222 -0.0330 -0.3552
 7895TIP3    H145176   5.005   3.697   2.288 -0.1196  0.2709 -0.3568
 7895TIP3    H245177   4.958   3.782   2.171 -0.1767 -0.1776 -0.6600
 7896TIP3   OH245178   2.616   1.348  12.441 -0.1064  0.0499 -0.3298
 7896TIP3    H145179   2.630   1.334  12.534  1.3752  2.7788 -0.0400
 7896TIP3    H245180   2.547   1.414  12.437 -0.1327 -0.0163 -1.1778
 7897TIP3   OH245181   2.721   1.533   4.358  0.1462 -0.3652 -0.0372
 7897TIP3    H145182   2.668   1.583   4.420  1.6245 -0.5638  1.4335
 7897TIP3    H245183   2.760   1.463   4.410  0.4998 -1.2574 -1.4482
 7898TIP3   OH245184   5.547   0.745  12.338  0.0469 -0.2189  0.1360
 7898TIP3    H145185   5.470   0.796  12.312 -0.2070 -0.8311 -0.3427
 7898TIP3    H245186   5.538   0.734  12.433  0.8624  1.8550  0.5092
 7899TIP3   OH245187   1.349   4.959  10.866  0.1945  0.0242 -0.1534
 7899TIP3    H145188   1.357   4.976  10.772  1.9353 -2.2102 -0.4934
 7899TIP3    H245189   1.276   4.896  10.873  0.5868 -0.4297 -0.1118
 7900TIP3   OH245190   6.533   6.368   2.952 -0.1329 -0.0734 -0.2400
 7900TIP3    H145191   6.443   6.353   2.924  0.0499 -1.2356 -0.2553
 7900TIP3    H245192   6.575   6.408   2.876 -0.6286  0.4933 -0.2268
 7901TIP3   OH245193   3.429   5.887  14.872 -0.2200 -0.0542 -0.2218
 7901TIP3    H145194   3.515   5.895  14.912  0.3601  0.0234 -1.4178
 7901TIP3    H245195   3.430   5.801  14.830 -0.6464  0.0195 -0.3906
 7902TIP3   OH245196   0.025   0.576  14.327 -0.0669  0.4152  0.6057
 7902TIP3    H145197  -0.037   0.503  14.323  0.5505 -0.0871 -2.8211
 7902TIP3    H245198   0.090   0.548  14.392  0.1768 -2.1828 -0.6274
 7903TIP3   OH245199   6.700   0.063  12.084 -0.4731  0.1889  0.0958
 7903TIP3    H145200   6.758   0.078  12.009 -0.5629 -0.3618 -0.0857
 7903TIP3    H245201   6.616   0.100  12.056  0.1619  2.4490  0.9658
 7904TIP3   OH245202   0.109   6.656   4.584  0.0615  0.3330 -0.2628
 7904TIP3    H145203   0.092   6.674   4.492 -0.2512  0.3954 -0.1940
 7904TIP3    H245204   0.176   6.720   4.609 -0.1853  0.6213 -0.3288
 7905TIP3   OH245205   6.132   6.284  15.751  0.1967 -0.2905  0.0052
 7905TIP3    H145206   6.168   6.210  15.701 -0.7948 -0.2819 -0.7517
 7905TIP3    H245207   6.177   6.361  15.716  1.5973 -0.5395  1.1347
 7906TIP3   OH245208   5.525   0.658   3.195  0.2804 -0.1881  0.3618
 7906TIP3    H145209   5.594   0.629   3.254  0.1602  2.1069  1.7370
 7906TIP3    H245210   5.570   0.703   3.124  0.2387  1.4103  1.3184
 7907TIP3   OH245211   6.698   3.154   5.203  0.1286 -0.0528 -0.2436
 7907TIP3    H145212   6.784   3.153   5.161  0.0304 -0.3577 -0.4460
 7907TIP3    H245213   6.652   3.228   5.163  0.1105 -0.2131 -0.5253
 7908TIP3   OH245214   5.413   0.439  11.532 -0.6709  0.1059 -0.1734
 7908TIP3    H145215   5.422   0.347  11.558 -2.2099  0.6288  2.6925
 7908TIP3    H245216   5.334   0.441  11.479 -1.3286 -0.1007  0.7659
 7909TIP3   OH245217   4.902   2.673   3.734  0.0311  0.3359 -0.1321
 7909TIP3    H145218   4.863   2.754   3.767  1.3820  1.0310 -0.1736
 7909TIP3    H245219   4.983   2.662   3.784  0.9849  0.2109 -1.6148
 7910TIP3   OH245220   0.645   3.705  14.514 -0.4320 -0.2699  0.0828
 7910TIP3    H145221   0.578   3.741  14.456 -1.0175 -0.8274  0.4101
 7910TIP3    H245222   0.695   3.781  14.543 -0.3469  0.0595 -0.8695
 7911TIP3   OH245223   2.794   1.633  12.498  0.1680 -0.0097  0.0303
 7911TIP3    H145224   2.796   1.645  12.403  0.3223 -1.9716 -0.2518
 7911TIP3    H245225   2.708   1.665  12.524  0.4636  1.3976 -0.6195
 7912TIP3   OH245226   4.181   2.909   4.118 -0.5047 -0.1988 -0.1829
 7912TIP3    H145227   4.162   2.966   4.192 -0.3216  0.8105 -0.9025
 7912TIP3    H245228   4.098   2.864   4.101 -0.5232 -0.5144  0.6799
 7913TIP3   OH245229   5.495   2.858   2.250  0.6603  0.1459  0.4011
 7913TIP3    H145230   5.434   2.886   2.182 -0.3896  2.0771  2.0396
 7913TIP3    H245231   5.581   2.861   2.208 -0.2215 -1.7861 -1.7045
 7914TIP3   OH245232   4.074   3.931  16.248  0.1032 -0.0945 -1.0855
 7914TIP3    H145233   4.139   3.872  16.210  0.6307  0.4402 -1.0327
 7914TIP3    H245234   4.096   3.935  16.341 -0.8281 -0.9414 -0.8054
 7915TIP3   OH245235   4.921   3.861   0.962 -0.5312 -0.1450  0.1413
 7915TIP3    H145236   4.976   3.800   1.012  0.5074  0.4061 -0.3081
 7915TIP3    H245237   4.979   3.895   0.894 -1.1048  1.2998  0.3378
 7916TIP3   OH245238   6.203   4.019  14.437 -0.3668  0.6205  0.2172
 7916TIP3    H145239   6.270   4.063  14.385 -0.4525  0.4014 -0.0827
 7916TIP3    H245240   6.131   4.005  14.376 -0.4477  0.3160  0.3797
 7917TIP3   OH245241   1.753   4.036  11.838 -0.1113  0.0499  0.3260
 7917TIP3    H145242   1.747   4.021  11.932  1.1817  1.1579  0.6322
 7917TIP3    H245243   1.830   4.093  11.828  1.1157 -1.7680 -1.5942
 7918TIP3   OH245244   4.583   1.753   1.667  0.8263 -0.5019 -0.0402
 7918TIP3    H145245   4.621   1.695   1.733 -2.9776 -1.0850  1.9518
 7918TIP3    H245246   4.519   1.697   1.622 -0.2563  1.2005 -0.6886
 7919TIP3   OH245247   1.925   6.652  16.617  0.1256  0.3428  0.2879
 7919TIP3    H145248   1.917   6.567  16.659 -0.4715  0.0128 -0.4670
 7919TIP3    H245249   1.986   6.637  16.544  0.0408  0.5628  0.1691
 7920TIP3   OH245250   5.252   6.258  13.936  0.2023 -0.1586 -0.1529
 7920TIP3    H145251   5.337   6.218  13.919  0.5774  0.4804  0.1730
 7920TIP3    H245252   5.273   6.344  13.972 -0.5842  0.4011 -0.9834
 7921TIP3   OH245253   3.079   3.054   4.635 -0.1580  0.0909 -0.2342
 7921TIP3    H145254   3.095   3.049   4.541  0.4962  0.4915 -0.1510
 7921TIP3    H245255   3.072   2.963   4.663  0.9589 -0.0830 -0.4563
 7922TIP3   OH245256   4.370   5.179  16.130 -0.6094 -0.3987  0.0934
 7922TIP3    H145257   4.353   5.268  16.097  2.2016  0.5010  0.8469
 7922TIP3    H245258   4.325   5.176  16.214  0.5691  0.9299  0.8136
 7923TIP3   OH245259   6.597   0.085   1.951 -0.1497  0.5942 -0.5045
 7923TIP3    H145260   6.632   0.041   2.028 -1.0302  1.8471  0.6374
 7923TIP3    H245261   6.658   0.061   1.881 -0.7773 -2.7277 -0.0755
 7924TIP3   OH245262   5.837   6.047   0.899  0.0728  0.3679  0.4477
 7924TIP3    H145263   5.792   6.014   0.976  0.7771 -0.9164  0.3451
 7924TIP3    H245264   5.851   5.969   0.844  0.0412  1.1661 -0.7383
 7925TIP3   OH245265   2.254   4.688  16.496 -0.5118  0.2180  0.6765
 7925TIP3    H145266   2.290   4.776  16.509 -1.7042  0.6168  1.4373
 7925TIP3    H245267   2.207   4.669  16.577 -0.6831 -0.9350  0.3317
 7926TIP3   OH245268   1.940   1.525   4.075 -0.2477 -0.1058  0.1912
 7926TIP3    H145269   2.008   1.519   4.007 -0.1591 -2.6618  0.3954
 7926TIP3    H245270   1.985   1.501   4.156 -1.2352 -1.3439  0.4119
 7927TIP3   OH245271   0.410   0.584   5.371  0.0102  0.7427 -0.0530
 7927TIP3    H145272   0.330   0.560   5.416 -0.4623  1.6667 -0.3616
 7927TIP3    H245273   0.406   0.538   5.287  0.4501 -0.2478  0.4493
 7928TIP3   OH245274   2.987   2.972  13.482  0.5619 -0.1770 -0.2289
 7928TIP3    H145275   3.075   2.968  13.520  0.1902 -0.7658  0.6122
 7928TIP3    H245276   3.000   3.013  13.397  1.6025  0.0659  0.0227
 7929TIP3   OH245277   1.801   6.670  13.910  0.1904 -0.1531  0.2628
 7929TIP3    H145278   1.842   6.730  13.849 -2.7168  1.2267 -0.5317
 7929TIP3    H245279   1.822   6.583  13.876 -1.4572  0.5525 -2.9589
 7930TIP3   OH245280   1.589   3.889   1.059 -0.2685 -0.4030  0.6539
 7930TIP3    H145281   1.587   3.969   1.007  0.8034 -0.9441 -0.2481
 7930TIP3    H245282   1.676   3.852   1.045 -0.6838 -1.6593  1.1564
 7931TIP3   OH245283   4.066   4.449  10.986  0.0453 -0.2518 -0.0220
 7931TIP3    H145284   4.136   4.391  10.956 -0.8132 -0.0542 -2.6745
 7931TIP3    H245285   3.995   4.391  11.011 -0.0744 -0.4275 -0.7298
 7932TIP3   OH245286   0.383   4.607   0.811  0.5809 -0.1901 -0.4966
 7932TIP3    H145287   0.455   4.614   0.749  1.9648  1.5600  1.1870
 7932TIP3    H245288   0.424   4.620   0.897 -1.5407 -0.5302  0.6310
 7933TIP3   OH245289   4.140   1.914   5.699  0.0260  0.1120 -0.0702
 7933TIP3    H145290   4.170   1.841   5.644  0.8632 -0.0079  0.5348
 7933TIP3    H245291   4.178   1.897   5.785 -0.1180  1.0353  0.1893
 7934TIP3   OH245292   2.059   2.922  10.758 -0.5387  0.0994 -0.0358
 7934TIP3    H145293   2.136   2.870  10.779 -0.0490  1.2675  1.1549
 7934TIP3    H245294   1.985   2.863  10.774  0.0672 -1.1394 -1.5151
 7935TIP3   OH245295   6.498   2.997   3.405 -0.0138  0.1775  0.0207
 7935TIP3    H145296   6.581   2.999   3.453 -0.2985  1.3998  0.4901
 7935TIP3    H245297   6.443   2.937   3.455  0.4993 -0.4585 -0.1643
 7936TIP3   OH245298   5.586   0.501  10.917 -0.0351 -0.7156  0.2910
 7936TIP3    H145299   5.670   0.524  10.877 -0.6580 -0.6816 -1.0752
 7936TIP3    H245300   5.538   0.583  10.922 -0.0455 -0.7592  0.9283
 7937TIP3   OH245301   1.264   4.362   5.006 -0.0868  0.7378 -0.5353
 7937TIP3    H145302   1.279   4.296   5.075  0.1821  0.9322 -0.4080
 7937TIP3    H245303   1.274   4.313   4.924  0.0898  0.6134 -0.4412
 7938TIP3   OH245304   1.237   2.110   4.511 -0.3106  0.1854  0.1375
 7938TIP3    H145305   1.232   2.139   4.602 -0.8219 -0.7222  0.4010
 7938TIP3    H245306   1.166   2.048   4.501 -1.4416  1.6339 -1.4031
 7939TIP3   OH245307   6.187   2.597  13.483 -0.5309  0.1632 -0.2078
 7939TIP3    H145308   6.103   2.603  13.530  0.6706  1.6642  1.9552
 7939TIP3    H245309   6.184   2.669  13.421 -0.8022  0.3162 -0.0227
 7940TIP3   OH245310   4.262   4.869  16.974  0.1184 -0.2438 -0.4162
 7940TIP3    H145311   4.342   4.912  16.942  0.4404  0.1243  0.8389
 7940TIP3    H245312   4.220   4.935  17.030 -0.3196 -0.9437  0.0891
 7941TIP3   OH245313   3.157   5.610  14.127  0.5986  0.1714 -0.9687
 7941TIP3    H145314   3.218   5.665  14.077 -1.4959  1.4116 -2.3754
 7941TIP3    H245315   3.145   5.657  14.209 -1.2032  2.0247 -2.1745
 7942TIP3   OH245316   3.130   4.938   2.903  0.9959  0.7541 -0.4491
 7942TIP3    H145317   3.167   4.852   2.923  1.2271  0.6284 -1.3508
 7942TIP3    H245318   3.082   4.963   2.982 -0.4551 -0.9369 -0.7428
 7943TIP3   OH245319   4.725   1.651   5.462  0.2746 -0.0706  0.0353
 7943TIP3    H145320   4.668   1.715   5.420  1.4931  2.6299  2.1567
 7943TIP3    H245321   4.788   1.625   5.394 -0.1108  1.2031 -0.8255
 7944TIP3   OH245322   5.936   1.766   4.149 -0.0514  0.4658  0.2522
 7944TIP3    H145323   5.945   1.855   4.116  0.4365  0.0875 -0.6748
 7944TIP3    H245324   5.905   1.776   4.239  4.3397  1.7454  1.8599
 7945TIP3   OH245325   4.319   4.910  14.997  0.0467  0.0441 -0.1869
 7945TIP3    H145326   4.227   4.931  14.985 -0.1137 -1.1167 -1.1577
 7945TIP3    H245327   4.319   4.831  15.051  0.3597 -1.0534 -1.7188
 7946TIP3   OH245328   0.977   1.184  11.199 -0.1295  0.0996  0.1426
 7946TIP3    H145329   1.061   1.232  11.197 -0.4058  0.5895  0.0097
 7946TIP3    H245330   0.979   1.136  11.281  0.0332  0.5763  0.4220
 7947TIP3   OH245331   3.314   4.790  16.060 -0.3157  0.7168 -0.2974
 7947TIP3    H145332   3.346   4.748  16.140  2.2914 -0.5611 -1.8983
 7947TIP3    H245333   3.279   4.719  16.007  2.4877  0.6426 -2.2676
 7948TIP3   OH245334   0.339   1.261   0.753  0.2761  0.8183  0.0915
 7948TIP3    H145335   0.335   1.289   0.845 -0.0339  0.4585  0.1871
 7948TIP3    H245336   0.277   1.189   0.747  1.3649 -0.1317 -0.0611
 7949TIP3   OH245337   1.531   5.918  15.034 -0.2740 -0.4301 -0.2237
 7949TIP3    H145338   1.560   5.888  14.947  0.1922  0.2456 -0.3113
 7949TIP3    H245339   1.436   5.919  15.028 -0.2732 -1.1900 -0.4518
 7950TIP3   OH245340   3.296   6.362   1.671 -0.4852 -0.7025  0.0919
 7950TIP3    H145341   3.358   6.421   1.630 -0.6572  0.7204  1.7352
 7950TIP3    H245342   3.233   6.420   1.715 -0.9028 -2.0799  1.4230
 7951TIP3   OH245343   0.832   6.353   0.129 -0.0408 -0.3616 -0.1234
 7951TIP3    H145344   0.801   6.443   0.124  1.3958  0.1620 -0.1730
 7951TIP3    H245345   0.874   6.337   0.044 -0.2390 -1.0568 -0.0974
 7952TIP3   OH245346   6.165   0.220  12.558  0.0985  0.5179 -0.3273
 7952TIP3    H145347   6.253   0.185  12.565 -0.3802 -1.3029 -2.1426
 7952TIP3    H245348   6.177   0.309  12.525  1.2671  0.7551  0.6754
 7953TIP3   OH245349   1.047   5.777  14.067 -0.2231 -0.6253  0.4378
 7953TIP3    H145350   1.059   5.716  13.995  0.2221  1.0123 -0.9639
 7953TIP3    H245351   0.953   5.796  14.068 -0.1262 -0.0566 -0.2648
 7954TIP3   OH245352   2.244   2.547  16.734  0.0613  0.6384 -0.0137
 7954TIP3    H145353   2.266   2.562  16.826  0.6917  0.9498 -0.2126
 7954TIP3    H245354   2.328   2.536  16.690 -0.1835  1.5482 -0.7365
 7955TIP3   OH245355   0.496   4.735  12.071  0.7806  0.3539  0.1995
 7955TIP3    H145356   0.468   4.808  12.126 -2.5237  0.3185 -1.1889
 7955TIP3    H245357   0.415   4.688  12.051  2.4357 -2.1392 -1.1506
 7956TIP3   OH245358   1.822   3.974  16.056  0.8807  0.3768  0.2785
 7956TIP3    H145359   1.816   3.881  16.034  1.2816  0.4733 -0.2403
 7956TIP3    H245360   1.737   4.010  16.030  1.2058  0.4140 -0.7555
 7957TIP3   OH245361   2.447   6.695  16.890 -0.0512  0.0915 -0.0965
 7957TIP3    H145362   2.389   6.619  16.899 -0.1501  0.1669 -0.0860
 7957TIP3    H245363   2.512   6.669  16.826  0.3220 -0.2492  0.4198
 7958TIP3   OH245364   2.863   3.511   0.564 -0.9891 -0.1251 -0.1141
 7958TIP3    H145365   2.906   3.443   0.615 -1.2389 -0.3766 -0.2370
 7958TIP3    H245366   2.795   3.546   0.622 -0.5766  0.3288  0.1098
 7959TIP3   OH245367   0.395   2.361  10.500  0.3218 -0.1554  0.0575
 7959TIP3    H145368   0.408   2.291  10.565  3.1593  0.2394  0.0665
 7959TIP3    H245369   0.463   2.345  10.435 -0.4653  1.2810 -1.1610
 7960TIP3   OH245370   4.785   6.212   5.167  0.2806  0.0041 -0.4576
 7960TIP3    H145371   4.832   6.222   5.250 -1.3719 -0.3839  0.5709
 7960TIP3    H245372   4.781   6.117   5.154  0.6739  0.0681 -1.0836
 7961TIP3   OH245373   3.117   5.396  12.066  0.1482  0.7822 -0.5107
 7961TIP3    H145374   3.053   5.467  12.060 -0.6749  0.3157  1.4932
 7961TIP3    H245375   3.199   5.438  12.091 -0.0424  1.1448 -0.4969
 7962TIP3   OH245376   5.034   3.322  17.141 -0.2701 -0.4154 -0.5851
 7962TIP3    H145377   5.045   3.382  17.215 -0.4801 -2.4537  1.2131
 7962TIP3    H245378   5.080   3.242  17.168 -1.6245 -1.7500 -2.0014
 7963TIP3   OH245379   2.191   2.374  14.646 -0.0616 -0.8023  0.0196
 7963TIP3    H145380   2.156   2.435  14.711  2.3001  0.5502  0.1230
 7963TIP3    H245381   2.172   2.288  14.681 -0.6470 -0.1084  1.4951
 7964TIP3   OH245382   0.898   0.191  13.038 -0.2663 -0.8829 -0.3763
 7964TIP3    H145383   0.921   0.281  13.060 -0.3340 -1.1219  0.7608
 7964TIP3    H245384   0.982   0.145  13.033 -0.0729 -0.3725 -2.9659
 7965TIP3   OH245385   6.596   5.835  15.475  0.1593 -0.2922 -0.2094
 7965TIP3    H145386   6.583   5.847  15.569 -0.4536  1.3825 -0.4811
 7965TIP3    H245387   6.509   5.847  15.437  0.7066  0.9333 -1.1372
 7966TIP3   OH245388   4.847   3.524   0.079 -0.5564 -0.2994 -0.2199
 7966TIP3    H145389   4.827   3.601   0.027  1.7368  0.0681 -0.6979
 7966TIP3    H245390   4.812   3.450   0.027  0.6748  0.1464 -1.7855
 7967TIP3   OH245391   6.586   3.541  14.857 -0.1747  0.2704 -0.2134
 7967TIP3    H145392   6.679   3.518  14.851  0.0542  1.0099  0.2488
 7967TIP3    H245393   6.552   3.485  14.926 -0.2473 -0.5223 -0.8884
 7968TIP3   OH245394   6.333   6.488   3.527  0.6551  0.6556 -0.7826
 7968TIP3    H145395   6.292   6.570   3.553 -0.4570  0.0058 -0.4311
 7968TIP3    H245396   6.344   6.439   3.609 -1.1616 -0.6291 -1.2443
 7969TIP3   OH245397   4.012   3.758   1.134 -0.5572  0.5815  0.1380
 7969TIP3    H145398   3.954   3.736   1.061  1.1618 -1.7783 -0.6304
 7969TIP3    H245399   3.958   3.746   1.212 -1.3095 -0.9042 -0.5821
 7970TIP3   OH245400   1.995   6.251   3.126  0.4680 -0.3427  0.5675
 7970TIP3    H145401   2.032   6.181   3.179  1.2325  0.2014  0.7738
 7970TIP3    H245402   2.038   6.242   3.040  0.5091 -0.1745  0.5704
 7971TIP3   OH245403   0.138   2.791   3.556  0.3110  0.3043  0.6065
 7971TIP3    H145404   0.130   2.696   3.568 -0.6710  0.5794  2.5396
 7971TIP3    H245405   0.226   2.811   3.587 -0.3624  0.2953  2.6969
 7972TIP3   OH245406   5.751   6.586  16.483  0.3123  0.6201  0.2824
 7972TIP3    H145407   5.734   6.494  16.505  1.0171  0.6212  0.8630
 7972TIP3    H245408   5.678   6.610  16.425 -0.8706  0.2247  1.5417
 7973TIP3   OH245409   3.819   1.226  13.149 -0.2743  0.1403  0.6197
 7973TIP3    H145410   3.777   1.295  13.201 -2.1252  0.5857 -1.3598
 7973TIP3    H245411   3.794   1.145  13.193 -0.3753  0.5714  1.3879
 7974TIP3   OH245412   2.163   6.806  13.428 -0.3225 -0.0718  0.1366
 7974TIP3    H145413   2.078   6.844  13.405  0.2125 -0.3414 -2.6751
 7974TIP3    H245414   2.222   6.881  13.429 -0.3115 -0.0854  0.5030
 7975TIP3   OH245415   6.580   4.216  13.101  0.1854 -0.0229  0.2097
 7975TIP3    H145416   6.624   4.143  13.056 -2.6874 -2.1106  0.5082
 7975TIP3    H245417   6.571   4.185  13.191  1.3213  1.9392  1.0435
 7976TIP3   OH245418   4.072   4.557  12.684  0.7564 -0.3138  0.1814
 7976TIP3    H145419   4.042   4.600  12.603  0.1727 -1.5739 -0.3070
 7976TIP3    H245420   4.144   4.612  12.715 -1.4985  2.4774  0.9852
 7977TIP3   OH245421   5.711   6.256   0.549  0.2776  0.6974  0.5302
 7977TIP3    H145422   5.689   6.248   0.456 -0.6277  0.6425  0.7423
 7977TIP3    H245423   5.647   6.317   0.584 -1.7214 -1.9742  1.8630
 7978TIP3   OH245424   4.115   2.007   5.370  0.5003 -0.5095  0.2401
 7978TIP3    H145425   4.072   2.069   5.429  1.7791  0.0180  0.6768
 7978TIP3    H245426   4.085   1.921   5.399  1.9545 -0.3473  2.4800
 7979TIP3   OH245427   3.024   1.992  16.887 -0.3144 -0.6785  0.0386
 7979TIP3    H145428   3.085   1.931  16.928  0.1259 -0.8070 -0.7823
 7979TIP3    H245429   3.040   2.076  16.929  1.6252 -0.3105 -1.2895
 7980TIP3   OH245430   5.000   1.748  13.013 -1.1243 -0.1241 -0.0042
 7980TIP3    H145431   5.073   1.688  13.028 -0.8807 -0.0659 -0.8847
 7980TIP3    H245432   5.039   1.820  12.962 -1.4352  0.7231  0.9288
 7981TIP3   OH245433   4.050   0.127   0.577  0.5051 -0.1727 -0.1075
 7981TIP3    H145434   4.006   0.209   0.600 -2.4287 -1.6189 -0.1533
 7981TIP3    H245435   4.053   0.128   0.481  1.6007  0.3861 -0.0837
 7982TIP3   OH245436   5.507   3.805   1.872  0.1657  0.5863 -0.6668
 7982TIP3    H145437   5.481   3.889   1.909 -1.9831 -0.8827  1.4115
 7982TIP3    H245438   5.438   3.784   1.809  0.3161  0.0415 -0.6544
 7983TIP3   OH245439   5.002   3.369  13.563 -0.2451 -0.3125  0.4520
 7983TIP3    H145440   4.982   3.275  13.568 -0.4628 -0.2019  2.2957
 7983TIP3    H245441   5.031   3.392  13.651  0.6251  1.1937 -0.1890
 7984TIP3   OH245442   1.338   3.763   0.211 -0.2120 -0.3365 -0.4286
 7984TIP3    H145443   1.416   3.709   0.196 -0.6869 -1.1142 -0.1617
 7984TIP3    H245444   1.322   3.757   0.305  0.7458  1.7201 -0.0857
 7985TIP3   OH245445   0.299   6.418   4.235  0.1471  0.4474 -0.2679
 7985TIP3    H145446   0.381   6.423   4.186  1.7133  1.6693  2.3135
 7985TIP3    H245447   0.290   6.325   4.257  0.6625  0.2586 -0.8379
 7986TIP3   OH245448   4.120   5.247  14.845 -0.1069 -0.3712 -0.1228
 7986TIP3    H145449   4.188   5.313  14.855  2.0902 -2.4018 -0.6951
 7986TIP3    H245450   4.079   5.243  14.932  0.8843  0.5066  0.4144
 7987TIP3   OH245451   1.957   1.017   0.171 -0.0646  0.0668 -0.7415
 7987TIP3    H145452   1.918   1.095   0.211  0.7121  0.1229 -0.0404
 7987TIP3    H245453   2.041   1.007   0.217  0.8329  0.0710 -2.3259
 7988TIP3   OH245454   6.437   2.491  11.237 -0.2907  0.1662  0.0595
 7988TIP3    H145455   6.485   2.555  11.184  1.4961 -1.1383 -0.0227
 7988TIP3    H245456   6.502   2.461  11.301 -1.3208 -0.9580  0.6016
 7989TIP3   OH245457   5.360   1.074   2.099  0.1988  0.0445 -0.2648
 7989TIP3    H145458   5.333   1.007   2.036 -1.4898  0.6126 -0.1974
 7989TIP3    H245459   5.364   1.028   2.183  1.1542 -0.4247 -0.5573
 7990TIP3   OH245460   6.547   4.248   5.556  0.2982 -0.4117  0.1340
 7990TIP3    H145461   6.612   4.316   5.575 -1.9153  1.3843  1.7719
 7990TIP3    H245462   6.485   4.290   5.497 -0.6530 -1.3253  0.4596
 7991TIP3   OH245463   3.108   1.565  11.778  0.4123 -0.1353  0.0946
 7991TIP3    H145464   3.047   1.579  11.850 -1.8083 -0.0990 -1.6981
 7991TIP3    H245465   3.088   1.634  11.715  0.0616 -1.9714 -1.9389
 7992TIP3   OH245466   1.104   1.907   4.209 -0.1934 -0.3545 -0.1299
 7992TIP3    H145467   1.166   1.902   4.282  0.8002 -0.3553 -0.9446
 7992TIP3    H245468   1.112   1.997   4.178 -1.0001 -0.2056  0.0810
 7993TIP3   OH245469   1.766   3.961  16.326 -0.9973 -0.1410 -0.1503
 7993TIP3    H145470   1.772   3.866  16.331  1.7893 -0.0540 -0.3350
 7993TIP3    H245471   1.804   3.983  16.241  0.4794  1.2097  0.8036
 7994TIP3   OH245472   2.411   2.140   0.123 -0.0784 -0.4796  0.2971
 7994TIP3    H145473   2.344   2.129   0.191 -1.5270  1.8268 -0.6499
 7994TIP3    H245474   2.489   2.169   0.171 -0.8724  0.4365  1.0855
 7995TIP3   OH245475   2.857   6.571   0.220  0.0005 -0.6023  0.1562
 7995TIP3    H145476   2.812   6.516   0.156  0.0039  0.5257 -0.8510
 7995TIP3    H245477   2.934   6.605   0.174 -0.5843  1.1086  0.3450
 7996TIP3   OH245478   6.520   5.260  14.307 -0.2261  0.2462 -0.3003
 7996TIP3    H145479   6.589   5.319  14.276 -0.9431  0.3008 -1.8925
 7996TIP3    H245480   6.521   5.187  14.245 -0.7923 -0.3453  0.3717
 7997TIP3   OH245481   5.319   1.584   4.190 -0.1049 -0.0442  0.4852
 7997TIP3    H145482   5.227   1.606   4.172  0.2944  1.5689  0.3053
 7997TIP3    H245483   5.331   1.608   4.282  0.7723  2.2160 -0.1454
 7998TIP3   OH245484   1.903   5.303   3.846  0.2214  0.4179 -0.0330
 7998TIP3    H145485   1.958   5.352   3.785 -1.0148  1.5921 -0.2717
 7998TIP3    H245486   1.951   5.223   3.864  0.6487  0.0458 -2.5379
 7999TIP3   OH245487   3.219   5.976   0.477 -0.3532 -0.0964  0.0631
 7999TIP3    H145488   3.169   5.924   0.415  0.1000  0.6588 -0.9813
 7999TIP3    H245489   3.288   5.917   0.508 -0.9316 -0.6564  0.2944
 8000TIP3   OH245490   3.984   0.089  11.378 -0.4433 -0.2440  0.3821
 8000TIP3    H145491   3.911   0.097  11.439  1.1066  0.1729  2.2867
 8000TIP3    H245492   3.989  -0.004  11.358 -1.0690 -0.3744  0.7983
 8001TIP3   OH245493   3.294   4.804  14.917  0.1085 -0.5676  0.7744
 8001TIP3    H145494   3.333   4.884  14.953  0.3530 -0.5745  0.5251
 8001TIP3    H245495   3.314   4.736  14.982  0.5275 -0.5753  0.6362
 8002TIP3   OH245496   5.138   3.089   0.954 -0.1397 -0.1742 -0.4171
 8002TIP3    H145497   5.074   3.042   1.007 -0.9032  1.3323  0.0751
 8002TIP3    H245498   5.187   3.021   0.909  0.8925 -1.5580  2.5578
 8003TIP3   OH245499   4.754   3.892  15.463 -0.9404 -0.2433  0.3224
 8003TIP3    H145500   4.772   3.899  15.369  2.0523 -1.9391  0.6397
 8003TIP3    H245501   4.683   3.829  15.470  0.2320 -1.7777 -0.8058
 8004TIP3   OH245502   0.031   5.859  15.372 -0.0834  0.0793 -0.4528
 8004TIP3    H145503  -0.030   5.805  15.321  0.4208 -0.3732 -0.5901
 8004TIP3    H245504  -0.010   5.867  15.458 -0.5745  0.2003 -0.6974
 8005TIP3   OH245505   6.200   2.234   1.773 -0.1595 -0.2170 -0.3608
 8005TIP3    H145506   6.187   2.276   1.688  0.1631 -0.5240 -0.5644
 8005TIP3    H245507   6.159   2.148   1.764  0.8973 -0.7158 -0.6055
 8006TIP3   OH245508   0.864   3.205   3.039  0.4907  0.0961  0.3787
 8006TIP3    H145509   0.809   3.283   3.043 -0.9548 -0.9002  1.1297
 8006TIP3    H245510   0.846   3.160   3.122  1.2858 -1.0235 -0.0389
 8007TIP3   OH245511   1.654   3.586   1.212  0.2894 -0.7198 -0.1586
 8007TIP3    H145512   1.606   3.568   1.131  1.4966  0.3143 -1.1498
 8007TIP3    H245513   1.726   3.522   1.211  0.4452 -0.5475 -0.0332
 8008TIP3   OH245514   3.236   5.598   3.080  0.5665 -0.0851  0.5780
 8008TIP3    H145515   3.206   5.597   3.171  0.7957  0.1764  0.6584
 8008TIP3    H245516   3.156   5.599   3.028  0.3742 -2.2507  0.7273
 8009TIP3   OH245517   3.112   2.239   4.910  0.2812  0.2237  0.0127
 8009TIP3    H145518   3.136   2.241   5.002  0.6391  0.7712 -0.0917
 8009TIP3    H245519   3.193   2.217   4.864  0.0889 -0.1212 -0.1699
 8010TIP3   OH245520   3.805   1.673   4.475 -0.0160 -0.5195 -0.1874
 8010TIP3    H145521   3.714   1.650   4.495 -0.0291 -0.3588 -0.0566
 8010TIP3    H245522   3.856   1.632   4.544 -0.1614  0.9982  0.8748
 8011TIP3   OH245523   3.485   3.247  16.706  0.2120  0.3787 -0.4903
 8011TIP3    H145524   3.485   3.204  16.792  0.8476  2.7507  0.7812
 8011TIP3    H245525   3.397   3.285  16.698  0.9390  2.3961  0.3888
 8012TIP3   OH245526   4.333   0.063  13.697  0.3382  0.0804  0.2010
 8012TIP3    H145527   4.410   0.024  13.655  0.8465  1.0773  0.1835
 8012TIP3    H245528   4.259   0.010  13.667  1.0536 -1.1408  0.5353
 8013TIP3   OH245529   3.732   3.471   0.201 -0.0531  0.2162 -0.5229
 8013TIP3    H145530   3.754   3.430   0.118  0.7585 -1.5479  0.5101
 8013TIP3    H245531   3.677   3.407   0.246  2.3161 -0.4189  1.6852
 8014TIP3   OH245532   3.616   4.303   1.323  0.1660 -0.1757  0.4474
 8014TIP3    H145533   3.526   4.270   1.318  0.2801 -0.5787  0.9013
 8014TIP3    H245534   3.654   4.283   1.238  0.2338 -1.2661  0.7137
 8015TIP3   OH245535   2.976   1.177   5.256  0.1583  0.4953 -0.1027
 8015TIP3    H145536   3.004   1.266   5.277  1.0007  0.2015  0.0796
 8015TIP3    H245537   3.013   1.123   5.327  0.4662 -0.1141 -0.7067
 8016TIP3   OH245538   3.428   1.103   4.759 -0.1684 -0.7188  0.1730
 8016TIP3    H145539   3.368   1.044   4.805 -0.1120 -0.4338  0.6093
 8016TIP3    H245540   3.501   1.115   4.820  0.0458 -0.5754 -0.1110
 8017TIP3   OH245541   3.428   5.997  12.785  0.5832 -0.1530  0.6086
 8017TIP3    H145542   3.438   6.068  12.721  0.8369  0.1525  0.9854
 8017TIP3    H245543   3.335   5.995  12.804  0.4239 -0.6158 -0.1920
 8018TIP3   OH245544   3.768   3.513  15.046 -0.0779 -0.1011 -0.6082
 8018TIP3    H145545   3.763   3.578  14.975 -1.5254  0.4097 -0.0848
 8018TIP3    H245546   3.794   3.432  15.002  1.5876  0.7644 -1.3002
 8019TIP3   OH245547   6.504   4.942   0.100  0.4578 -0.0335  0.3314
 8019TIP3    H145548   6.437   5.009   0.111 -0.2866 -0.7390  0.2249
 8019TIP3    H245549   6.537   4.925   0.188 -0.1125 -0.2766  0.5056
 8020TIP3   OH245550   1.857   0.146   5.842 -0.4502  0.0820 -0.1730
 8020TIP3    H145551   1.872   0.073   5.781  0.5807 -0.2777  0.4974
 8020TIP3    H245552   1.807   0.107   5.913 -0.9512  0.3173 -0.3933
 8021TIP3   OH245553   1.027   4.677  14.922  0.0930 -0.0882  0.0975
 8021TIP3    H145554   0.991   4.629  14.848  0.6239 -0.5258  0.1136
 8021TIP3    H245555   1.075   4.611  14.972  0.4061  0.3599  0.3947
 8022TIP3   OH245556   6.589   5.461   4.071  0.0857 -0.0368  1.0692
 8022TIP3    H145557   6.518   5.407   4.104  1.5448 -1.7234  1.6017
 8022TIP3    H245558   6.552   5.505   3.994 -1.8006 -0.0652  1.9088
 8023TIP3   OH245559   0.558   4.545   3.784 -0.1472  0.7034  0.0891
 8023TIP3    H145560   0.496   4.524   3.714 -0.1284 -1.2016  0.5951
 8023TIP3    H245561   0.612   4.615   3.747  0.5629 -0.9615 -2.3007
 8024TIP3   OH245562   5.798   3.732  13.853  0.4073 -0.2186 -0.2653
 8024TIP3    H145563   5.857   3.659  13.872  0.2606 -0.1389  0.5514
 8024TIP3    H245564   5.845   3.786  13.790  0.2961 -1.2906 -1.3069
 8025TIP3   OH245565   1.466   1.320   2.248 -0.6161 -0.1757  0.7219
 8025TIP3    H145566   1.506   1.349   2.330 -0.6878 -0.5090  0.8774
 8025TIP3    H245567   1.539   1.281   2.199 -0.0200  2.2229 -0.4511
 8026TIP3   OH245568   4.585   2.485  12.118 -0.6762  0.3736 -0.1964
 8026TIP3    H145569   4.629   2.405  12.091 -0.1510  0.2950  0.8621
 8026TIP3    H245570   4.528   2.508  12.044 -0.4914 -0.7211 -0.6825
 8027TIP3   OH245571   2.312   3.939  15.452  0.5081 -0.4822  0.1959
 8027TIP3    H145572   2.389   3.883  15.442  1.0841  0.5779 -2.1635
 8027TIP3    H245573   2.298   3.976  15.365 -0.9898  1.5510  1.2071
 8028TIP3   OH245574   6.219   4.133  13.656 -0.1994 -0.1646  0.1105
 8028TIP3    H145575   6.227   4.059  13.716 -0.0973  0.0907  0.4114
 8028TIP3    H245576   6.201   4.093  13.571  3.8055 -0.8226 -0.6057
 8029TIP3   OH245577   3.669   4.569   0.957 -0.4427 -0.3421 -0.0500
 8029TIP3    H145578   3.601   4.504   0.970  0.7522 -1.4883  0.6543
 8029TIP3    H245579   3.622   4.653   0.953 -1.9687 -1.1994 -0.6925
 8030TIP3   OH245580   0.837   2.815   5.448  0.5298 -0.2697  0.3586
 8030TIP3    H145581   0.860   2.737   5.499  1.9688 -0.1221 -0.0103
 8030TIP3    H245582   0.863   2.888   5.504  1.5258 -0.1002 -0.3116
 8031TIP3   OH245583   5.869   1.026  12.760 -0.0119  0.2406 -0.4337
 8031TIP3    H145584   5.848   1.001  12.670  1.6019  0.2684 -0.8429
 8031TIP3    H245585   5.938   0.966  12.787  0.0037  0.6697  0.5579
 8032TIP3   OH245586   6.792   1.099   5.818 -0.4652 -0.3262 -0.1543
 8032TIP3    H145587   6.820   1.108   5.909  0.0995  0.9362 -0.4299
 8032TIP3    H245588   6.699   1.122   5.818 -0.2039  0.7756 -0.0555
 8033TIP3   OH245589   4.847   5.923  13.035  0.0480 -0.1850 -0.0302
 8033TIP3    H145590   4.816   5.982  13.102 -0.6972  0.6975 -1.1233
 8033TIP3    H245591   4.866   5.841  13.081 -0.4238  0.4068  1.2331
 8034TIP3   OH245592   3.268   1.814   5.694 -0.5790  0.0710  0.0354
 8034TIP3    H145593   3.223   1.730   5.693  0.0006 -0.2703  0.8833
 8034TIP3    H245594   3.282   1.836   5.602 -1.4304 -0.3754 -0.2078
 8035TIP3   OH245595   1.590   5.202   3.885  0.2183  0.0902  0.2249
 8035TIP3    H145596   1.511   5.195   3.938  0.0610  0.2948  0.0218
 8035TIP3    H245597   1.642   5.125   3.908  0.5572  0.6299  1.3328
 8036TIP3   OH245598   1.033   6.667  15.876 -0.3752  0.8586  0.4123
 8036TIP3    H145599   1.038   6.761  15.895  2.7495  0.8439  0.2234
 8036TIP3    H245600   1.034   6.662  15.781  1.4753  0.6661  0.4042
 8037TIP3   OH245601   4.554   3.431  14.151 -0.4649  0.4891  0.2181
 8037TIP3    H145602   4.618   3.477  14.204 -0.1939  0.9679 -0.5140
 8037TIP3    H245603   4.585   3.440  14.061 -0.0935 -1.6095  0.0734
 8038TIP3   OH245604   1.700   0.078   2.572 -0.1050  0.5709  0.6668
 8038TIP3    H145605   1.790   0.100   2.596 -0.3578  0.9060  1.3403
 8038TIP3    H245606   1.676   0.007   2.631 -0.3608  0.6378  0.6447
 8039TIP3   OH245607   6.240   2.467  15.643 -0.0462 -0.3431  0.2274
 8039TIP3    H145608   6.197   2.443  15.561  0.3823  0.5935 -0.2847
 8039TIP3    H245609   6.333   2.452  15.626  0.2609  1.7176 -0.1616
 8040TIP3   OH245610   4.633   3.487  16.287  0.4113  0.5206  0.0019
 8040TIP3    H145611   4.657   3.473  16.195  1.2640 -0.4374  0.3438
 8040TIP3    H245612   4.576   3.413  16.308  1.3404 -0.0413  0.6113
 8041TIP3   OH245613   6.377   2.556   5.252  0.0301  0.0578 -0.3618
 8041TIP3    H145614   6.357   2.483   5.194 -1.6556  0.6347 -0.5712
 8041TIP3    H245615   6.296   2.607   5.255  1.1960  2.0042 -0.3457
 8042TIP3   OH245616   3.183   0.189  17.187 -0.4763  0.1598  0.3189
 8042TIP3    H145617   3.220   0.119  17.241 -1.0796 -0.8356 -0.5116
 8042TIP3    H245618   3.256   0.247  17.170 -0.1554  0.2359  1.7696
 8043TIP3   OH245619   4.381   3.739   5.477 -0.1251  0.2876  0.1088
 8043TIP3    H145620   4.444   3.667   5.478  0.7261  0.9889  1.5179
 8043TIP3    H245621   4.335   3.731   5.394  0.6339 -1.2861 -0.1857
 8044TIP3   OH245622   0.443   3.419   1.151  0.4223 -0.3653 -0.2138
 8044TIP3    H145623   0.364   3.466   1.177  1.3234  1.2701 -0.3520
 8044TIP3    H245624   0.494   3.483   1.102  1.3582 -1.7177 -1.0722
 8045TIP3   OH245625   3.108   1.801   5.184  0.3367  0.4830 -0.1972
 8045TIP3    H145626   3.042   1.827   5.248 -0.7629  1.3387 -1.6066
 8045TIP3    H245627   3.066   1.731   5.133  2.0897 -1.9641  1.4878
 8046TIP3   OH245628   3.583   2.827   3.594  0.2752 -0.1984 -0.4533
 8046TIP3    H145629   3.620   2.915   3.597 -0.1519  0.0586 -2.0351
 8046TIP3    H245630   3.623   2.782   3.669 -1.4656  2.0527  2.0149
 8047TIP3   OH245631   2.496   2.536   3.621  0.4754  0.2982 -0.2871
 8047TIP3    H145632   2.446   2.578   3.550 -0.6292 -1.5324 -0.6599
 8047TIP3    H245633   2.466   2.579   3.700  2.1909  2.8336 -0.8976
 8048TIP3   OH245634   2.615   5.770   0.668 -0.3005  0.7565 -0.3121
 8048TIP3    H145635   2.547   5.789   0.733 -0.6763  2.2193 -1.0983
 8048TIP3    H245636   2.695   5.807   0.706  0.1643 -1.1827  0.7272
 8049TIP3   OH245637   4.857   0.560  12.631  0.4093  0.8444  0.0329
 8049TIP3    H145638   4.906   0.563  12.714 -0.2746 -0.2734  0.4973
 8049TIP3    H245639   4.780   0.614  12.647 -1.5947 -2.1791  1.4451
 8050TIP3   OH245640   3.211   5.548  15.808  0.3614  0.0150  0.0744
 8050TIP3    H145641   3.250   5.543  15.896  0.0687 -1.2764  0.1513
 8050TIP3    H245642   3.222   5.640  15.782 -1.2649  0.9029  2.2405
 8051TIP3   OH245643   2.104   3.704  16.206  0.3211 -0.5950  0.3034
 8051TIP3    H145644   2.058   3.659  16.277  0.5685 -0.5706  0.4784
 8051TIP3    H245645   2.154   3.634  16.163  1.9234 -0.2460  1.5219
 8052TIP3   OH245646   4.930   6.162  15.211  0.5701  0.4398 -0.2647
 8052TIP3    H145647   4.893   6.200  15.291 -1.0195 -1.9120  0.2367
 8052TIP3    H245648   4.947   6.070  15.233  0.7400 -0.1100 -2.4170
 8053TIP3   OH245649   2.268   2.414  13.499  0.2566 -0.5206 -0.2854
 8053TIP3    H145650   2.354   2.447  13.526 -0.4700  1.1365  0.1268
 8053TIP3    H245651   2.270   2.418  13.403 -0.7211  3.5826 -0.3397
 8054TIP3   OH245652   5.683   6.580  15.813  0.1161 -0.3511  0.2477
 8054TIP3    H145653   5.600   6.606  15.852  0.3940  0.2001  0.4732
 8054TIP3    H245654   5.750   6.610  15.874  0.4514 -1.5608  0.5001
 8055TIP3   OH245655   2.738   2.891  15.238 -0.2032  0.4029 -0.4163
 8055TIP3    H145656   2.754   2.797  15.232 -1.5418  0.0915  0.5583
 8055TIP3    H245657   2.724   2.907  15.331  0.1917  1.6135 -0.5441
 8056TIP3   OH245658   5.240   6.411  16.326  0.0638 -0.0983 -0.0725
 8056TIP3    H145659   5.177   6.431  16.396  0.6606 -0.5298  0.6102
 8056TIP3    H245660   5.200   6.338  16.278  0.3556 -0.8651  0.8145
 8057TIP3   OH245661   0.987   4.326   4.314  0.1843  0.4362  0.4280
 8057TIP3    H145662   0.947   4.412   4.329  0.0917  1.0864 -2.8914
 8057TIP3    H245663   0.913   4.265   4.317 -0.0655  0.7414  0.6543
 8058TIP3   OH245664   2.836   1.942   1.608 -0.2448 -0.2026  0.3416
 8058TIP3    H145665   2.871   1.950   1.519 -0.1448 -0.7999  0.3228
 8058TIP3    H245666   2.787   1.860   1.608  2.8572 -2.2752  1.8073
 8059TIP3   OH245667   3.010   0.116   2.728 -0.1476 -0.1357  0.3863
 8059TIP3    H145668   3.057   0.124   2.811  0.9423 -0.5730 -0.1638
 8059TIP3    H245669   3.062   0.053   2.678 -0.4350  0.6134 -0.8749
 8060TIP3   OH245670   5.696   0.948   5.731 -0.4311  0.0194 -0.2414
 8060TIP3    H145671   5.705   0.856   5.756  0.5814 -0.1495 -1.1588
 8060TIP3    H245672   5.738   0.996   5.802  1.2011 -0.3823 -0.8929
 8061TIP3   OH245673   0.479   2.455   1.370  0.1161 -0.4612  0.0391
 8061TIP3    H145674   0.423   2.378   1.372  0.1041 -0.4429  1.0034
 8061TIP3    H245675   0.466   2.492   1.282  1.0763 -2.2188 -0.8959
 8062TIP3   OH245676   4.047   0.329  14.135 -0.5825  0.0193  0.2340
 8062TIP3    H145677   3.981   0.351  14.201 -0.6403  1.6913 -0.3204
 8062TIP3    H245678   4.003   0.345  14.051  0.2559  0.3381 -0.1550
 8063TIP3   OH245679   2.251   5.752   2.062  0.0800  0.0601  0.3348
 8063TIP3    H145680   2.254   5.657   2.072  0.1539 -0.1375 -1.2627
 8063TIP3    H245681   2.201   5.766   1.980 -2.6041  1.5226  2.0580
 8064TIP3   OH245682   0.193   1.862   3.258  0.4244  0.0298  0.8133
 8064TIP3    H145683   0.165   1.786   3.310 -1.1366 -0.8123 -1.1200
 8064TIP3    H245684   0.267   1.830   3.206  1.3459  0.5799  1.7585
 8065TIP3   OH245685   0.145   3.534   6.727  0.4185  0.3528  0.0897
 8065TIP3    H145686   0.189   3.563   6.647 -1.8565  0.7679 -1.1064
 8065TIP3    H245687   0.158   3.604   6.790  1.3845  0.4874 -0.2551
 8066TIP3   OH245688   1.536   4.851   0.068 -0.3289 -0.4610  0.3729
 8066TIP3    H145689   1.527   4.886   0.156  0.5040 -2.6667  1.4187
 8066TIP3    H245690   1.507   4.760   0.075 -0.2861 -0.6845 -1.6485
 8067TIP3   OH245691   3.165   3.392   0.414  0.4526 -0.4971  0.1167
 8067TIP3    H145692   3.087   3.418   0.365 -0.1972 -3.4469 -0.5867
 8067TIP3    H245693   3.132   3.366   0.500  0.4175 -2.6954 -0.4992
 8068TIP3   OH245694   2.078   1.246  11.064  0.0593 -0.1189 -0.7154
 8068TIP3    H145695   2.034   1.307  11.004 -0.2343 -0.9733 -1.4011
 8068TIP3    H245696   2.170   1.251  11.040 -0.0544 -0.4426 -1.2421
 8069TIP3   OH245697   5.099   2.605  13.917  0.3542 -0.5893 -0.3758
 8069TIP3    H145698   5.126   2.622  14.007 -3.0695  1.6086  0.4375
 8069TIP3    H245699   5.125   2.684  13.869  1.3980 -1.3835 -1.1343
 8070TIP3   OH245700   2.506   1.807   1.626  0.0698 -0.3655 -0.0512
 8070TIP3    H145701   2.582   1.760   1.593 -0.3798 -2.6187  1.8372
 8070TIP3    H245702   2.501   1.885   1.572  2.8844 -0.8147 -1.1437
 8071TIP3   OH245703   0.366   1.893  17.000  0.2418  0.1575 -0.3026
 8071TIP3    H145704   0.441   1.947  16.975  1.3989 -1.1694  0.1242
 8071TIP3    H245705   0.290   1.936  16.960  1.2356  1.4960 -0.8230
 8072TIP3   OH245706   5.341   3.227   1.844  0.1323  0.1910  0.4983
 8072TIP3    H145707   5.370   3.300   1.789 -2.9101  1.1415 -0.0334
 8072TIP3    H245708   5.346   3.261   1.933 -0.5361  0.8190  0.3096
 8073TIP3   OH245709   1.689   4.833  13.547  0.1605  0.4610  0.1710
 8073TIP3    H145710   1.731   4.748  13.563  0.1969  0.4100 -0.1808
 8073TIP3    H245711   1.655   4.860  13.632  0.3747  0.2132  0.3354
 8074TIP3   OH245712   4.415   5.222   0.396  0.2225  0.7436 -0.2752
 8074TIP3    H145713   4.494   5.175   0.421  0.3522  0.8269 -0.5202
 8074TIP3    H245714   4.367   5.233   0.478 -0.0068 -0.1650 -0.2768
 8075TIP3   OH245715   1.251   3.712   0.475 -0.6476  0.1725  0.2838
 8075TIP3    H145716   1.216   3.801   0.485 -1.0292  0.1122 -0.5082
 8075TIP3    H245717   1.202   3.660   0.539  0.5932  0.7870  1.8119
 8076TIP3   OH245718   0.598   6.329   2.641 -0.6262 -0.0525  0.1921
 8076TIP3    H145719   0.572   6.357   2.554 -0.2839 -0.7614 -0.1498
 8076TIP3    H245720   0.575   6.402   2.698 -0.3770  0.6368 -0.5668
 8077TIP3   OH245721   1.227   6.121  11.896 -0.0067 -0.2375  0.0201
 8077TIP3    H145722   1.259   6.146  11.983 -2.1259  1.8515  0.3159
 8077TIP3    H245723   1.209   6.027  11.903  1.2261 -0.4172  1.3403
 8078TIP3   OH245724   5.434   3.567  12.016  0.3471  0.1034 -0.0330
 8078TIP3    H145725   5.385   3.580  12.098  0.1382  1.4532 -0.3488
 8078TIP3    H245726   5.518   3.532  12.044 -0.7796 -2.4172  0.5192
 8079TIP3   OH245727   5.315   4.153  12.524  0.2368  0.3090  0.1750
 8079TIP3    H145728   5.287   4.137  12.614  0.0595  0.9581  0.2416
 8079TIP3    H245729   5.266   4.090  12.472 -1.5156  1.5361  0.2627
 8080TIP3   OH245730   4.848   2.491   5.710 -0.0907  0.4474  0.0732
 8080TIP3    H145731   4.935   2.478   5.673  0.4310 -0.3147  1.4888
 8080TIP3    H245732   4.791   2.434   5.659  0.4188  0.2161 -0.2381
 8081TIP3   OH245733   3.700   5.740   0.748 -0.6127 -0.4363 -0.1310
 8081TIP3    H145734   3.660   5.728   0.834 -0.0302 -1.1111  0.0572
 8081TIP3    H245735   3.748   5.658   0.732  0.3826  0.2029 -0.5143
 8082TIP3   OH245736   5.666   3.448  12.206  0.3588  0.5296 -0.4389
 8082TIP3    H145737   5.755   3.455  12.242 -0.0533 -2.8277  1.6119
 8082TIP3    H245738   5.609   3.459  12.282 -0.9541  1.1098 -1.4780
 8083TIP3   OH245739   4.590   6.268   5.768 -0.0224  0.3218  0.1590
 8083TIP3    H145740   4.579   6.298   5.677  1.0610 -0.6534 -0.3169
 8083TIP3    H245741   4.609   6.175   5.760  0.5183  0.3157  1.3610
 8084TIP3   OH245742   3.043   4.354  16.471  0.3240 -0.2764 -0.1443
 8084TIP3    H145743   3.043   4.441  16.512  0.5425  0.9579 -2.6057
 8084TIP3    H245744   3.132   4.321  16.483  0.3899  0.0649  0.3376
 8085TIP3   OH245745   1.799   4.679  14.234 -0.3914 -0.1883 -0.1641
 8085TIP3    H145746   1.871   4.675  14.298 -0.9469  0.6898  0.5461
 8085TIP3    H245747   1.755   4.594  14.242  1.2847 -1.2377 -1.5082
 8086TIP3   OH245748   3.542   5.261   0.148  0.7687  0.1856  0.5282
 8086TIP3    H145749   3.625   5.227   0.182 -0.4157 -1.2418  2.1556
 8086TIP3    H245750   3.476   5.198   0.178 -0.6185 -0.4988 -3.4131
 8087TIP3   OH245751   2.135   6.199  14.105 -0.3439 -0.0205  0.6442
 8087TIP3    H145752   2.218   6.151  14.104  1.2195  2.5206 -0.8345
 8087TIP3    H245753   2.074   6.142  14.058  1.7486 -0.1832 -2.1558
 8088TIP3   OH245754   4.890   4.612   3.057 -0.0612  0.0128 -0.5305
 8088TIP3    H145755   4.923   4.699   3.078  0.7769 -0.4340  0.0659
 8088TIP3    H245756   4.958   4.574   3.002 -0.9667  0.1508 -1.7889
 8089TIP3   OH245757   4.528   1.517   5.742 -0.5842 -0.4842 -0.5456
 8089TIP3    H145758   4.558   1.430   5.716  1.2247  0.1717 -0.8251
 8089TIP3    H245759   4.474   1.547   5.670  1.7175 -0.0007 -2.2058
 8090TIP3   OH245760   2.214   6.765  14.017  0.6068  0.4831 -0.1602
 8090TIP3    H145761   2.302   6.730  14.030  1.2548  2.3369  0.8921
 8090TIP3    H245762   2.175   6.764  14.104 -0.6749 -0.8466 -0.7024
 8091TIP3   OH245763   0.852   5.431  13.882  0.0734  0.1371  0.2586
 8091TIP3    H145764   0.793   5.454  13.954  0.4841 -1.4372  1.1322
 8091TIP3    H245765   0.895   5.351  13.910  0.4369 -0.3925 -1.6370
 8092TIP3   OH245766   3.160   4.333   3.043 -0.2629  0.2612 -0.1100
 8092TIP3    H145767   3.182   4.240   3.038  0.9918  0.5507 -0.3370
 8092TIP3    H245768   3.243   4.378   3.028 -0.5361  1.4069  1.5130
 8093TIP3   OH245769   5.803   5.536   0.054 -0.0606 -0.3833 -0.5042
 8093TIP3    H145770   5.762   5.451   0.068  0.0611 -0.8533 -2.6564
 8093TIP3    H245771   5.894   5.523   0.082 -0.8210  0.1383  2.5348
 8094TIP3   OH245772   1.480   0.271  14.182  0.0009 -0.2432 -0.3075
 8094TIP3    H145773   1.509   0.195  14.233 -0.7051 -0.7122 -0.5726
 8094TIP3    H245774   1.476   0.342  14.246  0.9412 -0.3578 -0.1119
 8095TIP3   OH245775   1.963   5.667  12.636  0.2703 -0.2144 -0.0076
 8095TIP3    H145776   2.035   5.728  12.652  0.3132 -0.2241 -0.1694
 8095TIP3    H245777   1.972   5.601  12.706  1.2495 -0.9899 -0.8306
 8096TIP3   OH245778   4.123   1.795  13.471  0.2106 -0.3087  0.6537
 8096TIP3    H145779   4.181   1.729  13.509  0.7899  0.1385  0.5659
 8096TIP3    H245780   4.140   1.790  13.377  2.7925  2.2303  0.8586
 8097TIP3   OH245781   6.765   3.959   5.954 -0.1853 -0.0664  0.8048
 8097TIP3    H145782   6.806   3.987   5.872 -0.9278 -0.4315  0.2924
 8097TIP3    H245783   6.755   4.040   6.004  0.5852  0.1115  0.6798
 8098TIP3   OH245784   1.716   1.167   2.566  0.3470 -0.0782 -0.5707
 8098TIP3    H145785   1.678   1.136   2.648  0.0276  1.1006 -0.2424
 8098TIP3    H245786   1.769   1.094   2.535  0.0998 -0.7183  0.4456
 8099TIP3   OH245787   3.197   1.992  13.178 -0.1336 -0.2215  0.0571
 8099TIP3    H145788   3.108   2.018  13.202 -0.8693 -2.7544  0.3831
 8099TIP3    H245789   3.185   1.920  13.115  1.7227  0.5811 -1.3041
 8100TIP3   OH245790   6.741   2.975  11.791  0.2335 -0.3971 -0.3556
 8100TIP3    H145791   6.743   3.017  11.705 -1.6927  1.2560  0.3307
 8100TIP3    H245792   6.688   3.033  11.845  0.5773 -1.8850  1.7124
 8101TIP3   OH245793   5.617   5.796   3.347 -0.1355 -0.6949  0.0956
 8101TIP3    H145794   5.588   5.886   3.331 -0.1153 -0.6900  0.0874
 8101TIP3    H245795   5.636   5.793   3.441  1.3436 -0.2636 -0.1628
 8102TIP3   OH245796   3.434   1.680  11.627  0.2399  0.1352 -0.8970
 8102TIP3    H145797   3.422   1.700  11.534 -1.7179  0.0070 -0.7045
 8102TIP3    H245798   3.373   1.608  11.644  1.7564 -0.9669  0.1311
 8103TIP3   OH245799   6.405   3.370  14.153 -0.3811  0.3727  0.3633
 8103TIP3    H145800   6.426   3.461  14.173 -2.5787  0.7033  1.3466
 8103TIP3    H245801   6.376   3.372  14.062 -1.0661  0.7846  0.5840
 8104TIP3   OH245802   2.212   3.789  11.569 -0.2831 -0.7535 -0.5050
 8104TIP3    H145803   2.250   3.876  11.576 -1.3501 -0.2215 -1.0077
 8104TIP3    H245804   2.205   3.758  11.659  2.6018 -1.4809 -0.4566
 8105TIP3   OH245805   2.372   0.560   1.018 -0.1321  0.1039 -0.2664
 8105TIP3    H145806   2.321   0.568   1.099 -1.3871 -0.1384 -1.0075
 8105TIP3    H245807   2.325   0.614   0.955 -0.3682 -1.3629 -1.3928
 8106TIP3   OH245808   6.242   3.013  11.235  0.2364 -0.4345 -0.6423
 8106TIP3    H145809   6.305   2.943  11.251 -0.2409 -0.8650 -0.5840
 8106TIP3    H245810   6.167   2.969  11.195  0.2102  0.1632 -1.2798
 8107TIP3   OH245811   3.513   3.370   6.144 -0.3116  0.5105  0.0918
 8107TIP3    H145812   3.490   3.316   6.068  2.9137 -0.3049 -0.4784
 8107TIP3    H245813   3.536   3.306   6.212 -0.5819  1.2150  0.8558
 8108TIP3   OH245814   2.405   4.703  14.709 -0.3516  0.0258  0.4080
 8108TIP3    H145815   2.419   4.624  14.657 -0.7960  0.1267  0.1218
 8108TIP3    H245816   2.475   4.763  14.681  0.3304 -0.4617  1.0420
 8109TIP3   OH245817   2.935   5.607  13.159 -0.7913  0.0760  0.1167
 8109TIP3    H145818   3.016   5.567  13.126  0.5143  1.4447  1.5110
 8109TIP3    H245819   2.913   5.555  13.237 -0.7930  0.2106  0.2055
 8110TIP3   OH245820   6.324   5.952  12.302  0.4528 -0.2072  0.8583
 8110TIP3    H145821   6.413   5.980  12.285  0.6058 -1.2574 -0.2258
 8110TIP3    H245822   6.269   6.023  12.267  0.8490 -0.3491 -0.0896
 8111TIP3   OH245823   2.531   0.418   3.912  0.1528 -0.4313  1.0785
 8111TIP3    H145824   2.445   0.395   3.878 -1.0327  1.4890  2.5923
 8111TIP3    H245825   2.548   0.354   3.981  0.9179 -2.0587 -0.5356
 8112TIP3   OH245826   6.346   4.058  12.759 -0.3215 -0.2212  0.8177
 8112TIP3    H145827   6.265   4.072  12.710  1.2779 -1.3805 -2.3861
 8112TIP3    H245828   6.360   4.141  12.805 -1.9464  0.9645 -0.6996
 8113TIP3   OH245829   6.135   3.408   2.594  0.3004  0.2206 -0.5045
 8113TIP3    H145830   6.195   3.421   2.520  0.6085 -0.0468 -0.3032
 8113TIP3    H245831   6.112   3.497   2.621  0.4637  0.3243 -0.6996
 8114TIP3   OH245832   6.333   3.340  13.889  0.6352 -0.1805  0.2571
 8114TIP3    H145833   6.246   3.349  13.850  0.7300 -0.7937 -0.1131
 8114TIP3    H245834   6.341   3.246  13.907  1.8654 -0.3780 -1.2260
 8115TIP3   OH245835   5.356   0.246  11.123 -0.7650  0.1465 -0.5850
 8115TIP3    H145836   5.335   0.157  11.152 -2.8131  0.5161 -0.7929
 8115TIP3    H245837   5.306   0.303  11.182 -0.3244  1.1274 -1.1323
 8116TIP3   OH245838   6.531   2.079   3.494  0.0904  0.1542 -0.4724
 8116TIP3    H145839   6.446   2.122   3.486 -0.2656 -0.5342 -0.4359
 8116TIP3    H245840   6.550   2.045   3.406  1.6858  2.7608 -1.2415
 8117TIP3   OH245841   5.894   2.183  12.306 -0.3365 -0.1971 -0.1616
 8117TIP3    H145842   5.900   2.279  12.307 -1.7096 -0.0923 -0.1555
 8117TIP3    H245843   5.803   2.165  12.283  0.1389 -1.5251 -1.1206
 8118TIP3   OH245844   2.043   4.005   5.770  0.2492  0.1530 -0.2280
 8118TIP3    H145845   2.105   3.967   5.832 -0.2389 -0.4616 -0.0991
 8118TIP3    H245846   1.983   4.057   5.824  0.9510  1.1835 -0.4113
 8119TIP3   OH245847   3.964   5.625   1.292  0.3958  0.4197  0.3736
 8119TIP3    H145848   3.927   5.661   1.211  1.0339  0.2294 -0.0131
 8119TIP3    H245849   4.040   5.575   1.263  0.7559  0.5240  1.1169
 8120TIP3   OH245850   1.570   0.617   1.179 -0.6869  0.3630  0.5566
 8120TIP3    H145851   1.636   0.662   1.126 -0.0643 -0.6783  0.4028
 8120TIP3    H245852   1.520   0.565   1.116 -0.7705  0.1027  0.8358
 8121TIP3   OH245853   2.788   1.787  16.702 -0.0442 -0.2683 -0.7638
 8121TIP3    H145854   2.817   1.741  16.624  1.2031 -0.1399 -0.4026
 8121TIP3    H245855   2.805   1.879  16.683  1.4507 -0.3437  0.1238
 8122TIP3   OH245856   2.478   5.085   0.462  0.4619 -0.6700  0.2484
 8122TIP3    H145857   2.442   5.169   0.433 -3.3420 -0.8920  3.4503
 8122TIP3    H245858   2.500   5.039   0.381 -2.7477  1.2789 -1.9753
 8123TIP3   OH245859   6.099   0.922   5.421  0.3196  0.3402 -0.3460
 8123TIP3    H145860   6.121   0.839   5.378 -0.7760 -1.1565  1.7576
 8123TIP3    H245861   6.008   0.938   5.396 -1.0651 -1.6586  2.7530
 8124TIP3   OH245862   6.487   1.104  16.449 -0.6970  0.8397  0.3202
 8124TIP3    H145863   6.505   1.190  16.410 -1.0924  1.5801  1.7125
 8124TIP3    H245864   6.525   1.109  16.537 -0.0382 -0.7094  0.1463
 8125TIP3   OH245865   3.523   5.912  13.041  0.1971  0.7113  0.0263
 8125TIP3    H145866   3.529   5.976  12.970  1.0325 -0.0764 -0.6220
 8125TIP3    H245867   3.611   5.906  13.076  0.1107 -0.0555  0.1165
 8126TIP3   OH245868   4.865   4.550  15.033  0.0293  0.3667  0.3514
 8126TIP3    H145869   4.888   4.528  15.123 -0.5452 -1.9088  0.0127
 8126TIP3    H245870   4.947   4.541  14.984  0.4711  2.1683  0.6782
 8127TIP3   OH245871   5.785   2.261  13.698  0.2498 -0.3964  0.0520
 8127TIP3    H145872   5.817   2.291  13.613 -0.1050 -0.1831 -0.0100
 8127TIP3    H245873   5.758   2.170  13.683 -0.3457 -0.1859 -0.2135
 8128TIP3   OH245874   3.427   2.417  17.018  0.1866 -0.4451 -0.3175
 8128TIP3    H145875   3.479   2.349  16.977  2.1190  0.7752 -0.0552
 8128TIP3    H245876   3.452   2.497  16.972 -0.9822  0.2789  0.2695
 8129TIP3   OH245877   0.595   5.297  11.346  0.3076 -0.2873 -0.1962
 8129TIP3    H145878   0.508   5.268  11.318  0.4692 -0.0915 -0.9197
 8129TIP3    H245879   0.637   5.329  11.266  1.1452 -0.6194  0.0914
 8130TIP3   OH245880   1.286   3.927  14.601 -0.3223 -0.0377 -0.0658
 8130TIP3    H145881   1.364   3.979  14.588 -0.1024 -0.0841  0.9741
 8130TIP3    H245882   1.309   3.840  14.567  0.0665 -0.0430  0.2062
 8131TIP3   OH245883   0.858   6.813   4.812  0.3554 -0.4046  0.1434
 8131TIP3    H145884   0.878   6.727   4.851  0.7027 -0.6819 -0.6378
 8131TIP3    H245885   0.913   6.874   4.860  2.3857 -1.0231 -1.2909
 8132TIP3   OH245886   5.866   1.461   5.061  0.0550 -0.0136 -0.5681
 8132TIP3    H145887   5.923   1.410   5.003  0.0811 -0.4294 -0.1870
 8132TIP3    H245888   5.777   1.432   5.039  0.1303 -0.9726  0.3410
 8133TIP3   OH245889   1.902   5.463   1.981  0.0131  0.4700  0.3107
 8133TIP3    H145890   1.983   5.459   2.032 -0.0096  0.0558  0.3168
 8133TIP3    H245891   1.834   5.479   2.047  0.3255  3.0957  0.0764
 8134TIP3   OH245892   3.585   2.999   1.554 -0.2527  0.3497  0.5770
 8134TIP3    H145893   3.586   3.081   1.505 -1.0632 -0.5105 -0.9583
 8134TIP3    H245894   3.493   2.988   1.580 -0.1207  0.0028  0.9100
 8135TIP3   OH245895   4.653   3.622  15.959 -0.2054  0.2624  0.4181
 8135TIP3    H145896   4.675   3.674  16.036  2.0898  0.6981 -0.4343
 8135TIP3    H245897   4.649   3.532  15.992 -2.3635  0.7086  1.5577
 8136TIP3   OH245898   6.036   0.234  14.920  0.4571  0.2056  0.2051
 8136TIP3    H145899   6.051   0.230  15.014 -1.5607 -1.5468  0.5414
 8136TIP3    H245900   6.060   0.147  14.888 -0.2678  0.2970 -0.6335
 8137TIP3   OH245901   4.674   0.854   5.671  0.0756 -0.3065  0.1461
 8137TIP3    H145902   4.631   0.768   5.673 -0.5504 -0.0424 -0.9134
 8137TIP3    H245903   4.608   0.915   5.705  0.1486 -0.1083 -0.0648
 8138TIP3   OH245904   1.924   6.539   4.741 -0.5617 -0.0415  0.2060
 8138TIP3    H145905   1.917   6.476   4.669 -0.3494 -1.1511  1.1412
 8138TIP3    H245906   1.951   6.621   4.698  0.2552 -0.8560 -0.8832
 8139TIP3   OH245907   3.339   3.818  16.365 -0.2954 -0.0509  0.0267
 8139TIP3    H145908   3.328   3.723  16.366  0.8823 -0.2007  0.0199
 8139TIP3    H245909   3.251   3.853  16.352 -0.6514 -1.1539 -0.5803
 8140TIP3   OH245910   3.718   4.623   2.019  0.5143 -0.4278 -0.4806
 8140TIP3    H145911   3.763   4.701   1.988 -0.2602  0.2927  0.1435
 8140TIP3    H245912   3.628   4.653   2.036  0.4303 -1.2422  0.5969
 8141TIP3   OH245913   5.529   6.755   3.559  0.5867 -0.2645  0.0600
 8141TIP3    H145914   5.491   6.672   3.529 -0.2524  0.0710  0.1570
 8141TIP3    H245915   5.567   6.794   3.480  1.4299 -0.9550  0.1034
 8142TIP3   OH245916   1.102   6.638   1.406 -0.3258 -0.8639  0.3142
 8142TIP3    H145917   1.023   6.593   1.377 -0.7653  1.2310 -2.1040
 8142TIP3    H245918   1.093   6.727   1.372  2.6182 -0.2682  0.7988
 8143TIP3   OH245919   3.348   0.650   4.918  0.0618  0.4512 -0.3039
 8143TIP3    H145920   3.344   0.591   4.843  1.0184 -0.0569  0.0313
 8143TIP3    H245921   3.357   0.593   4.994  0.7118  1.0084  0.0538
 8144TIP3   OH245922   6.729   0.265   2.614 -0.0826 -0.1322 -0.3904
 8144TIP3    H145923   6.751   0.358   2.618  0.9345 -0.3579 -0.3615
 8144TIP3    H245924   6.813   0.222   2.597 -0.5870 -1.0213 -0.6722
 8145TIP3   OH245925   5.054   5.846   3.629  0.1199 -0.0180  0.3933
 8145TIP3    H145926   5.099   5.926   3.602 -0.8525  0.6877  0.8344
 8145TIP3    H245927   5.071   5.784   3.557 -1.2387  1.3768 -1.2241
 8146TIP3   OH245928   3.195   3.922  15.924  0.6264 -0.2972 -0.5074
 8146TIP3    H145929   3.231   4.011  15.925 -0.2762  0.0901 -1.1636
 8146TIP3    H245930   3.243   3.878  15.854  0.9357 -0.2695 -0.3139
 8147TIP3   OH245931   5.731   2.877  13.643  0.4311  0.0526  0.4415
 8147TIP3    H145932   5.825   2.859  13.644  0.9266  2.3528  1.3301
 8147TIP3    H245933   5.722   2.960  13.597 -0.8877  1.0895  2.4223
 8148TIP3   OH245934   3.535   6.447   1.427  0.2876 -0.1711  0.2353
 8148TIP3    H145935   3.452   6.431   1.383  0.3833  0.8508 -0.3565
 8148TIP3    H245936   3.601   6.412   1.367  0.3169 -0.5506  0.4849
 8149TIP3   OH245937   3.295   6.288  16.794  0.3154  0.0025 -0.1704
 8149TIP3    H145938   3.253   6.368  16.827 -0.0524  0.0217 -0.6850
 8149TIP3    H245939   3.298   6.230  16.870 -0.1954  0.1855 -0.0060
 8150TIP3   OH245940   2.320   2.343   3.141 -0.3808  0.0556  0.0788
 8150TIP3    H145941   2.225   2.337   3.146 -0.5881  0.6342 -2.1459
 8150TIP3    H245942   2.351   2.253   3.146 -1.1207 -0.2219 -0.2951
 8151TIP3   OH245943   2.806   6.311   2.398 -0.0510 -0.3032 -0.1553
 8151TIP3    H145944   2.845   6.323   2.311  1.3706 -0.7906  0.3874
 8151TIP3    H245945   2.814   6.217   2.415 -1.8107 -0.4908 -0.1498
 8152TIP3   OH245946   2.512   1.885  13.467  0.5790  0.6169  0.0467
 8152TIP3    H145947   2.466   1.965  13.492 -0.7297  0.1104 -0.6321
 8152TIP3    H245948   2.507   1.885  13.371  0.3982 -0.3705  0.0529
 8153TIP3   OH245949   5.002   4.560  12.513 -0.0228  0.0336  0.1412
 8153TIP3    H145950   5.074   4.517  12.558 -0.0917  0.2667  0.4827
 8153TIP3    H245951   5.043   4.630  12.462  0.0803 -0.3776 -0.3525
 8154TIP3   OH245952   3.779   4.691   2.671 -0.0793 -0.2563 -0.1899
 8154TIP3    H145953   3.852   4.629   2.676  0.9583  0.7870 -1.5627
 8154TIP3    H245954   3.819   4.773   2.641 -1.7549  0.4518 -0.6198
 8155TIP3   OH245955   4.669   2.130   5.959  0.2914 -0.0194  0.0273
 8155TIP3    H145956   4.622   2.105   5.879 -1.1341  0.2320  0.7596
 8155TIP3    H245957   4.745   2.072   5.961 -0.3840 -0.9733 -0.8024
 8156TIP3   OH245958   0.248   6.717   1.324 -0.7343 -0.2079  0.7658
 8156TIP3    H145959   0.161   6.757   1.332 -0.7477  0.0652 -0.5584
 8156TIP3    H245960   0.295   6.775   1.264  0.3738 -0.3530  1.4688
 8157TIP3   OH245961   1.958   2.671   5.116 -0.1181 -0.0143  0.2732
 8157TIP3    H145962   1.907   2.752   5.112 -0.1209  0.0592  1.4079
 8157TIP3    H245963   1.892   2.603   5.132 -0.1881 -0.3489 -1.2656
 8158TIP3   OH245964   6.227   6.430  16.815 -0.0203 -0.5962  0.2263
 8158TIP3    H145965   6.225   6.514  16.860  0.1316 -0.5227  0.0968
 8158TIP3    H245966   6.149   6.431  16.760 -0.2785 -0.7432  0.5878
 8159TIP3   OH245967   0.489   5.647  10.899  0.1969  0.0635 -0.0432
 8159TIP3    H145968   0.534   5.622  10.980 -0.1338  0.7609  0.3684
 8159TIP3    H245969   0.410   5.692  10.929  0.3172  0.7648 -0.7450
 8160TIP3   OH245970   6.649   0.983  12.728 -0.2714  0.4495  0.0400
 8160TIP3    H145971   6.709   1.025  12.790 -1.5654 -0.8671  2.3613
 8160TIP3    H245972   6.702   0.969  12.650  1.1951  3.0525  0.4386
 8161TIP3   OH245973   0.867   2.241   2.946  0.1740  0.1034  1.0201
 8161TIP3    H145974   0.944   2.290   2.918  0.3520 -1.8820 -2.5170
 8161TIP3    H245975   0.903   2.161   2.986  0.0227 -0.8504 -0.6840
 8162TIP3   OH245976   4.347   1.372  11.308 -0.5248  0.1245 -0.4429
 8162TIP3    H145977   4.301   1.318  11.373  0.7602 -0.3373  0.1158
 8162TIP3    H245978   4.337   1.324  11.226  1.0936 -1.3306  0.1543
 8163TIP3   OH245979   5.016   2.018   0.576 -0.2630  0.4194 -0.2326
 8163TIP3    H145980   5.073   2.066   0.635 -0.2522  1.6152 -1.1699
 8163TIP3    H245981   4.983   2.085   0.515  0.1354 -0.8262 -1.8965
 8164TIP3   OH245982   3.227   4.518   5.042 -0.0003  0.2377  0.5586
 8164TIP3    H145983   3.221   4.589   5.107 -2.1133  0.8290 -0.2056
 8164TIP3    H245984   3.184   4.553   4.964  1.7111 -0.7796 -0.9178
 8165TIP3   OH245985   1.018   6.449  16.068  0.0735  0.6435  0.1026
 8165TIP3    H145986   1.039   6.517  16.004 -0.7296 -0.0840 -0.9881
 8165TIP3    H245987   0.922   6.441  16.063  0.0494  0.2142  1.0336
 8166TIP3   OH245988   3.042   0.620  12.120 -0.0425 -0.0398  0.6659
 8166TIP3    H145989   3.049   0.541  12.067 -0.7457 -0.5374  1.3117
 8166TIP3    H245990   3.005   0.591  12.203  2.3855  0.4716  2.0232
 8167TIP3   OH245991   0.599   1.142  13.357  0.6960 -0.4648 -0.3369
 8167TIP3    H145992   0.678   1.114  13.403  0.5977 -1.0126 -0.4872
 8167TIP3    H245993   0.553   1.060  13.337  0.2066 -0.1687 -0.4565
 8168TIP3   OH245994   3.427   1.321   4.626  0.1477  0.0502 -0.2332
 8168TIP3    H145995   3.407   1.235   4.664 -0.4931 -0.0061 -0.6754
 8168TIP3    H245996   3.457   1.374   4.699 -1.2323 -0.0048  0.4049
 8169TIP3   OH245997   4.426   1.722   6.933  0.4298  0.0379  0.1546
 8169TIP3    H145998   4.376   1.751   7.010 -0.1892  0.1468 -0.2779
 8169TIP3    H245999   4.498   1.670   6.969 -0.5051 -0.8859  0.7495
 8170TIP3   OH246000   1.058   3.448   3.324  0.1542 -0.0722  0.3465
 8170TIP3    H146001   1.142   3.492   3.337 -0.5085  0.7598  2.1398
 8170TIP3    H246002   0.993   3.519   3.328 -0.7097 -0.8169 -0.0750
 8171TIP3   OH246003   1.298   2.628  13.559  0.3712 -0.1661 -0.1039
 8171TIP3    H146004   1.216   2.594  13.525  0.9486 -0.9742 -0.7311
 8171TIP3    H246005   1.275   2.714  13.596 -0.5672  0.0425 -1.1246
 8172TIP3   OH246006   4.206   6.681  12.703 -0.2425  0.5280  0.2558
 8172TIP3    H146007   4.284   6.734  12.686  0.1507  0.2719  1.2212
 8172TIP3    H246008   4.133   6.744  12.698 -0.4224  0.2744 -3.8098
 8173TIP3   OH246009   6.707   2.238   5.491 -0.2638  0.0830  0.4025
 8173TIP3    H146010   6.763   2.294   5.545 -0.8324 -1.6367  2.9658
 8173TIP3    H246011   6.757   2.157   5.481  0.4861  0.8214 -3.1170
 8174TIP3   OH246012   3.074   4.097   2.113 -0.4546  0.5659 -0.2422
 8174TIP3    H146013   3.100   4.009   2.140  0.3403  0.2757 -1.8626
 8174TIP3    H246014   3.155   4.148   2.115 -0.5727  0.8005 -0.9895
 8175TIP3   OH246015   6.702   0.840  14.468 -0.4035 -0.2112 -0.0340
 8175TIP3    H146016   6.736   0.914  14.418  0.7084 -0.7922 -0.1670
 8175TIP3    H246017   6.608   0.841  14.451 -0.6353  1.9500  1.0005
 8176TIP3   OH246018   2.151   0.926  12.353  0.2318  0.8085 -0.7129
 8176TIP3    H146019   2.206   0.955  12.426  1.1245 -0.7733 -0.7105
 8176TIP3    H246020   2.186   0.972  12.277  1.5992 -0.1678 -0.7087
 8177TIP3   OH246021   1.734   2.840  16.772 -0.1315 -0.0415  1.1101
 8177TIP3    H146022   1.799   2.911  16.771  0.0303 -0.1590 -0.7086
 8177TIP3    H246023   1.652   2.883  16.799  0.0312  0.8008  0.3179
 8178TIP3   OH246024   2.503   6.677   1.038 -0.2837  0.4685  0.1692
 8178TIP3    H146025   2.519   6.701   0.947  1.1488 -0.4856  0.1389
 8178TIP3    H246026   2.554   6.597   1.052 -1.4808 -0.1245  1.4672
 8179TIP3   OH246027   6.067   4.307  14.253  0.6669  0.2283 -0.1241
 8179TIP3    H146028   6.116   4.303  14.171 -0.0857  2.5894 -0.7694
 8179TIP3    H246029   6.030   4.395  14.255 -2.0541 -0.8208  1.1920
 8180TIP3   OH246030   4.004   0.329   1.755  0.1546 -0.0659 -0.4918
 8180TIP3    H146031   4.082   0.317   1.700 -0.1849  0.2614 -1.0598
 8180TIP3    H246032   3.933   0.296   1.701 -0.2797  0.9054 -0.5284
 8181TIP3   OH246033   1.788   3.618  12.412 -0.2415  0.1452  0.4269
 8181TIP3    H146034   1.852   3.620  12.341  0.0452  0.5884  0.6945
 8181TIP3    H246035   1.706   3.647  12.371  0.2350  1.8127  0.5745
 8182TIP3   OH246036   1.141   4.680   4.724  0.4227 -0.3833  0.2264
 8182TIP3    H146037   1.214   4.741   4.713  0.3782 -0.5888 -1.5842
 8182TIP3    H246038   1.183   4.594   4.728  0.3531 -0.4052  0.4876
 8183TIP3   OH246039   6.731   6.108  12.009  0.5801 -0.2945  0.3556
 8183TIP3    H146040   6.691   6.070  12.088 -0.9201  0.9129  0.2419
 8183TIP3    H246041   6.666   6.172  11.980  1.8399  0.4111 -0.9545
 8184TIP3   OH246042   1.802   4.558   5.724  0.0422  0.4023  0.4531
 8184TIP3    H146043   1.770   4.648   5.715 -1.4726 -0.2617 -1.9074
 8184TIP3    H246044   1.897   4.567   5.722 -0.0483  1.9982  1.2075
 8185TIP3   OH246045   6.036   0.283   1.730  0.2273 -0.1094  0.1931
 8185TIP3    H146046   5.966   0.232   1.690 -1.8946  2.5418  0.1781
 8185TIP3    H246047   6.022   0.273   1.824 -0.6538  0.9440  0.1918
 8186TIP3   OH246048   3.415   5.062   0.337 -0.3380  0.9868  0.4763
 8186TIP3    H146049   3.471   5.040   0.412 -0.6938  1.0529  0.7604
 8186TIP3    H246050   3.396   4.978   0.296  0.3491  1.0057  0.1072
 8187TIP3   OH246051   3.314   3.818   4.445  0.7789 -0.2684  0.2931
 8187TIP3    H146052   3.301   3.885   4.512  0.9356  0.1083 -0.0483
 8187TIP3    H246053   3.290   3.736   4.488 -1.6929  0.2560  0.0457
 8188TIP3   OH246054   2.940   1.458  12.735 -0.5054 -0.1483  0.4676
 8188TIP3    H146055   2.924   1.366  12.755 -2.7765  0.5476  2.3516
 8188TIP3    H246056   2.861   1.486  12.688 -0.5394  1.1746  1.2698
 8189TIP3   OH246057   5.779   4.301   5.238  0.2371  0.2323  0.2163
 8189TIP3    H146058   5.824   4.383   5.258 -0.2286  0.2386  1.3083
 8189TIP3    H246059   5.847   4.234   5.243  0.2955  0.3394  1.1072
 8190TIP3   OH246060   3.306   6.643   2.762 -0.2837 -0.7498  0.1969
 8190TIP3    H146061   3.222   6.668   2.802  0.2772 -0.6455  1.3292
 8190TIP3    H246062   3.287   6.559   2.719 -0.9686 -0.7290  0.4386
 8191TIP3   OH246063   5.585   4.538   6.004  0.0738  0.0958  0.2365
 8191TIP3    H146064   5.672   4.570   6.027  1.1942 -1.4015 -1.6235
 8191TIP3    H246065   5.538   4.616   5.973  1.4832  0.6006 -0.7295
 8192TIP3   OH246066   6.230   5.345  13.225 -0.0622 -0.4268  0.5045
 8192TIP3    H146067   6.291   5.331  13.153 -0.4495 -0.5310  0.1968
 8192TIP3    H246068   6.263   5.423  13.270  0.4301 -0.6173  0.4818
 8193TIP3   OH246069   6.101   1.803   4.611  0.0012  0.0728 -1.0827
 8193TIP3    H146070   6.169   1.765   4.667 -0.0145  0.2071 -0.9719
 8193TIP3    H246071   6.043   1.850   4.672 -0.0960  0.0993 -1.1949
 8194TIP3   OH246072   6.819   6.248  16.530  0.3883  0.1334  0.1532
 8194TIP3    H146073   6.731   6.268  16.498  0.2535  0.2356  0.5873
 8194TIP3    H246074   6.810   6.246  16.625  0.1702 -2.9242  0.1683
 8195TIP3   OH246075   3.612   3.453   2.758  0.0592  0.5096 -0.8001
 8195TIP3    H146076   3.688   3.433   2.704  0.0966  0.5189 -0.7504
 8195TIP3    H246077   3.626   3.544   2.787  1.3714 -0.3436  1.4545
 8196TIP3   OH246078   0.533   4.967   6.111  0.2378  0.5799  0.0650
 8196TIP3    H146079   0.448   4.924   6.109  0.8779 -0.8569  1.3730
 8196TIP3    H246080   0.556   4.969   6.204  1.3040  1.6208 -0.1999
 8197TIP3   OH246081   5.589   5.035  15.690  0.1795  0.0619  0.0129
 8197TIP3    H146082   5.542   5.103  15.642  0.3545  1.1081  1.2730
 8197TIP3    H246083   5.523   4.993  15.744  0.2269 -0.2010 -0.1329
 8198TIP3   OH246084   6.343   4.510  11.907 -0.3627 -0.3911  0.3879
 8198TIP3    H146085   6.404   4.446  11.871 -0.9487 -0.7198 -0.0287
 8198TIP3    H246086   6.388   4.594  11.898 -0.4681 -0.4700 -1.0821
 8199TIP3   OH246087   0.201   1.875   4.973  0.3149 -0.0723 -0.5727
 8199TIP3    H146088   0.290   1.864   5.006  0.7659  1.0145 -1.3476
 8199TIP3    H246089   0.145   1.842   5.043  1.3362 -1.5873 -0.4299
 8200TIP3   OH246090   0.637   3.138  16.938  0.3561 -0.0252  0.2748
 8200TIP3    H146091   0.572   3.207  16.952 -0.5649 -0.9892  0.9329
 8200TIP3    H246092   0.687   3.134  17.020 -0.7250 -1.2585  0.9155
 8201TIP3   OH246093   0.648   2.148   1.589  0.1282  0.8470 -0.3578
 8201TIP3    H146094   0.727   2.160   1.641  1.0067 -0.1023 -1.4010
 8201TIP3    H246095   0.581   2.123   1.652  0.3952  2.5724  0.6768
 8202TIP3   OH246096   5.802   3.667   3.490 -0.1499  0.3106 -0.0230
 8202TIP3    H146097   5.885   3.637   3.454 -1.1567 -0.9800 -1.3864
 8202TIP3    H246098   5.781   3.746   3.440 -0.4368 -0.1948 -0.7199
 8203TIP3   OH246099   1.197   4.273   2.857  0.2133 -0.5154  0.4404
 8203TIP3    H146100   1.163   4.185   2.872  0.0360 -1.1351 -2.8063
 8203TIP3    H246101   1.284   4.272   2.897  0.3807 -2.3197  0.1279
 8204TIP3   OH246102   4.073   1.357  15.460  0.1656  0.5610  0.1430
 8204TIP3    H146103   4.140   1.328  15.399  0.1121 -0.8846  0.7295
 8204TIP3    H246104   4.071   1.453  15.451 -0.3395  0.3732 -2.5919
 8205TIP3   OH246105   3.529   5.534  13.462 -0.1582  0.0409  0.4481
 8205TIP3    H146106   3.565   5.447  13.480  2.6209  1.2110  1.1814
 8205TIP3    H246107   3.482   5.558  13.542 -0.0185 -0.3655  0.6552
 8206TIP3   OH246108   0.327   2.277  10.860 -0.2360  0.4146  0.3930
 8206TIP3    H146109   0.358   2.345  10.800 -0.8601 -0.0796 -0.4996
 8206TIP3    H246110   0.376   2.199  10.836 -1.8372 -0.2799 -0.7857
 8207TIP3   OH246111   6.402   1.269  13.253 -0.1235  0.5262  0.1278
 8207TIP3    H146112   6.480   1.217  13.232  0.0146  0.3685  0.9910
 8207TIP3    H246113   6.421   1.357  13.220 -0.6461 -0.0853 -2.0140
 8208TIP3   OH246114   4.897   4.989  15.832  0.0030  0.5665  0.3349
 8208TIP3    H146115   4.814   5.022  15.796 -0.2091  1.3781  1.5165
 8208TIP3    H246116   4.917   4.912  15.779 -0.2648  1.7370 -1.5279
 8209TIP3   OH246117   5.868   6.611   1.932 -0.1709 -0.5720  0.3332
 8209TIP3    H146118   5.954   6.616   1.975 -0.1200  2.4174  0.0771
 8209TIP3    H246119   5.807   6.642   1.998 -0.8391 -0.9809 -0.0868
 8210TIP3   OH246120   1.455   1.476   0.931 -0.5842 -0.2900 -0.5366
 8210TIP3    H146121   1.439   1.391   0.889  0.8907 -0.4392 -0.8352
 8210TIP3    H246122   1.400   1.537   0.882  0.6904 -0.5516 -2.4006
 8211TIP3   OH246123   4.796   3.785   5.954 -0.2747 -0.4200 -0.0975
 8211TIP3    H146124   4.727   3.770   5.889 -1.0991 -0.6609  0.8073
 8211TIP3    H246125   4.750   3.793   6.037  0.7220  0.3847  0.4015
 8212TIP3   OH246126   3.455   2.834  14.012 -0.0125 -0.2480 -0.5447
 8212TIP3    H146127   3.494   2.747  14.005  2.4359  0.5515  1.6629
 8212TIP3    H246128   3.374   2.821  14.061  1.4615 -1.0810  1.7905
 8213TIP3   OH246129   2.985   5.084  13.196  0.1378 -0.3143  0.5901
 8213TIP3    H146130   2.922   5.153  13.173  0.4309 -0.4958 -0.8374
 8213TIP3    H246131   2.994   5.092  13.291 -2.2625 -0.4925  0.9083
 8214TIP3   OH246132   2.776   0.034   2.296  0.2785  0.2545  0.2450
 8214TIP3    H146133   2.783   0.111   2.352  0.6726 -0.1329  0.7408
 8214TIP3    H246134   2.741   0.067   2.213  1.7792  1.1979 -0.0379
 8215TIP3   OH246135   4.761   5.030   5.968 -0.1703 -0.3476 -0.4370
 8215TIP3    H146136   4.784   4.971   6.040  0.2640 -0.2903 -0.5299
 8215TIP3    H246137   4.841   5.077   5.948 -0.7829  1.0989  0.3818
 8216TIP3   OH246138   4.829   2.123  14.110  0.4102  0.4661  0.6228
 8216TIP3    H146139   4.811   2.043  14.159 -0.2366  1.1472  1.5165
 8216TIP3    H246140   4.744   2.166  14.101  0.4710  0.2965 -1.2544
 8217TIP3   OH246141   1.349   1.390  16.102  1.1394  0.3707 -0.8268
 8217TIP3    H146142   1.396   1.360  16.180 -1.1095 -1.3382 -0.0084
 8217TIP3    H246143   1.320   1.479  16.124 -2.1711 -1.1015  1.8328
 8218TIP3   OH246144   6.655   3.833   0.430  0.2553 -0.1816 -0.7609
 8218TIP3    H146145   6.614   3.899   0.487  0.1358 -0.5039 -0.4701
 8218TIP3    H246146   6.586   3.807   0.370  0.1588 -0.3960 -0.5602
 8219TIP3   OH246147   5.408   3.864  14.154  0.0132  0.2568  0.3336
 8219TIP3    H146148   5.427   3.890  14.064 -0.0003  0.2473  0.3277
 8219TIP3    H246149   5.384   3.945  14.198 -3.9349 -0.2061 -0.6257
 8220TIP3   OH246150   4.192   3.312  11.206 -0.5379 -0.1293  0.3550
 8220TIP3    H146151   4.248   3.249  11.251  0.9596  1.0058  0.1452
 8220TIP3    H246152   4.241   3.337  11.128 -1.1304  1.2137  0.3736
 8221TIP3   OH246153   2.523   3.029   1.155  0.4011 -1.0134 -0.4764
 8221TIP3    H146154   2.440   3.075   1.151 -0.1905 -1.2238  4.0804
 8221TIP3    H246155   2.579   3.084   1.210  1.3653 -3.3106  1.0013
 8222TIP3   OH246156   4.131   1.244   2.782 -0.3512  0.3898 -0.3402
 8222TIP3    H146157   4.162   1.175   2.841  0.5780  0.6254 -0.5511
 8222TIP3    H246158   4.102   1.314   2.841 -1.3057 -0.1638 -0.1240
 8223TIP3   OH246159   2.521   0.060   1.850  0.0053 -0.3118 -0.2390
 8223TIP3    H146160   2.594  -0.001   1.860  0.6800  0.0867 -2.2537
 8223TIP3    H246161   2.545   0.113   1.774 -3.0813 -1.2031 -1.9667
 8224TIP3   OH246162   4.107   2.642   4.248  0.4840 -0.0636 -0.0387
 8224TIP3    H146163   4.031   2.632   4.191  0.0465  0.7914  0.3914
 8224TIP3    H246164   4.159   2.563   4.231 -1.5102 -1.7478  1.2079
 8225TIP3   OH246165   3.238   3.764  11.666 -0.2021 -0.2267 -0.2630
 8225TIP3    H146166   3.312   3.823  11.681  0.1991 -0.9858  0.9007
 8225TIP3    H246167   3.161   3.822  11.666 -0.0058  0.1894  2.6061
 8226TIP3   OH246168   2.479   3.591   4.197 -0.0381 -1.0186  0.3004
 8226TIP3    H146169   2.422   3.518   4.218 -0.0270 -1.3116 -0.6367
 8226TIP3    H246170   2.466   3.606   4.103  0.0851  0.0728  0.4364
 8227TIP3   OH246171   2.827   1.177  13.932  0.0890 -0.5576  0.3664
 8227TIP3    H146172   2.879   1.234  13.875 -0.3431 -1.1190 -0.6322
 8227TIP3    H246173   2.765   1.236  13.974  0.6289 -0.0807  0.5028
 8228TIP3   OH246174   0.425   2.811  12.629 -0.3303  0.4456  0.0174
 8228TIP3    H146175   0.467   2.802  12.544  0.5287 -0.5240  0.5040
 8228TIP3    H246176   0.460   2.892  12.665 -0.5464  0.7568 -0.4645
 8229TIP3   OH246177   3.995   5.237   4.068  0.3078 -0.0946  0.2750
 8229TIP3    H146178   4.067   5.193   4.023 -0.5391 -0.5473 -0.6516
 8229TIP3    H246179   4.008   5.330   4.050  0.5754 -0.1877 -0.0098
 8230TIP3   OH246180   1.241   2.736   5.101 -0.3690  0.5050 -0.2386
 8230TIP3    H146181   1.319   2.773   5.142 -0.7011  2.1107 -0.9787
 8230TIP3    H246182   1.223   2.655   5.150  0.8046  0.9601  0.9740
 8231TIP3   OH246183   1.738   2.417  17.113  0.0952  0.0435 -0.4982
 8231TIP3    H146184   1.819   2.411  17.164  0.0333  1.4341 -0.2015
 8231TIP3    H246185   1.677   2.462  17.172 -0.6468 -0.2842 -1.0121
 8232TIP3   OH246186   4.406   4.433  10.594  0.2290  0.3832  0.5277
 8232TIP3    H146187   4.317   4.416  10.625  0.1149 -0.2342 -0.1229
 8232TIP3    H246188   4.395   4.464  10.504  0.6943 -0.0984  0.3005
 8233TIP3   OH246189   3.657   4.363   3.065 -0.6172  0.1146 -0.1241
 8233TIP3    H146190   3.752   4.370   3.072 -0.5944 -0.2269 -0.0861
 8233TIP3    H246191   3.637   4.276   3.099 -0.9362  0.1588 -0.2005
 8234TIP3   OH246192   0.917   4.414  15.813 -0.4360  0.2386  0.5571
 8234TIP3    H146193   0.837   4.375  15.846 -0.0138 -1.1646 -0.0110
 8234TIP3    H246194   0.913   4.401  15.718  0.1523  0.7718  0.4479
 8235TIP3   OH246195   4.058   0.021  14.177  0.2655  0.2788  0.2165
 8235TIP3    H146196   4.091  -0.069  14.179  2.4077  1.0066  2.2449
 8235TIP3    H246197   4.136   0.075  14.177 -0.9622  2.1410  0.9213
 8236TIP3   OH246198   1.717   5.677   0.644  0.3150 -0.1530  0.2849
 8236TIP3    H146199   1.671   5.601   0.679 -0.8931  0.4171 -0.0173
 8236TIP3    H246200   1.649   5.728   0.601  0.9694  1.5123  1.1642
 8237TIP3   OH246201   1.333   2.473   1.216 -0.4780 -0.1801 -0.5213
 8237TIP3    H146202   1.338   2.567   1.196 -1.1071 -0.1874 -0.7599
 8237TIP3    H246203   1.244   2.448   1.189 -0.3644 -0.8141 -0.3259
 8238TIP3   OH246204   6.295   2.170  14.209  0.0573  0.5847 -0.2996
 8238TIP3    H146205   6.346   2.093  14.231 -1.8094 -0.8559 -0.7460
 8238TIP3    H246206   6.324   2.193  14.121 -1.5999 -1.6923 -1.5609
 8239TIP3   OH246207   1.496   3.120   5.175 -0.3256 -0.6491 -0.3603
 8239TIP3    H146208   1.481   3.026   5.185  1.2972 -0.8600  0.3348
 8239TIP3    H246209   1.528   3.130   5.086 -1.5283 -0.5818 -0.8107
 8240TIP3   OH246210   5.059   3.816   5.896  0.0840 -0.3042 -0.3400
 8240TIP3    H146211   4.969   3.788   5.910  0.1118  0.3599  1.2586
 8240TIP3    H246212   5.104   3.798   5.978  1.9762 -2.5744 -1.7187
 8241TIP3   OH246213   0.327   5.384  14.748  0.9357 -0.2119 -0.0761
 8241TIP3    H146214   0.380   5.307  14.729  0.0503 -0.9928  0.5924
 8241TIP3    H246215   0.351   5.409  14.837 -0.4618 -1.1309  0.5909
 8242TIP3   OH246216   5.920   3.291   0.728 -0.1208  0.6454  0.2518
 8242TIP3    H146217   5.862   3.225   0.691 -1.2088  1.7477 -0.0354
 8242TIP3    H246218   5.987   3.305   0.660  0.3156 -0.3687  0.4457
 8243TIP3   OH246219   5.358   5.131   1.273  0.0358  0.0781  0.0291
 8243TIP3    H146220   5.372   5.142   1.367 -2.5502 -0.4662  0.5727
 8243TIP3    H246221   5.441   5.098   1.240  1.2109  0.8879  2.0072
 8244TIP3   OH246222   0.791   4.766   6.026  0.3488  0.8722 -0.4489
 8244TIP3    H146223   0.793   4.854   5.988 -0.0462  1.3061  0.4862
 8244TIP3    H246224   0.748   4.778   6.111 -1.1561 -0.4773 -0.9580
 8245TIP3   OH246225   1.090   2.906  11.406  0.0373 -0.2730  0.1154
 8245TIP3    H146226   1.176   2.945  11.416 -0.4860  1.3592 -1.2610
 8245TIP3    H246227   1.034   2.956  11.465 -0.2904 -0.1623 -0.2809
 8246TIP3   OH246228   6.286   4.300  12.162 -0.1940 -0.1287  0.2515
 8246TIP3    H146229   6.295   4.238  12.235  1.8316 -0.1702  0.0295
 8246TIP3    H246230   6.312   4.249  12.085  0.0357  0.5860 -0.1450
 8247TIP3   OH246231   3.331   3.405  10.905 -0.5211 -0.2224 -0.2160
 8247TIP3    H146232   3.317   3.323  10.953 -0.2338  0.1880  0.5978
 8247TIP3    H246233   3.349   3.469  10.974  0.5360  0.2537 -0.9089
 8248TIP3   OH246234   5.549   2.784   4.401  0.1448 -0.5546 -0.0278
 8248TIP3    H146235   5.475   2.745   4.446  0.5377 -0.9708  0.2611
 8248TIP3    H246236   5.562   2.868   4.445 -0.0439 -0.5547  0.0311
 8249TIP3   OH246237   6.534   5.283   0.386 -0.2221  0.4802  0.0610
 8249TIP3    H146238   6.523   5.331   0.304  1.1391 -0.4622 -0.7152
 8249TIP3    H246239   6.616   5.317   0.422 -0.3240  0.2098  0.5501
 8250TIP3   OH246240   6.314   5.119   0.180  0.5459  0.3294  0.6121
 8250TIP3    H146241   6.328   5.213   0.174 -0.9101  0.5454  0.1848
 8250TIP3    H246242   6.235   5.110   0.234  0.8713 -0.6613  0.9416
 8251TIP3   OH246243   5.636   4.206   0.294 -0.2667 -0.2497  0.3194
 8251TIP3    H146244   5.655   4.264   0.220 -0.4663 -0.6016 -0.0098
 8251TIP3    H246245   5.709   4.220   0.355  0.0019 -0.1098 -0.0326
 8252TIP3   OH246246   0.876   2.990   3.835  0.4475  0.7163  0.1184
 8252TIP3    H146247   0.811   2.969   3.768  0.8723 -1.4062  0.3286
 8252TIP3    H246248   0.825   3.026   3.908 -0.4867 -0.7810  0.2319
 8253TIP3   OH246249   2.281   4.357  14.910  0.0209  0.2190 -0.6479
 8253TIP3    H146250   2.376   4.361  14.901  0.4988 -4.5902 -0.6084
 8253TIP3    H246251   2.261   4.414  14.984  3.1265  0.0888  0.4201
 8254TIP3   OH246252   2.624   0.915  14.167  0.3337 -0.5503 -0.0069
 8254TIP3    H146253   2.653   0.913  14.076  0.0791  1.4278 -0.1719
 8254TIP3    H246254   2.529   0.929  14.162  0.2404 -0.9164  0.5781
 8255TIP3   OH246255   6.418   4.929  14.941  0.0713  0.5143  0.1946
 8255TIP3    H146256   6.327   4.951  14.961  0.6132  2.0481  1.0795
 8255TIP3    H246257   6.447   4.998  14.881  0.5901 -0.1194 -0.3042
 8256TIP3   OH246258   2.678   2.481  13.022  0.0346  0.0820 -0.1442
 8256TIP3    H146259   2.647   2.472  12.931 -0.4153  1.5657 -0.1505
 8256TIP3    H246260   2.723   2.565  13.024 -1.4163  0.8584  1.4186
 8257TIP3   OH246261   0.719   5.837  13.041  0.4028  0.0210  0.4385
 8257TIP3    H146262   0.673   5.830  12.957  0.2098  1.0449  0.4476
 8257TIP3    H246263   0.650   5.856  13.104  0.2270 -2.8075  1.2312
 8258TIP3   OH246264   5.091   6.474  10.789 -0.0635 -0.8249 -0.3240
 8258TIP3    H146265   5.037   6.395  10.796 -0.2714 -0.9049 -2.2057
 8258TIP3    H246266   5.031   6.545  10.812 -0.6852 -1.0022 -1.3338
 8259TIP3   OH246267   5.251   2.400  14.296  0.3043 -0.5162  0.0575
 8259TIP3    H146268   5.165   2.375  14.260 -0.3167 -0.2239  1.2922
 8259TIP3    H246269   5.313   2.341  14.253 -0.4451 -0.4117 -1.2150
 8260TIP3   OH246270   2.228   6.011   4.179 -0.3594  0.0581  0.0055
 8260TIP3    H146271   2.250   5.995   4.270  4.1410 -0.9056 -1.0235
 8260TIP3    H246272   2.258   5.933   4.132  2.2247  2.4401 -2.7642
 8261TIP3   OH246273   3.728   3.606   0.441  0.2592 -0.8805 -0.1590
 8261TIP3    H146274   3.784   3.668   0.395  1.7240 -1.5476  0.6783
 8261TIP3    H246275   3.715   3.534   0.379 -1.2407  0.0923 -1.0381
 8262TIP3   OH246276   2.284   5.518  11.249 -0.1016 -0.4155  0.4747
 8262TIP3    H146277   2.331   5.448  11.203  1.6551  1.0236 -0.0515
 8262TIP3    H246278   2.228   5.473  11.312 -0.5787 -2.3534 -1.2404
 8263TIP3   OH246279   3.823   2.129   1.409 -0.1503 -0.0768  0.0967
 8263TIP3    H146280   3.841   2.063   1.476  0.4793  0.3022  0.3142
 8263TIP3    H246281   3.901   2.127   1.353 -0.6488 -0.3549 -0.6061
 8264TIP3   OH246282   3.091   3.594   2.291  0.4459 -0.1437 -0.6996
 8264TIP3    H146283   3.105   3.545   2.372  1.4650  3.2060  1.3477
 8264TIP3    H246284   3.019   3.654   2.312  1.3765  1.4650 -1.9110
 8265TIP3   OH246285   6.680   1.509  15.838  0.4834  0.4025 -0.5875
 8265TIP3    H146286   6.735   1.433  15.821 -0.4493 -0.2931 -0.5909
 8265TIP3    H246287   6.608   1.474  15.891  1.3686  1.7604  1.6677
 8266TIP3   OH246288   3.867   6.236  16.767 -0.0565 -0.3630 -0.9139
 8266TIP3    H146289   3.837   6.191  16.846 -0.2246 -0.6485 -1.1400
 8266TIP3    H246290   3.830   6.324  16.774 -1.1224 -0.7747 -1.2922
 8267TIP3   OH246291   5.308   5.379  11.528  0.3429 -0.2293  0.5912
 8267TIP3    H146292   5.373   5.444  11.500  0.5106  0.0888  1.6894
 8267TIP3    H246293   5.237   5.430  11.565 -0.0158 -0.6356  0.4740
 8268TIP3   OH246294   1.881   6.616   2.055  0.1201 -0.0683  0.1162
 8268TIP3    H146295   1.838   6.581   2.133 -0.4866  0.3527 -0.0187
 8268TIP3    H246296   1.826   6.586   1.982 -1.2010  2.1770  0.0699
 8269TIP3   OH246297   0.936   3.978  14.025 -0.3392  0.1941 -0.3404
 8269TIP3    H146298   0.982   3.918  14.084  0.0898  0.6902 -0.1590
 8269TIP3    H246299   0.854   3.999  14.071 -1.0658 -1.1956 -0.9542
 8270TIP3   OH246300   5.328   5.449   4.079  0.1232  0.0880  0.5328
 8270TIP3    H146301   5.346   5.357   4.059  0.1917  0.3513 -0.7132
 8270TIP3    H246302   5.363   5.497   4.003 -1.0986  1.0311  0.5390
 8271TIP3   OH246303   6.115   3.768   4.831 -0.0718  0.0514  0.1417
 8271TIP3    H146304   6.033   3.746   4.786  0.2940  1.0592 -1.0674
 8271TIP3    H246305   6.179   3.707   4.795  0.2086  0.8207 -0.6999
 8272TIP3   OH246306   2.721   4.929  16.717  0.4126  0.8719 -0.2658
 8272TIP3    H146307   2.778   4.997  16.753  3.0865 -0.6298 -1.4262
 8272TIP3    H246308   2.729   4.856  16.779  1.0876  0.0716 -1.2625
 8273TIP3   OH246309   1.036   6.226  10.762 -0.2645 -0.1626  0.1365
 8273TIP3    H146310   0.980   6.161  10.720  1.2230 -1.2803 -0.1943
 8273TIP3    H246311   1.060   6.286  10.691  0.3353 -0.6802 -0.1040
 8274TIP3   OH246312   1.948   6.766   5.703 -0.0789 -0.5604 -0.1761
 8274TIP3    H146313   1.919   6.675   5.709  1.0327 -0.8564  1.8921
 8274TIP3    H246314   2.038   6.760   5.672 -0.1947 -0.1201 -0.6004
 8275TIP3   OH246315   1.215   4.331  16.675  0.4133 -0.2478 -0.0036
 8275TIP3    H146316   1.241   4.407  16.623 -1.5325  0.1466 -0.4611
 8275TIP3    H246317   1.295   4.307  16.724  1.7094  0.6130 -1.6048
 8276TIP3   OH246318   6.578   5.594   2.558 -0.0626 -0.3387 -0.0742
 8276TIP3    H146319   6.599   5.575   2.466  0.0821 -1.3615  0.1600
 8276TIP3    H246320   6.646   5.549   2.608 -0.4018 -0.1597  0.5591
 8277TIP3   OH246321   2.450   3.456  12.889  0.1215  0.6334 -0.8587
 8277TIP3    H146322   2.380   3.453  12.954  1.2948  2.3377  0.5695
 8277TIP3    H246323   2.418   3.403  12.817 -0.7689 -2.3745  1.5351
 8278TIP3   OH246324   2.285   6.109   5.303 -0.5277 -0.0305 -0.2170
 8278TIP3    H146325   2.268   6.067   5.387 -2.2403 -0.1994 -0.6142
 8278TIP3    H246326   2.270   6.202   5.319  1.0955  0.2011  0.1203
 8279TIP3   OH246327   6.350   6.010  13.164  0.0212  0.1770 -0.0599
 8279TIP3    H146328   6.304   5.994  13.081 -2.0029 -0.2153  1.0588
 8279TIP3    H246329   6.384   5.925  13.190  0.2247  0.2037 -0.2361
 8280TIP3   OH246330   2.171   6.783  14.734  0.5003  0.3677  0.0350
 8280TIP3    H146331   2.246   6.724  14.737  1.0307  1.0803  0.8558
 8280TIP3    H246332   2.111   6.749  14.801 -0.6238 -1.0845 -1.5835
 8281TIP3   OH246333   3.768   2.092   4.183  0.0183 -0.2384 -0.9658
 8281TIP3    H146334   3.798   2.001   4.188  1.4776  0.2410 -0.4099
 8281TIP3    H246335   3.818   2.130   4.112  1.3002  0.7651  0.4257
 8282TIP3   OH246336   2.917   1.593  15.891  0.0600 -0.5724  0.3908
 8282TIP3    H146337   2.888   1.664  15.948  1.5499 -0.8417  1.5415
 8282TIP3    H246338   2.864   1.518  15.916 -0.7624 -0.1651 -0.0788
 8283TIP3   OH246339   0.368   4.311  14.129  0.3865  0.1367  0.2210
 8283TIP3    H146340   0.357   4.334  14.221 -1.8510 -0.8826  0.2836
 8283TIP3    H246341   0.331   4.385  14.081  3.8127  1.8651 -0.0721
 8284TIP3   OH246342   4.098   0.475  16.254  0.0398 -0.4131 -0.0888
 8284TIP3    H146343   4.142   0.476  16.169  0.7214 -0.1911  0.2631
 8284TIP3    H246344   4.026   0.538  16.245  0.8683  0.5490 -0.1038
 8285TIP3   OH246345   2.735   4.605  16.814 -0.3871  0.0083  0.3912
 8285TIP3    H146346   2.745   4.510  16.816 -2.0698 -0.2211 -0.5203
 8285TIP3    H246347   2.764   4.631  16.727  0.8624  0.4744  0.9117
 8286TIP3   OH246348   0.675   3.121   4.929 -0.2698 -0.0093  0.1267
 8286TIP3    H146349   0.706   3.040   4.970  0.4796 -0.0773 -0.5298
 8286TIP3    H246350   0.689   3.106   4.835 -0.8204  0.5962 -0.0516
 8287TIP3   OH246351   3.865   1.771   3.337 -0.2028 -0.2169  0.1630
 8287TIP3    H146352   3.781   1.736   3.306  0.1549 -0.5902 -0.4188
 8287TIP3    H246353   3.893   1.709   3.405 -0.2264 -0.3046  0.0940
 8288TIP3   OH246354   2.911   5.243   2.122  0.4183 -0.2346  0.8016
 8288TIP3    H146355   2.887   5.168   2.069  1.7825  0.8112 -1.4194
 8288TIP3    H246356   2.959   5.206   2.196  0.0844 -1.6021  0.3515
 8289TIP3   OH246357   5.986   3.437  16.235 -0.1214  0.1148 -0.0166
 8289TIP3    H146358   5.894   3.465  16.236 -0.6252 -1.4291 -0.3749
 8289TIP3    H246359   5.994   3.387  16.154  0.8287 -0.4596  0.4252
 8290TIP3   OH246360   0.564   3.084  14.230  0.2353 -0.6098 -0.4765
 8290TIP3    H146361   0.560   3.081  14.326  0.7274  1.7486 -0.3310
 8290TIP3    H246362   0.652   3.115  14.210  0.2910 -1.5120 -1.7272
 8291TIP3   OH246363   4.244   2.032   2.938  0.2159 -0.0152  0.4071
 8291TIP3    H146364   4.223   1.938   2.937 -0.9411  0.2278 -0.7021
 8291TIP3    H246365   4.320   2.040   2.880  0.6450 -0.3251  0.9180
 8292TIP3   OH246366   3.809   0.949  15.348 -0.0935 -0.0453 -0.0393
 8292TIP3    H146367   3.819   0.953  15.443 -0.1553  1.3199 -0.0664
 8292TIP3    H246368   3.719   0.978  15.332  0.1258  0.3711 -0.5417
 8293TIP3   OH246369   0.459   2.322  16.251  0.2560  0.0140  0.1147
 8293TIP3    H146370   0.445   2.232  16.219 -2.6906 -0.2928  1.9082
 8293TIP3    H246371   0.494   2.369  16.175  1.2908 -2.4595 -1.0561
 8294TIP3   OH246372   3.995   3.130  11.235  0.1655  0.0517  0.1965
 8294TIP3    H146373   4.068   3.190  11.223  1.4586 -1.4453  0.3497
 8294TIP3    H246374   3.928   3.162  11.175  1.1112  1.1645 -0.2983
 8295TIP3   OH246375   0.322   3.020   5.306  0.4591 -0.5120 -0.0497
 8295TIP3    H146376   0.411   3.013   5.341  0.2904 -0.0083  0.4812
 8295TIP3    H246377   0.330   3.084   5.235  0.3889  0.0502  0.4446
 8296TIP3   OH246378   3.581   2.980  16.748  0.0915  0.0663  0.1849
 8296TIP3    H146379   3.639   3.044  16.706  0.1407  0.3247  0.6423
 8296TIP3    H246380   3.571   3.012  16.837 -1.2398  0.3466 -0.0525
 8297TIP3   OH246381   4.112   4.836   2.452 -0.1831  0.3108 -0.0877
 8297TIP3    H146382   4.071   4.791   2.378  1.2327 -0.3311 -0.5108
 8297TIP3    H246383   4.039   4.867   2.505 -1.2137  0.0459 -1.3194
 8298TIP3   OH246384   3.449   5.698  16.247  0.0007  0.3789  0.1402
 8298TIP3    H146385   3.492   5.775  16.284 -0.9451  0.7946  0.4086
 8298TIP3    H246386   3.518   5.633  16.240  0.7333  1.1211  0.2831
 8299TIP3   OH246387   6.156   4.602  16.051 -0.0184  0.2951  0.0800
 8299TIP3    H146388   6.120   4.628  15.966  1.8219  0.5671 -0.6838
 8299TIP3    H246389   6.183   4.511  16.038  1.0347  0.5909  0.0617
 8300TIP3   OH246390   1.639   1.573  12.175 -0.7915  0.2978 -0.0409
 8300TIP3    H146391   1.575   1.623  12.224  0.4916 -0.3555  2.4840
 8300TIP3    H246392   1.596   1.490  12.156 -0.8046 -0.0555  1.4468
 8301TIP3   OH246393   1.896   0.066  13.373 -0.6043  0.0039  0.3285
 8301TIP3    H146394   1.903   0.147  13.324  0.0108 -0.2879 -0.0859
 8301TIP3    H246395   1.802   0.051  13.384 -0.8022 -0.4589 -1.6585
 8302TIP3   OH246396   0.664   4.538   0.143  0.2619 -0.0612  0.0537
 8302TIP3    H146397   0.577   4.575   0.160  0.8139  0.4487  1.9938
 8302TIP3    H246398   0.718   4.613   0.122  0.7535 -0.0434  1.2709
 8303TIP3   OH246399   3.518   2.322  13.457  0.3611 -0.0653  0.5287
 8303TIP3    H146400   3.426   2.347  13.449 -0.4955 -2.9506  0.3889
 8303TIP3    H246401   3.544   2.296  13.369  1.7938  1.9832  0.2748
 8304TIP3   OH246402   5.551   4.230   2.674 -0.5541  0.2049  0.6437
 8304TIP3    H146403   5.461   4.259   2.665 -0.0224  1.8845  0.3321
 8304TIP3    H246404   5.603   4.309   2.657  1.0318 -1.1078 -0.9430
 8305TIP3   OH246405   5.655   4.907   2.468 -0.0406  0.2812  0.4897
 8305TIP3    H146406   5.631   4.957   2.390  0.8506 -0.1284 -0.0698
 8305TIP3    H246407   5.582   4.920   2.529 -1.2073 -0.1404 -0.7659
 8306TIP3   OH246408   6.639   3.479  13.654 -0.3777 -0.0190 -0.3233
 8306TIP3    H146409   6.677   3.563  13.629  0.6071 -0.0585  0.9086
 8306TIP3    H246410   6.595   3.447  13.575  1.4545  0.4414 -1.5865
 8307TIP3   OH246411   4.169   0.278  17.025 -0.1354 -0.2051 -0.1831
 8307TIP3    H146412   4.226   0.323  17.087 -0.2952 -0.8116  0.4169
 8307TIP3    H246413   4.145   0.345  16.961 -0.6973  0.6657  0.9145
 8308TIP3   OH246414   0.835   5.558   2.423  0.0714 -0.0751  0.5257
 8308TIP3    H146415   0.812   5.559   2.331  0.1651 -0.6230  0.4923
 8308TIP3    H246416   0.812   5.470   2.453 -0.3149  0.2177  1.1165
 8309TIP3   OH246417   1.399   5.565   4.061 -0.3569 -0.3993 -0.2880
 8309TIP3    H146418   1.457   5.564   3.986 -0.8158  0.6539 -0.6859
 8309TIP3    H246419   1.446   5.519   4.130 -0.3008 -2.1732 -1.4753
 8310TIP3   OH246420   3.029   6.599   1.263  0.9025 -0.6908 -0.4242
 8310TIP3    H146421   3.019   6.578   1.170  0.4482 -0.5096 -0.4170
 8310TIP3    H246422   3.035   6.694   1.266 -0.4482 -0.5967 -0.1526
 8311TIP3   OH246423   3.685   4.014  13.433  0.0569 -0.1982  0.1752
 8311TIP3    H146424   3.767   4.061  13.415  0.8570 -1.7891 -0.5257
 8311TIP3    H246425   3.650   4.057  13.511  1.8246  0.2074  0.7907
 8312TIP3   OH246426   4.403   1.836   4.583 -0.0101  0.0701  0.1398
 8312TIP3    H146427   4.445   1.757   4.549  0.4093  0.1604  0.4313
 8312TIP3    H246428   4.398   1.821   4.678 -1.2484 -0.2230  0.0467
 8313TIP3   OH246429   4.829   4.208  17.163  0.0147 -0.1116 -0.0721
 8313TIP3    H146430   4.851   4.152  17.238  0.5349 -0.1043 -0.2199
 8313TIP3    H246431   4.912   4.221  17.117  0.0941  1.5662  0.4827
 8314TIP3   OH246432   3.449   1.600   1.521 -0.1614  0.7143 -0.1167
 8314TIP3    H146433   3.449   1.627   1.429 -1.3333  1.0001 -0.0470
 8314TIP3    H246434   3.420   1.678   1.569 -0.4931  0.2842  0.3968
 8315TIP3   OH246435   5.364   5.310  13.011  1.0506  0.1682  0.3526
 8315TIP3    H146436   5.362   5.224  12.970 -0.2768  0.8065 -1.0145
 8315TIP3    H246437   5.282   5.352  12.985  1.3673  1.6140  1.5126
 8316TIP3   OH246438   3.800   1.866  11.693 -0.0659 -0.0997 -0.1430
 8316TIP3    H146439   3.751   1.866  11.775  2.1261  0.8762  1.2809
 8316TIP3    H246440   3.827   1.775  11.681 -2.2039 -0.6645 -0.9999
 8317TIP3   OH246441   2.814   2.423   3.957 -0.1690 -0.5118 -0.5366
 8317TIP3    H146442   2.900   2.451   3.990  0.4338  0.0888 -2.4646
 8317TIP3    H246443   2.834   2.366   3.883 -1.4202 -0.2047 -1.1406
 8318TIP3   OH246444   0.645   5.872   4.991 -0.5299 -0.0385 -0.4461
 8318TIP3    H146445   0.582   5.922   4.939 -0.2014  0.6839 -0.1485
 8318TIP3    H246446   0.591   5.816   5.047 -0.8900 -0.4467 -1.1812
 8319TIP3   OH246447   5.555   4.153   5.560  0.1236  0.5740 -0.5349
 8319TIP3    H146448   5.496   4.227   5.542 -1.4486 -0.8230 -1.3558
 8319TIP3    H246449   5.643   4.191   5.552 -0.5893  2.8130  1.0664
 8320TIP3   OH246450   0.721   4.481   5.551  0.0263 -0.1181  0.0163
 8320TIP3    H146451   0.668   4.523   5.619 -0.3621 -0.0362 -0.3324
 8320TIP3    H246452   0.697   4.389   5.556 -0.2209 -0.0660 -0.2058
 8321TIP3   OH246453   3.687   5.526  16.093 -0.0905 -1.0779  0.5126
 8321TIP3    H146454   3.747   5.573  16.151  2.8661 -3.2257 -0.5538
 8321TIP3    H246455   3.672   5.586  16.020  1.3380 -0.7136  0.4901
 8322TIP3   OH246456   2.496   5.194  12.192 -0.2509  0.2208 -0.3362
 8322TIP3    H146457   2.515   5.199  12.285  3.1783  0.3156 -0.9112
 8322TIP3    H246458   2.485   5.101  12.174  0.0291  0.1168  0.0311
 8323TIP3   OH246459   5.052   4.628  13.522 -0.1850  0.4034  0.1512
 8323TIP3    H146460   5.057   4.603  13.429  0.7810  0.9521  0.0471
 8323TIP3    H246461   5.042   4.545  13.568  1.8264 -0.1205 -0.2758
 8324TIP3   OH246462   2.669   6.321  11.981  0.2554 -0.3406  0.7583
 8324TIP3    H146463   2.605   6.304  11.912  2.0742  0.2891 -1.2138
 8324TIP3    H246464   2.653   6.412  12.007  1.3503  0.4331 -1.0035
 8325TIP3   OH246465   1.645   4.770   6.102  0.6005  0.4454  0.2503
 8325TIP3    H146466   1.579   4.743   6.038  1.9174  0.0175 -0.9722
 8325TIP3    H246467   1.619   4.728   6.184  1.0715 -2.3327 -0.9438
 8326TIP3   OH246468   1.784   2.456  14.163  0.1025 -0.4244  0.0890
 8326TIP3    H146469   1.787   2.447  14.258  1.0532  1.4520  0.2877
 8326TIP3    H246470   1.871   2.429  14.133  0.6957  1.3343  0.0648
 8327TIP3   OH246471   3.120   6.443  14.984  0.4780  0.2313  0.0364
 8327TIP3    H146472   3.170   6.509  14.935  1.9042 -0.5447  0.3804
 8327TIP3    H246473   3.085   6.385  14.916  0.5905  0.4121 -0.1776
 8328TIP3   OH246474   4.061   6.583   1.453  0.1067 -0.5465 -0.0609
 8328TIP3    H146475   4.144   6.545   1.426  0.0183  0.1984 -1.5004
 8328TIP3    H246476   4.048   6.552   1.543  1.7464 -0.9703  0.0617
 8329TIP3   OH246477   2.772   2.356   2.292  0.0089 -0.3926 -0.3225
 8329TIP3    H146478   2.708   2.415   2.332 -0.8640 -0.8508 -1.0273
 8329TIP3    H246479   2.720   2.282   2.260  0.8005 -0.4359 -1.5378
 8330TIP3   OH246480   1.078   2.813  11.021 -0.0496 -0.1498  0.8346
 8330TIP3    H146481   1.022   2.889  11.037  0.5056  0.1192  1.4867
 8330TIP3    H246482   1.088   2.771  11.106  0.5703 -0.3208  0.6843
 8331TIP3   OH246483   6.265   3.418  10.761 -0.0834  0.4536 -0.2715
 8331TIP3    H146484   6.335   3.353  10.752 -0.0343  0.6703 -1.6970
 8331TIP3    H246485   6.214   3.409  10.680 -0.1666  2.0770 -0.4201
 8332TIP3   OH246486   4.751   2.055  17.112 -0.0149  0.4096  0.2775
 8332TIP3    H146487   4.664   2.094  17.108 -0.0544  0.4917  1.4757
 8332TIP3    H246488   4.748   1.998  17.189  0.6580 -0.4416 -0.3014
 8333TIP3   OH246489   3.580   1.118   4.997  0.0580  0.0775 -0.0520
 8333TIP3    H146490   3.598   1.024   5.001  0.0690 -0.0290 -1.7799
 8333TIP3    H246491   3.537   1.137   5.080  0.0302 -1.4609  0.3310
 8334TIP3   OH246492   3.707   4.267   5.689 -0.3492 -0.1379  0.0465
 8334TIP3    H146493   3.764   4.331   5.646 -0.9818  0.2966 -0.1554
 8334TIP3    H246494   3.656   4.318   5.752  0.2729 -0.7082  1.0409
 8335TIP3   OH246495   5.759   4.082  12.088 -0.3452  0.1623  0.6681
 8335TIP3    H146496   5.790   4.167  12.118 -0.4908  0.4891 -0.0831
 8335TIP3    H246497   5.666   4.081  12.113 -1.1145  1.4441 -1.8237
 8336TIP3   OH246498   1.157   1.114   4.196 -0.0130  0.5164 -0.6795
 8336TIP3    H146499   1.208   1.187   4.229  1.8463  0.4193 -3.0531
 8336TIP3    H246500   1.156   1.126   4.101  0.2555 -2.4154 -1.1656
 8337TIP3   OH246501   5.208   2.776   5.240  0.1613 -0.3076 -0.2056
 8337TIP3    H146502   5.152   2.716   5.288 -0.2143  0.0845 -0.1492
 8337TIP3    H246503   5.276   2.720   5.202 -0.5325 -0.8564 -0.6729
 8338TIP3   OH246504   1.320   1.740  15.305  0.0077 -0.7466 -0.2279
 8338TIP3    H146505   1.259   1.781  15.243  1.6027  1.1220 -0.6218
 8338TIP3    H246506   1.314   1.793  15.384  0.4226 -1.1474  0.0804
 8339TIP3   OH246507   5.402   4.149  13.715 -0.6319 -0.2625  0.0844
 8339TIP3    H146508   5.448   4.138  13.632 -0.1960 -0.3650  0.3373
 8339TIP3    H246509   5.420   4.240  13.740  0.7914 -0.7479  0.9761
 8340TIP3   OH246510   4.919   2.339   4.821  0.1348  0.7295  0.1967
 8340TIP3    H146511   4.976   2.399   4.772  1.8557  0.8271  2.1757
 8340TIP3    H246512   4.977   2.268   4.850 -1.3842 -0.7051 -0.1307
 8341TIP3   OH246513   5.176   0.482  11.936 -0.3206 -0.5518 -0.0006
 8341TIP3    H146514   5.157   0.403  11.884  0.2885 -1.1767  0.7013
 8341TIP3    H246515   5.223   0.539  11.876  0.2934 -1.2255 -0.1799
 8342TIP3   OH246516   1.394   5.370  14.583  0.2453 -0.3202 -0.2011
 8342TIP3    H146517   1.433   5.329  14.660  1.0609  1.3877  0.3327
 8342TIP3    H246518   1.432   5.458  14.580 -2.8630  1.1803 -0.1386
 8343TIP3   OH246519   0.292   1.754  16.488  0.0652  0.1067 -0.0750
 8343TIP3    H146520   0.215   1.734  16.541  0.1102 -0.1038 -0.0909
 8343TIP3    H246521   0.256   1.787  16.406 -0.0692 -2.3882 -1.0881
 8344TIP3   OH246522   5.475   3.930  15.800  0.2097 -0.0872  0.5017
 8344TIP3    H146523   5.478   3.875  15.721 -0.8121  1.1320 -0.4285
 8344TIP3    H246524   5.382   3.949  15.812  0.3398 -0.3448  2.0908
 8345TIP3   OH246525   4.030   1.278  11.408  0.3648  0.8152  0.7950
 8345TIP3    H146526   3.952   1.277  11.464 -1.3055  0.1331 -1.3655
 8345TIP3    H246527   4.029   1.364  11.367 -0.3742  0.1832 -0.6002
 8346TIP3   OH246528   0.293   2.996   2.274  0.1342  0.1319  0.1534
 8346TIP3    H146529   0.319   2.926   2.215  1.0752  1.8676 -1.6093
 8346TIP3    H246530   0.369   3.055   2.275 -1.1786  1.8770  0.3802
 8347TIP3   OH246531   3.945   2.999  15.442  0.1523  0.4954  0.2621
 8347TIP3    H146532   3.923   3.045  15.523  0.0012  0.5726  0.1770
 8347TIP3    H246533   3.944   3.067  15.374 -2.0639  0.0552 -0.2266
 8348TIP3   OH246534   6.710   3.410   6.033 -0.3381 -0.2771 -0.7030
 8348TIP3    H146535   6.660   3.487   6.007  0.5753  0.6418  0.1614
 8348TIP3    H246536   6.661   3.336   5.998 -1.0549  0.7090 -1.8497
 8349TIP3   OH246537   5.440   2.662   5.089  0.5096  0.2374 -0.0536
 8349TIP3    H146538   5.497   2.725   5.044  0.7400  0.9549  1.2042
 8349TIP3    H246539   5.419   2.597   5.022  2.1071  0.4209 -0.7859
 8350TIP3   OH246540   0.554   3.845   0.810  0.0538 -0.8894 -0.2802
 8350TIP3    H146541   0.622   3.873   0.749 -0.0799 -0.4463 -0.2345
 8350TIP3    H246542   0.476   3.833   0.755 -0.1319 -0.2506 -0.1749
 8351TIP3   OH246543   5.323   0.230   1.710  0.6370 -0.6276 -0.2775
 8351TIP3    H146544   5.228   0.243   1.700  0.6570 -1.6169 -2.1397
 8351TIP3    H246545   5.332   0.136   1.723  1.5351 -1.1237 -3.6478
 8352TIP3   OH246546   4.098   3.812   4.604  0.5843  0.0771  0.0515
 8352TIP3    H146547   4.062   3.780   4.686  0.8328  0.5479  0.3485
 8352TIP3    H246548   4.186   3.843   4.627  0.7204  0.0550 -0.4233
 8353TIP3   OH246549   6.151   4.839   2.055  0.4846  0.6579 -0.0970
 8353TIP3    H146550   6.060   4.867   2.057  0.9899  2.5448 -0.5704
 8353TIP3    H246551   6.201   4.921   2.060  2.1727 -0.3773  1.1710
 8354TIP3   OH246552   4.945   1.199  14.466 -0.1018  0.0180  0.2181
 8354TIP3    H146553   4.915   1.283  14.431  0.4071  0.3866  0.6474
 8354TIP3    H246554   4.882   1.178  14.535 -0.0540  0.2056  0.3214
 8355TIP3   OH246555   0.538   4.111  10.669  0.0233 -0.0721 -0.2076
 8355TIP3    H146556   0.444   4.097  10.657 -0.2551  1.0738  0.4656
 8355TIP3    H246557   0.569   4.032  10.712 -0.9086  0.0873  0.7969
 8356TIP3   OH246558   2.298   2.352   3.858 -0.3943 -0.0744 -0.2673
 8356TIP3    H146559   2.316   2.298   3.781  1.1998  0.2989 -0.1826
 8356TIP3    H246560   2.327   2.298   3.932  1.0746  0.8106 -0.1726
 8357TIP3   OH246561   1.448   6.135   4.115 -0.0994  0.2442  0.9743
 8357TIP3    H146562   1.379   6.153   4.051  1.3487 -0.3765 -0.8414
 8357TIP3    H246563   1.518   6.093   4.065  1.2005 -0.0956  2.9392
 8358TIP3   OH246564   4.469   1.632   0.127  0.1001  0.6228  0.0607
 8358TIP3    H146565   4.462   1.686   0.049  0.8994  0.6867  0.0210
 8358TIP3    H246566   4.556   1.592   0.120  0.5390  1.2916  1.3295
 8359TIP3   OH246567   3.061   5.233  15.133 -0.1912  0.2924  0.0857
 8359TIP3    H146568   3.014   5.282  15.201  0.2091 -0.2018  0.7337
 8359TIP3    H246569   3.035   5.142  15.147 -0.2116  0.2049 -0.5177
 8360TIP3   OH246570   0.053   1.937   4.580 -0.2286  0.4687  0.4951
 8360TIP3    H146571  -0.005   1.988   4.637 -0.6840  0.6207 -0.1025
 8360TIP3    H246572   0.029   1.963   4.491  0.1445 -0.1352  0.2136
 8361TIP3   OH246573   1.806   4.917   4.639 -0.4825  0.3283  0.7661
 8361TIP3    H146574   1.776   4.997   4.595 -0.7956  0.8764  1.9147
 8361TIP3    H246575   1.786   4.847   4.578  1.7404  1.2964 -1.1958
 8362TIP3   OH246576   0.666   5.559   0.486 -0.1693  0.2300  0.2171
 8362TIP3    H146577   0.644   5.490   0.548  0.2169  0.0467  0.1552
 8362TIP3    H246578   0.588   5.615   0.482 -0.2236  0.1954  0.7973
 8363TIP3   OH246579   2.213   2.284  10.813  0.4231  0.0317  0.4201
 8363TIP3    H146580   2.179   2.345  10.878 -0.9626 -0.5799  0.3041
 8363TIP3    H246581   2.159   2.299  10.735  0.8812 -0.4826 -0.0066
 8364TIP3   OH246582   0.784   3.900   4.525 -0.5955 -0.4107  0.0834
 8364TIP3    H146583   0.826   3.822   4.490  1.7545  0.0938  1.4852
 8364TIP3    H246584   0.827   3.973   4.479  0.0699  0.1208  1.4546
 8365TIP3   OH246585   3.940   5.407  12.994  0.7495  0.3015 -0.7126
 8365TIP3    H146586   3.920   5.322  12.955 -2.4331  0.8213 -0.4901
 8365TIP3    H246587   3.866   5.463  12.969  2.1895  2.7296  0.0577
 8366TIP3   OH246588   1.149   2.825  10.576 -0.6036  0.5514 -0.3612
 8366TIP3    H146589   1.113   2.738  10.593  2.8232 -0.9195  0.1451
 8366TIP3    H246590   1.193   2.817  10.492  0.3291  1.6126  0.0032
 8367TIP3   OH246591   5.308   2.688   4.062 -0.3396 -0.1181 -0.1164
 8367TIP3    H146592   5.335   2.615   4.118 -3.0397 -1.4963 -0.4575
 8367TIP3    H246593   5.318   2.765   4.118 -0.4929 -1.1422  1.3957
 8368TIP3   OH246594   0.859   1.883   2.293 -0.0678  0.2756  0.0218
 8368TIP3    H146595   0.849   1.830   2.373 -2.3014 -1.7872 -1.4682
 8368TIP3    H246596   0.897   1.822   2.229  2.7400  2.1993 -0.3088
 8369TIP3   OH246597   0.726   1.318   3.405 -0.1735  0.0498 -0.2981
 8369TIP3    H146598   0.759   1.376   3.474 -0.3863  1.7281 -1.5516
 8369TIP3    H246599   0.646   1.281   3.441  0.6697 -0.5504  1.0408
 8370TIP3   OH246600   4.111   4.247  15.905  0.3464 -0.5244  0.3155
 8370TIP3    H146601   4.198   4.272  15.873 -0.6355  1.2083 -1.2190
 8370TIP3    H246602   4.118   4.252  16.000  1.0640  3.1293  0.2261
 8371TIP3   OH246603   1.821   0.625   4.110 -0.3960 -0.1315 -0.2304
 8371TIP3    H146604   1.781   0.595   4.192 -0.9526 -0.1479 -0.5069
 8371TIP3    H246605   1.892   0.683   4.138  0.1000 -0.9581  0.2892
 8372TIP3   OH246606   3.814   6.402   3.010 -0.2412  0.3009  0.4574
 8372TIP3    H146607   3.885   6.465   3.025  0.7916 -1.0638  1.6777
 8372TIP3    H246608   3.848   6.320   3.046 -2.1979 -0.5616  0.4407
 8373TIP3   OH246609   5.894   2.986   5.512 -0.2793 -0.0645  0.4014
 8373TIP3    H146610   5.959   2.917   5.525 -0.8551 -0.8314 -0.6211
 8373TIP3    H246611   5.871   3.015   5.601  1.4244  0.2175  0.7770
 8374TIP3   OH246612   3.973   3.175   2.581 -0.4795  0.0300  0.3079
 8374TIP3    H146613   4.012   3.127   2.654 -0.3405 -0.7588 -0.2817
 8374TIP3    H246614   3.882   3.145   2.578 -1.5137  2.5463  2.2747
 8375TIP3   OH246615   0.654   3.831   2.285  0.1861 -0.5259 -0.1245
 8375TIP3    H146616   0.620   3.918   2.265  0.0362 -0.3005  1.0240
 8375TIP3    H246617   0.600   3.771   2.234  0.0856  0.0310 -0.6852
 8376TIP3   OH246618   5.748   3.837   5.501  0.3428 -0.3902  0.5943
 8376TIP3    H146619   5.653   3.828   5.504  0.3041 -0.6786 -0.8069
 8376TIP3    H246620   5.774   3.794   5.420  1.6728 -0.2995  0.9466
 8377TIP3   OH246621   2.675   3.629   5.519  0.0084 -0.1738  0.1055
 8377TIP3    H146622   2.767   3.612   5.541  0.6355 -0.2727 -2.2391
 8377TIP3    H246623   2.667   3.725   5.520  0.2788 -0.1472 -0.1129
 8378TIP3   OH246624   4.723   3.825  16.530  0.2325 -0.5815 -0.1893
 8378TIP3    H146625   4.818   3.823  16.544  0.0288 -0.5273  1.3708
 8378TIP3    H246626   4.713   3.845  16.437  1.7447 -0.0325 -0.2611
 8379TIP3   OH246627   4.797   4.631  16.230  0.1006  0.3357 -0.0413
 8379TIP3    H146628   4.778   4.549  16.186 -0.9179  0.8347 -0.5610
 8379TIP3    H246629   4.745   4.629  16.310  0.1524  0.4267 -0.0044
 8380TIP3   OH246630   6.790   3.037   2.476 -0.4559 -0.0730  0.2242
 8380TIP3    H146631   6.754   2.975   2.413 -0.7244  0.3403 -0.0327
 8380TIP3    H246632   6.882   3.011   2.485 -0.4332 -0.1796 -0.2849
 8381TIP3   OH246633   5.139   0.298  13.237  0.4424 -0.0374  0.1346
 8381TIP3    H146634   5.136   0.291  13.333  0.8754 -1.9177  0.0548
 8381TIP3    H246635   5.075   0.233  13.207  1.2199 -0.3732 -0.8529
 8382TIP3   OH246636   2.489   3.927  16.471  0.6182 -0.4558 -1.0951
 8382TIP3    H146637   2.509   3.963  16.557  0.0727 -0.2999 -1.0302
 8382TIP3    H246638   2.404   3.964  16.448 -0.1158 -1.9693 -0.8803
 8383TIP3   OH246639   6.505   0.036   4.741  0.8736 -0.1514 -0.0835
 8383TIP3    H146640   6.465  -0.006   4.818  1.6529  0.1491  0.4996
 8383TIP3    H246641   6.488   0.129   4.753  1.2547 -0.0772 -0.1268
 8384TIP3   OH246642   0.741   0.291   1.236  0.1257  0.1610  0.0221
 8384TIP3    H146643   0.674   0.263   1.298  1.4718 -3.5757  0.0234
 8384TIP3    H246644   0.798   0.348   1.287  0.4597 -1.7525  1.9298
 8385TIP3   OH246645   6.351   3.060  13.893 -1.6710 -0.3234  0.1151
 8385TIP3    H146646   6.362   2.969  13.923 -0.1574 -0.4161 -0.6423
 8385TIP3    H246647   6.426   3.076  13.837 -2.9200  0.7920 -1.3341
 8386TIP3   OH246648   4.952   2.105   2.891 -0.0267  0.3934  0.3292
 8386TIP3    H146649   5.025   2.082   2.949  0.5994  0.3193 -0.4672
 8386TIP3    H246650   4.946   2.032   2.830  2.6138  2.5514 -2.8527
 8387TIP3   OH246651   4.558   4.057   1.035 -0.2650 -0.1090  0.5118
 8387TIP3    H146652   4.620   4.117   0.994  0.5920 -1.4930 -0.2760
 8387TIP3    H246653   4.472   4.088   1.004  0.0304  1.4949  1.1888
 8388TIP3   OH246654   0.579   3.778   1.314  0.3632  0.2013 -0.4605
 8388TIP3    H146655   0.622   3.702   1.276  2.7500  1.4109 -0.3413
 8388TIP3    H246656   0.572   3.758   1.407  0.5553 -0.0577 -0.5005
 8389TIP3   OH246657   6.246   4.332  14.494  0.4391 -0.1052 -0.4357
 8389TIP3    H146658   6.203   4.302  14.414 -0.7752 -1.8817  0.7900
 8389TIP3    H246659   6.293   4.255  14.526 -1.0385 -0.1935  1.7433
 8390TIP3   OH246660   5.439   5.500   0.198  0.0880  0.0893  0.2379
 8390TIP3    H146661   5.410   5.546   0.120  0.5441 -1.3949 -0.8380
 8390TIP3    H246662   5.504   5.559   0.238 -0.5965  1.1235 -0.1309
 8391TIP3   OH246663   5.046   3.832  12.704  0.1101  0.5708 -0.2499
 8391TIP3    H146664   5.060   3.756  12.761  0.4606 -0.0618 -1.1401
 8391TIP3    H246665   5.073   3.907  12.756  0.4436  0.0061  0.4051
 8392TIP3   OH246666   3.268   4.474  13.688 -0.5855 -0.2483  0.2997
 8392TIP3    H146667   3.258   4.564  13.719  1.3865 -0.6023  2.1817
 8392TIP3    H246668   3.320   4.482  13.608 -0.0402  0.2468  0.7049
 8393TIP3   OH246669   0.832   5.065  12.047 -0.1142 -0.0428 -0.0534
 8393TIP3    H146670   0.805   4.973  12.036  0.0108 -0.2717  1.3301
 8393TIP3    H246671   0.835   5.100  11.958 -1.3544 -1.0375 -0.5146
 8394TIP3   OH246672   1.502   3.993  16.245 -0.1212  0.0395 -0.4740
 8394TIP3    H146673   1.475   4.081  16.271  3.2975  1.9028 -2.4581
 8394TIP3    H246674   1.588   3.982  16.285  0.8242 -1.0883 -2.6876
 8395TIP3   OH246675   2.159   6.217   0.465  0.1783  0.4754 -0.4223
 8395TIP3    H146676   2.170   6.139   0.520 -0.0723  0.8069  0.1002
 8395TIP3    H246677   2.067   6.241   0.476  0.7683  2.1608  1.1898
 8396TIP3   OH246678   2.410   0.421  14.777  0.5005 -1.1966 -0.8399
 8396TIP3    H146679   2.330   0.455  14.739  0.6386  0.1591  0.0395
 8396TIP3    H246680   2.480   0.477  14.742  1.0097 -2.0047 -1.1543
 8397TIP3   OH246681   5.579   1.386   4.941  0.1464  0.3862 -0.2687
 8397TIP3    H146682   5.517   1.456   4.963 -0.1515 -0.3596  1.4415
 8397TIP3    H246683   5.524   1.317   4.905  0.1972  0.3554 -0.2865
 8398TIP3   OH246684   3.962   5.754   1.056  0.1829 -0.1473 -0.1544
 8398TIP3    H146685   3.922   5.831   1.016 -0.1276 -0.5797 -0.6896
 8398TIP3    H246686   4.048   5.747   1.014  0.5367  0.3605  0.4695
 8399TIP3   OH246687   6.806   2.872  13.519 -0.2108 -0.2824 -0.2772
 8399TIP3    H146688   6.752   2.867  13.441 -0.2287  1.4002 -0.4071
 8399TIP3    H246689   6.896   2.873  13.486 -0.2357  1.4757 -0.3939
 8400TIP3   OH246690   0.691   4.847   3.699 -0.1622 -0.0227 -0.2490
 8400TIP3    H146691   0.599   4.836   3.676 -0.0840 -1.5493  0.0669
 8400TIP3    H246692   0.734   4.870   3.616 -0.5221 -1.3593 -0.8353
 8401TIP3   OH246693   0.757   6.468  16.027 -0.0480 -0.3474 -0.3660
 8401TIP3    H146694   0.679   6.436  15.981 -0.4462 -0.8631  0.6400
 8401TIP3    H246695   0.746   6.563  16.028  0.0775 -0.3104 -1.5114
 8402TIP3   OH246696   1.058   6.280  11.775 -0.1427  0.2353 -0.1443
 8402TIP3    H146697   1.101   6.212  11.827 -0.7077  0.3937  0.5428
 8402TIP3    H246698   1.112   6.358  11.788  0.0430  0.1251 -0.2601
 8403TIP3   OH246699   0.535   6.195  15.470  0.3898 -0.0389  0.1023
 8403TIP3    H146700   0.551   6.289  15.464 -2.0126  0.5084  1.0864
 8403TIP3    H246701   0.517   6.179  15.563  1.7894 -1.6843  0.1268
 8404TIP3   OH246702   4.429   1.753  17.100  0.0996  0.2260 -0.5213
 8404TIP3    H146703   4.393   1.841  17.113 -1.3514 -0.1993 -1.3904
 8404TIP3    H246704   4.511   1.767  17.054  0.5798  1.1873  0.5766
 8405TIP3   OH246705   6.238   0.586  13.519 -0.2418 -0.6278 -0.1710
 8405TIP3    H146706   6.179   0.575  13.593  0.4321 -0.7188  0.3612
 8405TIP3    H246707   6.208   0.666  13.475 -0.6622 -0.5936  0.1818
 8406TIP3   OH246708   2.608   5.788   3.838  0.3348  0.5580 -0.7169
 8406TIP3    H146709   2.681   5.727   3.841  0.1853  0.3705 -0.8514
 8406TIP3    H246710   2.572   5.786   3.927 -1.5908 -1.9264 -1.4262
 8407TIP3   OH246711   1.081   5.198  12.810 -0.0699 -0.7655 -0.2991
 8407TIP3    H146712   1.110   5.192  12.719 -0.5437 -0.9602 -0.4433
 8407TIP3    H246713   1.157   5.231  12.858  0.2062 -0.7340 -0.7531
 8408TIP3   OH246714   4.398   3.675   2.258  0.0070  0.5398  0.1324
 8408TIP3    H146715   4.315   3.672   2.306  0.4976 -0.5835  0.9838
 8408TIP3    H246716   4.445   3.596   2.287  1.3267  1.0905 -0.3990
 8409TIP3   OH246717   6.272   2.230   4.531  0.3909 -0.0283  0.8109
 8409TIP3    H146718   6.246   2.298   4.468  0.3236  1.3404  2.2609
 8409TIP3    H246719   6.191   2.206   4.575  0.2735 -1.6827 -0.2391
 8410TIP3   OH246720   1.777   2.672  13.782 -0.1072  0.5539  0.4693
 8410TIP3    H146721   1.741   2.589  13.816 -0.7423  1.1740  1.3668
 8410TIP3    H246722   1.714   2.700  13.715  1.2540 -0.7759 -1.4731
 8411TIP3   OH246723   2.137   5.437  12.527 -0.5784 -0.2122  0.7136
 8411TIP3    H146724   2.160   5.432  12.619 -2.5294 -0.4973  1.2145
 8411TIP3    H246725   2.051   5.480  12.525 -0.5859 -0.2219 -0.9633
 8412TIP3   OH246726   0.761   4.965  16.298  0.4401  0.3106 -0.2254
 8412TIP3    H146727   0.786   5.006  16.380  1.7458  2.6520 -1.6663
 8412TIP3    H246728   0.843   4.932  16.261 -0.0554 -0.3662 -0.7501
 8413TIP3   OH246729   5.325   4.118  17.111 -0.0990  0.0478  0.8115
 8413TIP3    H146730   5.397   4.179  17.126 -0.2441  0.9895 -1.8658
 8413TIP3    H246731   5.252   4.153  17.162  0.0170  1.7592 -0.1504
 8414TIP3   OH246732   3.238   0.504  14.088 -0.3245 -0.1647 -0.0911
 8414TIP3    H146733   3.275   0.520  14.174 -0.5679 -1.6429  0.3160
 8414TIP3    H246734   3.312   0.478  14.034 -0.5764 -2.5097  0.5650
 8415TIP3   OH246735   0.379   4.704   4.494 -0.1679  0.5447 -0.7259
 8415TIP3    H146736   0.401   4.783   4.444 -0.1709  0.4374 -0.8996
 8415TIP3    H246737   0.310   4.731   4.554  0.7663  0.9986  0.1534
 8416TIP3   OH246738   1.013   1.635   2.973  0.0423 -0.5726 -0.2600
 8416TIP3    H146739   1.064   1.666   3.047 -0.5094 -1.1927  0.3901
 8416TIP3    H246740   1.069   1.570   2.930 -0.6916 -2.3076  1.2748
 8417TIP3   OH246741   1.270   4.987   0.795  0.0460 -0.5677 -0.0982
 8417TIP3    H146742   1.325   5.056   0.759 -0.5055 -0.6505 -1.1398
 8417TIP3    H246743   1.198   5.033   0.838 -1.2996 -0.4489 -2.3353
 8418TIP3   OH246744   2.987   5.769  12.924  0.3640 -0.5219 -0.2861
 8418TIP3    H146745   2.939   5.709  12.867 -1.8549  0.4181  0.4803
 8418TIP3    H246746   2.993   5.723  13.007 -0.7139 -0.0069  0.0950
 8419TIP3   OH246747   3.828   1.585   3.778  0.3162  0.8164 -0.3453
 8419TIP3    H146748   3.860   1.560   3.864  0.0135 -0.7429 -0.6464
 8419TIP3    H246749   3.756   1.646   3.796 -0.7933 -0.6956  0.6015
 8420TIP3   OH246750   3.902   5.791  12.182  1.1075 -0.2615  0.3481
 8420TIP3    H146751   3.996   5.806  12.194  0.8357  0.0476  2.5354
 8420TIP3    H246752   3.886   5.706  12.222  0.8620 -1.7228 -2.5874
 8421TIP3   OH246753   6.521   1.564   0.131  0.3337 -0.3410 -0.2815
 8421TIP3    H146754   6.539   1.651   0.166 -0.2640 -0.3707  0.1258
 8421TIP3    H246755   6.568   1.504   0.189 -0.3664 -0.3675  0.2751
 8422TIP3   OH246756   5.343   4.469  15.766  0.2695 -0.1453 -0.5447
 8422TIP3    H146757   5.270   4.504  15.818  0.4229  0.5008 -0.7559
 8422TIP3    H246758   5.387   4.546  15.732  1.4414 -0.5103  0.0936
 8423TIP3   OH246759   3.737   2.755   1.494 -0.4127  0.2539  0.0985
 8423TIP3    H146760   3.831   2.738   1.495 -0.4965 -0.3843 -1.0465
 8423TIP3    H246761   3.727   2.836   1.543  0.8310  0.7642 -0.4385
 8424TIP3   OH246762   6.645   6.242  10.530 -0.2067  0.3054  0.0859
 8424TIP3    H146763   6.625   6.283  10.614 -0.3072  3.0993 -1.1806
 8424TIP3    H246764   6.731   6.277  10.506  0.6344 -1.8275 -0.2310
 8425TIP3   OH246765   0.061   6.162  14.284 -0.0064 -0.2994  0.0075
 8425TIP3    H146766   0.100   6.192  14.365  0.8878 -0.9986 -0.1558
 8425TIP3    H246767  -0.017   6.113  14.311 -0.8420  1.1480  0.3254
 8426TIP3   OH246768   0.323   1.310   5.158  0.5695 -0.2730  0.1146
 8426TIP3    H146769   0.248   1.367   5.179 -0.9868 -1.8504 -0.8773
 8426TIP3    H246770   0.325   1.245   5.228  0.8058 -0.4338 -0.0399
 8427TIP3   OH246771   1.031   3.682  13.584  0.5273 -0.1952 -0.1962
 8427TIP3    H146772   1.008   3.606  13.531  0.4282 -1.2315  1.2468
 8427TIP3    H246773   0.951   3.733  13.588  0.3174 -0.5010 -0.4232
 8428TIP3   OH246774   2.587   1.547   5.696  0.2523  0.3610 -0.1657
 8428TIP3    H146775   2.567   1.556   5.603 -2.6594  0.6511  0.3720
 8428TIP3    H246776   2.584   1.636   5.730  0.0114  0.1411  0.4088
 8429TIP3   OH246777   2.649   2.472   0.381  0.3170 -0.4619  0.0958
 8429TIP3    H146778   2.611   2.556   0.409 -1.1377 -0.1008 -2.6674
 8429TIP3    H246779   2.727   2.463   0.436  1.1135  3.2008 -0.1187
 8430TIP3   OH246780   0.003   3.549  16.646 -0.0702  0.0271 -0.5585
 8430TIP3    H146781  -0.086   3.583  16.661 -0.2312 -0.4525 -0.3941
 8430TIP3    H246782  -0.001   3.511  16.558  0.2189  0.7673 -0.8987
 8431TIP3   OH246783   2.236   4.262  10.646  0.0023 -0.0160  0.3101
 8431TIP3    H146784   2.299   4.192  10.630  0.1896 -0.2600  1.9550
 8431TIP3    H246785   2.290   4.336  10.677 -0.5532 -0.5378  2.6733
 8432TIP3   OH246786   4.137   5.327   4.687 -0.2935 -0.1889  0.0751
 8432TIP3    H146787   4.206   5.342   4.623 -1.0248 -0.3965 -0.7761
 8432TIP3    H246788   4.147   5.236   4.713 -2.1401 -1.1705 -2.3840
 8433TIP3   OH246789   6.765   2.713   0.463  0.0803 -0.5960 -0.3320
 8433TIP3    H146790   6.769   2.648   0.392  0.1468 -0.3463 -0.5567
 8433TIP3    H246791   6.721   2.667   0.535  0.0829 -0.8752 -0.5088
 8434TIP3   OH246792   2.692   0.473   5.701  0.0015  0.2555  0.2573
 8434TIP3    H146793   2.616   0.437   5.656  0.9607 -0.0752 -1.1464
 8434TIP3    H246794   2.744   0.397   5.725  0.0875  0.5026  0.8746
 8435TIP3   OH246795   5.592   6.086  15.274 -0.2686  0.4198 -0.0901
 8435TIP3    H146796   5.606   5.994  15.295 -1.0099  0.1795 -0.6418
 8435TIP3    H246797   5.571   6.127  15.357 -1.4558 -0.2033 -0.0624
 8436TIP3   OH246798   6.780   3.195   0.367  0.2656 -0.2616  0.5009
 8436TIP3    H146799   6.684   3.194   0.367  0.2366  0.4712 -0.8067
 8436TIP3    H246800   6.804   3.232   0.282  1.7107  0.4778  1.1951
 8437TIP3   OH246801   2.822   5.956  10.523 -0.1900 -0.6200 -0.5305
 8437TIP3    H146802   2.779   6.039  10.503  0.3165  0.5508  2.7422
 8437TIP3    H246803   2.756   5.890  10.503 -0.7341  0.5291 -2.8417
 8438TIP3   OH246804   6.208   0.807  12.362 -0.2671 -0.2145  0.3541
 8438TIP3    H146805   6.259   0.841  12.436 -2.4693 -2.5646  3.2128
 8438TIP3    H246806   6.230   0.714  12.359 -0.6877 -0.2909 -1.6440
 8439TIP3   OH246807   1.727   6.121  14.965 -0.3653 -0.1023 -1.1031
 8439TIP3    H146808   1.799   6.103  15.025 -1.3302  2.3475  1.0086
 8439TIP3    H246809   1.661   6.055  14.986  0.1371 -0.5799 -1.0078
 8440TIP3   OH246810   4.879   5.333  12.127 -0.2464  0.3306  0.4388
 8440TIP3    H146811   4.962   5.285  12.120 -0.3787  0.0871  0.5035
 8440TIP3    H246812   4.813   5.264  12.141 -0.5408  0.4680 -0.2339
 8441TIP3   OH246813   0.021   3.670   1.331  0.6749  0.1343  0.8111
 8441TIP3    H146814   0.014   3.578   1.306 -1.0255  0.3191  0.4452
 8441TIP3    H246815   0.035   3.669   1.425  1.6869 -0.5108  0.6604
 8442TIP3   OH246816   4.964   1.047  12.368 -0.0706 -0.0215  0.0843
 8442TIP3    H146817   4.872   1.060  12.391  0.4357  0.6540  1.8491
 8442TIP3    H246818   4.985   1.121  12.310 -0.6317 -0.2020 -0.3575
 8443TIP3   OH246819   6.441   3.981  11.375  0.0356  0.1641 -0.1225
 8443TIP3    H146820   6.376   3.964  11.306  1.3040  0.5855 -1.4718
 8443TIP3    H246821   6.466   3.894  11.405  0.1133 -0.0654 -0.8253
 8444TIP3   OH246822   4.642   1.399  13.074  0.3112 -0.2214  0.0388
 8444TIP3    H146823   4.691   1.454  13.013  0.8268 -1.4568 -0.7105
 8444TIP3    H246824   4.553   1.397  13.039  0.7249 -1.3533 -1.0238
 8445TIP3   OH246825   3.549   0.739  14.292 -0.2001 -0.4261  0.1557
 8445TIP3    H146826   3.474   0.798  14.281  0.6427  1.1981  2.4041
 8445TIP3    H246827   3.510   0.654  14.313 -1.4235  0.0627 -0.0730
 8446TIP3   OH246828   5.338   3.839   2.568 -0.5218  0.0458  0.5979
 8446TIP3    H146829   5.426   3.871   2.545 -1.7576  1.8521 -2.0576
 8446TIP3    H246830   5.317   3.885   2.649  0.8920 -0.3775  1.2577
 8447TIP3   OH246831   4.549   5.789  16.002 -0.2370 -0.0996 -0.0483
 8447TIP3    H146832   4.618   5.753  15.946 -0.2068  0.6554 -0.5221
 8447TIP3    H246833   4.547   5.882  15.979 -2.1998 -0.3024 -0.8987
 8448TIP3   OH246834   2.804   2.442   5.693 -0.0488 -0.1780 -0.1947
 8448TIP3    H146835   2.739   2.405   5.633  0.1483  0.1025 -0.5899
 8448TIP3    H246836   2.847   2.366   5.731  0.1251 -0.3649 -0.7485
 8449TIP3   OH246837   6.541   3.632   5.062  0.1018 -0.3159 -0.2239
 8449TIP3    H146838   6.482   3.682   5.119 -1.8884 -1.2622 -1.3576
 8449TIP3    H246839   6.628   3.655   5.093 -0.7294  2.7259  0.2837
 8450TIP3   OH246840   2.694   2.329  13.417 -0.2963 -0.4396  0.5399
 8450TIP3    H146841   2.604   2.308  13.390 -0.1603 -1.1611  0.6161
 8450TIP3    H246842   2.698   2.303  13.509  0.1151 -0.8288  0.4142
 8451TIP3   OH246843   3.876   0.406  11.419 -0.1063 -0.9674 -0.1594
 8451TIP3    H146844   3.794   0.363  11.396 -0.6803  0.9902 -2.0554
 8451TIP3    H246845   3.928   0.404  11.338  1.6758 -1.9276  0.9205
 8452TIP3   OH246846   5.564   4.495  14.691  0.0830 -0.6899 -0.6941
 8452TIP3    H146847   5.475   4.511  14.662 -0.3266 -1.6839 -0.0546
 8452TIP3    H246848   5.587   4.410  14.655  0.9455 -0.2446 -1.2244
 8453TIP3   OH246849   5.870   4.267  11.649 -0.3774  0.1360 -0.4413
 8453TIP3    H146850   5.895   4.307  11.566  0.3768 -0.9767 -0.7648
 8453TIP3    H246851   5.858   4.174  11.629  0.5939 -0.2967  0.8466
 8454TIP3   OH246852   3.950   4.904  16.775 -0.4177  0.0172 -0.3598
 8454TIP3    H146853   3.990   4.990  16.761 -0.6304  0.2106  0.2041
 8454TIP3    H246854   3.932   4.900  16.869 -3.8759  0.9191 -0.8193
 8455TIP3   OH246855   1.745   6.437   3.081 -0.0788  0.0140  0.1514
 8455TIP3    H146856   1.699   6.387   3.014 -0.5617  0.9835 -0.2642
 8455TIP3    H246857   1.805   6.374   3.121  0.6185 -0.4773 -1.5614
 8456TIP3   OH246858   5.140   1.177   3.682 -0.3787 -0.5992  0.4602
 8456TIP3    H146859   5.218   1.177   3.738 -0.3779  1.4014  0.5226
 8456TIP3    H246860   5.084   1.244   3.720 -0.2503  1.0388 -2.0817
 8457TIP3   OH246861   2.525   4.496  16.201 -0.2275 -0.8808  0.1108
 8457TIP3    H146862   2.448   4.502  16.145  0.0603  0.1635 -0.1908
 8457TIP3    H246863   2.491   4.501  16.290 -0.7386 -3.0570  0.1027
 8458TIP3   OH246864   1.736   3.693  16.300 -0.0225  0.7141  0.0739
 8458TIP3    H146865   1.736   3.662  16.209 -1.9184  0.5045  0.1046
 8458TIP3    H246866   1.648   3.674  16.332  0.8301  0.0846  2.2235
 8459TIP3   OH246867   1.560   5.447   0.751  0.4152 -0.2661  0.9169
 8459TIP3    H146868   1.488   5.506   0.727 -0.4763 -2.2623 -1.9067
 8459TIP3    H246869   1.571   5.459   0.845 -2.2142  1.6195  1.0994
 8460TIP3   OH246870   4.549   4.847  10.404  0.1203  1.4111 -0.2308
 8460TIP3    H146871   4.641   4.835  10.430 -0.0944  0.0673 -0.0473
 8460TIP3    H246872   4.501   4.852  10.486 -0.3130 -0.8825 -0.2755
 8461TIP3   OH246873   5.644   2.016  13.198 -0.1024 -0.4653 -0.0210
 8461TIP3    H146874   5.734   1.992  13.175  0.6198 -0.2620  2.3084
 8461TIP3    H246875   5.612   2.065  13.122  1.6860 -0.6888 -0.9743
 8462TIP3   OH246876   0.064   2.770  13.075 -0.8161  0.5713  0.3182
 8462TIP3    H146877   0.048   2.692  13.128 -1.4087  1.4430  1.4774
 8462TIP3    H246878   0.105   2.831  13.136 -0.8417  1.3580 -0.4386
 8463TIP3   OH246879   5.307   4.563   0.864 -0.2648 -0.1909  0.0993
 8463TIP3    H146880   5.298   4.598   0.775 -0.3219 -0.4749 -0.0067
 8463TIP3    H246881   5.232   4.600   0.912 -1.2279 -1.3901 -0.4132
 8464TIP3   OH246882   4.553   4.269  16.800  0.1146 -0.1740  0.4664
 8464TIP3    H146883   4.600   4.218  16.734  0.6006  0.4269  0.3341
 8464TIP3    H246884   4.469   4.291  16.758 -0.3828 -1.4136  0.7800
 8465TIP3   OH246885   2.476   2.689  11.836 -0.0933  0.6547  0.2540
 8465TIP3    H146886   2.553   2.735  11.803 -0.2497  1.3716  0.8523
 8465TIP3    H246887   2.421   2.758  11.874  0.3498 -0.1453  2.5242
 8466TIP3   OH246888   0.191   2.807   3.266 -0.2894 -0.2304 -0.5507
 8466TIP3    H146889   0.101   2.839   3.264  0.0949  0.8519 -1.9621
 8466TIP3    H246890   0.193   2.747   3.341 -2.3852 -0.9102 -0.9484
 8467TIP3   OH246891   1.588   6.040  13.929  0.4338 -0.0732  0.2580
 8467TIP3    H146892   1.663   5.981  13.941  1.1333  0.8052  0.3069
 8467TIP3    H246893   1.564   6.066  14.018  1.6461  1.5526  0.1479
 8468TIP3   OH246894   0.404   5.799  16.869  0.0435 -0.1363  0.7365
 8468TIP3    H146895   0.411   5.770  16.778 -0.5753  0.3709  0.5180
 8468TIP3    H246896   0.490   5.836  16.889  0.5499 -1.2790  0.7394
 8469TIP3   OH246897   1.850   0.977  15.499  0.1596 -0.2801 -0.0535
 8469TIP3    H146898   1.886   0.903  15.547  0.9207  0.2566  0.2219
 8469TIP3    H246899   1.756   0.975  15.519  0.5612  0.4552  2.2568
 8470TIP3   OH246900   3.143   4.074  14.759  0.1962 -0.1637 -0.5997
 8470TIP3    H146901   3.072   4.117  14.712  0.2847 -1.3546 -1.8769
 8470TIP3    H246902   3.108   3.989  14.783  0.5834 -0.0498  0.4301
 8471TIP3   OH246903   0.122   3.653   1.608  0.2755 -0.5588 -0.0380
 8471TIP3    H146904   0.035   3.666   1.647 -0.2872 -4.2725  0.3270
 8471TIP3    H246905   0.183   3.667   1.680 -0.2141 -0.2342  0.3186
 8472TIP3   OH246906   6.633   5.869   0.608  0.3713  0.0056 -0.1927
 8472TIP3    H146907   6.701   5.860   0.541  0.1408  0.4869 -0.4959
 8472TIP3    H246908   6.587   5.949   0.585 -1.4242 -1.1991 -1.0060
 8473TIP3   OH246909   0.975   5.769  12.026  0.8462  0.5047 -0.1443
 8473TIP3    H146910   0.992   5.813  12.110 -0.6859  1.2829 -0.2068
 8473TIP3    H246911   0.921   5.831  11.977  0.8044 -0.3973 -1.2710
 8474TIP3   OH246912   4.545   4.671  14.578  0.2311 -0.2240 -0.6084
 8474TIP3    H146913   4.616   4.704  14.634 -0.8523  1.2817 -0.0308
 8474TIP3    H246914   4.481   4.742  14.578 -1.7440 -1.9152 -0.2845
 8475TIP3   OH246915   5.175   0.125  11.561  0.3463 -0.6928 -0.4438
 8475TIP3    H146916   5.157   0.133  11.467  0.7232  0.1019 -0.4516
 8475TIP3    H246917   5.270   0.112  11.565  0.2354 -1.4659 -0.2102
 8476TIP3   OH246918   6.400   6.633   5.449 -0.1623 -0.2343 -0.6677
 8476TIP3    H146919   6.475   6.685   5.418  0.8658 -0.8861  0.6267
 8476TIP3    H246920   6.428   6.542   5.438  0.7761 -0.5444  3.1116
 8477TIP3   OH246921   1.355   4.489   5.918 -0.4563 -0.0574 -0.3531
 8477TIP3    H146922   1.384   4.579   5.901  1.2104 -0.7093 -1.1524
 8477TIP3    H246923   1.406   4.461   5.994 -0.8527 -0.3795 -0.2029
 8478TIP3   OH246924   6.205   4.914   5.183  0.1090  0.0839 -0.2483
 8478TIP3    H146925   6.291   4.894   5.221  0.0781 -0.0842 -0.2632
 8478TIP3    H246926   6.219   4.907   5.088 -0.3361 -1.7563 -0.2178
 8479TIP3   OH246927   4.441   5.132  12.080 -0.5461  0.0495 -0.6278
 8479TIP3    H146928   4.441   5.217  12.124 -0.5773  1.0391 -2.4679
 8479TIP3    H246929   4.350   5.104  12.081 -0.4246 -0.3737  0.6819
 8480TIP3   OH246930   4.364   6.625  17.186 -0.4760 -0.5682 -0.1935
 8480TIP3    H146931   4.314   6.694  17.144  2.8901  2.8425  0.9007
 8480TIP3    H246932   4.454   6.641  17.160  1.1175 -1.4462  3.9889
 8481TIP3   OH246933   1.015   1.356   2.197 -0.2374  0.0601  0.4418
 8481TIP3    H146934   0.959   1.419   2.243 -1.6507 -0.9366  0.1565
 8481TIP3    H246935   0.954   1.307   2.142  0.6437 -2.2832  1.4559
 8482TIP3   OH246936   0.166   6.215   6.015  0.5436  0.3262  0.3401
 8482TIP3    H146937   0.151   6.299   6.059 -0.9604  0.0675  0.3569
 8482TIP3    H246938   0.212   6.238   5.935 -0.1714  1.2117  0.1709
 8483TIP3   OH246939   0.649   6.124   5.289 -0.2751 -0.1593  0.0578
 8483TIP3    H146940   0.698   6.047   5.261  1.4276  0.1407  1.9988
 8483TIP3    H246941   0.594   6.093   5.361 -2.7645 -0.3953 -1.8261
 8484TIP3   OH246942   0.558   0.824  13.683 -0.0015  0.0012  0.3313
 8484TIP3    H146943   0.615   0.765  13.733 -0.8627 -1.4561 -0.3354
 8484TIP3    H246944   0.618   0.869  13.623  0.5595 -0.9913  0.1208
 8485TIP3   OH246945   5.267   2.222  14.687  0.2769 -0.1178  0.5123
 8485TIP3    H146946   5.332   2.292  14.691 -0.6520  0.9008 -0.9937
 8485TIP3    H246947   5.314   2.147  14.652  0.5445  0.7702 -1.1127
 8486TIP3   OH246948   2.947   0.093  13.044 -0.0730  0.1404  0.8404
 8486TIP3    H146949   2.977   0.181  13.068 -1.7252  0.6164  1.2816
 8486TIP3    H246950   2.927   0.099  12.950  0.3304  0.0629  0.7449
 8487TIP3   OH246951   5.034   2.970   6.338  0.6064 -0.2920  0.6796
 8487TIP3    H146952   5.038   2.970   6.242  4.5551  1.7623  0.6325
 8487TIP3    H246953   4.975   2.897   6.359 -0.3809 -0.8896 -3.2481
 8488TIP3   OH246954   4.763   3.079  17.202 -0.5073  0.2926  0.0401
 8488TIP3    H146955   4.709   3.069  17.124 -1.4576 -0.3402  0.7560
 8488TIP3    H246956   4.828   3.009  17.196  0.2797  1.0613 -0.8259
 8489TIP3   OH246957   1.029   4.614   2.494 -0.0951  0.2266 -0.1827
 8489TIP3    H146958   1.039   4.633   2.587 -2.5118  2.1063 -0.2199
 8489TIP3    H246959   1.102   4.658   2.452 -0.1283  1.1002  0.6621
 8490TIP3   OH246960   2.810   5.956   0.321 -0.4667  0.0377 -0.0285
 8490TIP3    H146961   2.840   6.027   0.377 -2.9564  1.6926 -0.6235
 8490TIP3    H246962   2.842   5.979   0.234  0.7421 -0.8905  0.1400
 8491TIP3   OH246963   5.126   5.150   1.115 -0.2753 -0.7741  0.2793
 8491TIP3    H146964   5.176   5.093   1.056  1.3476 -0.9431  1.7471
 8491TIP3    H246965   5.170   5.143   1.199 -1.3663  0.9679  1.0622
 8492TIP3   OH246966   0.330   3.772   0.674  0.2993 -0.2006  0.5940
 8492TIP3    H146967   0.269   3.703   0.646 -0.7420  0.6340  0.7687
 8492TIP3    H246968   0.275   3.848   0.689  1.5911  1.1552 -1.0881
 8493TIP3   OH246969   0.811   3.020  13.855 -0.2306  0.0074 -0.9329
 8493TIP3    H146970   0.716   3.005  13.856 -0.1890 -0.4953  1.5622
 8493TIP3    H246971   0.845   2.960  13.921  1.4651  2.2463  0.3630
 8494TIP3   OH246972   0.833   4.926   5.401  0.2695  0.0877 -0.5638
 8494TIP3    H146973   0.903   4.886   5.350  0.1957 -1.7080  0.6752
 8494TIP3    H246974   0.765   4.946   5.337  0.4152 -1.5641 -1.2756
 8495TIP3   OH246975   6.239   0.098   0.899 -0.2319  0.6720 -0.1527
 8495TIP3    H146976   6.275   0.154   0.967  1.0883 -0.9224  0.5245
 8495TIP3    H246977   6.152   0.073   0.931  0.1816  0.3297  0.7321
 8496TIP3   OH246978   0.171   3.687   5.805 -0.4595  0.8624  0.4845
 8496TIP3    H146979   0.092   3.634   5.812 -0.7051  0.6811 -2.5434
 8496TIP3    H246980   0.221   3.649   5.733  3.1391  0.1817  3.0433
 8497TIP3   OH246981   4.680   4.867   5.749 -0.5458 -0.0973  0.0013
 8497TIP3    H146982   4.748   4.803   5.727 -0.3106 -0.1359  0.8097
 8497TIP3    H246983   4.716   4.915   5.823 -1.4414 -0.1711  0.4959
 8498TIP3   OH246984   5.567   3.552   0.036 -0.4373  1.0703 -0.1057
 8498TIP3    H146985   5.564   3.457   0.047  0.0363  0.9228 -1.1247
 8498TIP3    H246986   5.514   3.586   0.107  0.9895  0.1415  1.4636
 8499TIP3   OH246987   1.148   5.080   5.203 -0.8632 -0.2079 -0.1564
 8499TIP3    H146988   1.213   5.068   5.272 -0.0432 -0.3300 -0.9325
 8499TIP3    H246989   1.164   5.008   5.142 -1.3968  0.0489 -0.6105
 8500TIP3   OH246990   2.816   0.227  12.838 -0.6142  0.6891 -0.1701
 8500TIP3    H146991   2.737   0.213  12.785 -0.6203  0.7334 -0.1730
 8500TIP3    H246992   2.794   0.299  12.896 -1.0726 -0.2368  0.8318
 8501TIP3   OH246993   0.587   2.309  16.523 -0.6988 -0.4294  0.3180
 8501TIP3    H146994   0.518   2.319  16.588 -0.5911 -1.7552  0.6590
 8501TIP3    H246995   0.545   2.330  16.439 -0.6600  2.0070  0.8212
 8502TIP3   OH246996   2.613   5.300   2.028 -0.4468 -0.2904 -0.8091
 8502TIP3    H146997   2.695   5.344   2.050 -1.1818 -0.8397  4.3582
 8502TIP3    H246998   2.570   5.357   1.965  0.6655  4.0863  2.0042
 8503TIP3   OH246999   4.045   3.684  10.532 -0.2267  0.0655 -0.1755
 8503TIP3    H147000   3.987   3.708  10.604 -0.3357 -1.2462  0.2101
 8503TIP3    H247001   4.072   3.767  10.494 -0.3784  0.7842  1.2141
 8504TIP3   OH247002   5.721   5.922  17.042 -0.0750  0.3954  0.0342
 8504TIP3    H147003   5.760   5.969  17.115 -0.2227 -0.5226  0.7250
 8504TIP3    H247004   5.627   5.922  17.061  0.0238 -1.2019  0.6985
 8505TIP3   OH247005   3.540   3.451   5.448  0.5400  0.3187 -0.0331
 8505TIP3    H147006   3.460   3.497   5.474  0.7532  0.9766 -0.5052
 8505TIP3    H247007   3.535   3.367   5.493 -0.3702  0.3888  0.0157
 8506TIP3   OH247008   5.684   0.269  16.175 -0.4706  0.4563 -0.2601
 8506TIP3    H147009   5.673   0.207  16.247  2.1141 -0.2559 -0.3578
 8506TIP3    H247010   5.633   0.345  16.201 -3.1469 -1.3610  0.2169
 8507TIP3   OH247011   3.637   5.679   6.242 -0.4285 -0.1234 -0.1567
 8507TIP3    H147012   3.568   5.629   6.286 -0.9946 -0.1484 -1.0407
 8507TIP3    H247013   3.612   5.770   6.254 -2.2512 -0.1257 -2.8519
 8508TIP3   OH247014   5.156   2.694  11.316  0.7861  0.2423  0.0712
 8508TIP3    H147015   5.142   2.659  11.228  1.8508 -1.2138  0.4373
 8508TIP3    H247016   5.110   2.632  11.374 -0.4131  1.5107  0.5322
 8509TIP3   OH247017   3.952   4.078   1.882 -0.0299 -0.3164  0.4515
 8509TIP3    H147018   4.016   4.032   1.827  0.3810 -0.0873  0.7426
 8509TIP3    H247019   4.004   4.135   1.938 -0.5435  0.5446  0.0650
 8510TIP3   OH247020   5.381   0.850  10.776  0.2891 -0.2785 -0.6490
 8510TIP3    H147021   5.396   0.906  10.700 -1.0287  1.3247  0.2192
 8510TIP3    H247022   5.437   0.888  10.845  1.9298 -2.0630 -0.8968
 8511TIP3   OH247023   2.082   3.216  11.621  0.4433  0.1855 -0.2221
 8511TIP3    H147024   2.028   3.197  11.698 -0.2019 -1.5906 -1.0547
 8511TIP3    H247025   2.050   3.155  11.554  1.9282  0.7143 -1.4649
 8512TIP3   OH247026   1.165   4.763  16.721 -0.8951  1.0537 -0.2884
 8512TIP3    H147027   1.151   4.737  16.812  0.0852 -0.5525 -0.5550
 8512TIP3    H247028   1.169   4.680  16.672  1.3168  1.6904 -1.3536
 8513TIP3   OH247029   5.222   2.672   4.876  0.5549  0.1092  0.1436
 8513TIP3    H147030   5.275   2.751   4.891  1.1124 -0.2805  0.2939
 8513TIP3    H247031   5.157   2.698   4.812 -1.2580  1.5846  2.4232
 8514TIP3   OH247032   5.396   5.213  12.287  0.1596 -0.0436 -0.2772
 8514TIP3    H147033   5.304   5.191  12.304  0.0899  0.6516  0.3473
 8514TIP3    H247034   5.416   5.279  12.353  1.6282 -1.4372  0.7420
 8515TIP3   OH247035   1.867   3.375   5.171 -0.3640  0.2375  0.4444
 8515TIP3    H147036   1.797   3.333   5.221  0.3671  1.0679  2.2398
 8515TIP3    H247037   1.928   3.407   5.237  0.1961  2.1820 -0.9168
 8516TIP3   OH247038   5.138   0.084  14.247  0.0592  0.0606  0.3991
 8516TIP3    H147039   5.161  -0.007  14.268 -0.7395 -0.4123 -0.7165
 8516TIP3    H247040   5.065   0.077  14.186  1.9514  1.3417 -2.2320
 8517TIP3   OH247041   0.294   1.019  14.138 -0.1851  0.6247  0.6717
 8517TIP3    H147042   0.336   1.025  14.052  0.0043 -0.1708  0.7022
 8517TIP3    H247043   0.220   0.961  14.125 -0.6499  1.1688  0.8645
 8518TIP3   OH247044   4.988   5.289   6.176 -0.8340  0.3535  0.9295
 8518TIP3    H147045   5.062   5.263   6.231  0.0387 -0.6798 -0.6664
 8518TIP3    H247046   5.018   5.367   6.129 -0.3542 -0.6416 -0.4617
 8519TIP3   OH247047   0.194   1.447   1.667  0.2377  0.0314  0.0692
 8519TIP3    H147048   0.167   1.501   1.741  2.2271  1.4664 -0.1620
 8519TIP3    H247049   0.273   1.403   1.697 -0.2647 -1.2551 -0.4312
 8520TIP3   OH247050   1.841   0.601   3.336  0.1095 -0.8021 -0.8160
 8520TIP3    H147051   1.923   0.638   3.369 -1.1350  1.8902 -0.5283
 8520TIP3    H247052   1.788   0.586   3.415 -0.7938  0.3844 -1.1742
 8521TIP3   OH247053   2.027   2.121   5.325  0.1442  0.2271 -0.3303
 8521TIP3    H147054   2.072   2.048   5.282 -0.1267  0.8545 -1.7039
 8521TIP3    H247055   2.039   2.195   5.266  1.5201  1.6702  1.6332
 8522TIP3   OH247056   2.444   2.678   5.179 -0.1095  0.1181  0.2228
 8522TIP3    H147057   2.532   2.701   5.210  0.0739  0.0703 -0.2660
 8522TIP3    H247058   2.387   2.738   5.227  0.2597  0.7244 -0.0722
 8523TIP3   OH247059   2.305   6.388  13.436  0.4299 -0.2152 -0.3573
 8523TIP3    H147060   2.300   6.318  13.501 -0.2237 -0.3624 -0.5597
 8523TIP3    H247061   2.238   6.365  13.371 -1.7234  1.9239  0.9070
 8524TIP3   OH247062   6.376   2.952  17.142  0.1499  0.4626  0.3017
 8524TIP3    H147063   6.357   2.956  17.236 -0.8853 -0.8479  0.1897
 8524TIP3    H247064   6.464   2.989  17.133  0.3741  0.3570  1.8193
 8525TIP3   OH247065   6.213   0.599  14.343 -0.2622 -0.2880  0.1694
 8525TIP3    H147066   6.214   0.684  14.299  2.2013 -0.3304  0.0015
 8525TIP3    H247067   6.171   0.540  14.281 -2.1288  0.7894  0.3436
 8526TIP3   OH247068   5.482   6.368  12.565  0.4999  0.0185  0.3751
 8526TIP3    H147069   5.396   6.353  12.603  0.3601 -0.1215  0.0057
 8526TIP3    H247070   5.543   6.358  12.639  0.6450 -4.4127 -0.0521
 8527TIP3   OH247071   5.658   1.370  13.357  0.2019 -0.1757 -0.0813
 8527TIP3    H147072   5.619   1.286  13.335 -1.1522  0.3191  0.3010
 8527TIP3    H247073   5.628   1.430  13.289 -1.0131  0.5472  1.0281
 8528TIP3   OH247074   2.327   0.432  14.364 -0.4279  0.2673 -0.0453
 8528TIP3    H147075   2.282   0.471  14.290  3.0956  0.9544 -2.0680
 8528TIP3    H247076   2.316   0.337  14.352 -0.2679  0.3831 -1.2189
 8529TIP3   OH247077   5.096   5.471  11.208 -0.0313  0.3927  0.0480
 8529TIP3    H147078   5.090   5.375  11.215  1.2594  0.1449 -1.6655
 8529TIP3    H247079   5.172   5.486  11.152  0.5702  2.4839  1.3301
 8530TIP3   OH247080   0.505   3.447  14.617 -0.7267  0.1508 -0.1121
 8530TIP3    H147081   0.450   3.487  14.550 -0.9145 -2.0762 -1.3788
 8530TIP3    H247082   0.568   3.393  14.569  0.1543 -0.3027  1.4399
 8531TIP3   OH247083   2.400   1.262   5.014 -0.3487  0.3229  0.3603
 8531TIP3    H147084   2.485   1.259   4.970 -0.2260  0.4283  0.5891
 8531TIP3    H247085   2.394   1.350   5.049 -0.8952  0.5670 -0.3242
 8532TIP3   OH247086   0.045   4.967   1.349  0.1366  0.5051  0.3375
 8532TIP3    H147087   0.048   4.972   1.254 -1.6458 -0.0422  0.2326
 8532TIP3    H247088   0.122   5.017   1.378  1.0108  0.2092 -1.3819
 8533TIP3   OH247089   1.591   1.344  11.019  0.1984 -0.1181  0.2298
 8533TIP3    H147090   1.508   1.372  10.980  0.1388  1.4686  1.3888
 8533TIP3    H247091   1.619   1.270  10.966 -0.4679  1.1701 -2.0183
 8534TIP3   OH247092   5.316   1.020  15.308  0.1764  0.0813 -0.3193
 8534TIP3    H147093   5.358   0.958  15.247 -0.5800  0.1107 -0.8893
 8534TIP3    H247094   5.378   1.093  15.313  1.5559 -1.1199  1.1413
 8535TIP3   OH247095   2.231   6.422   2.805  0.2988  0.1581 -0.4461
 8535TIP3    H147096   2.185   6.339   2.817  2.6912 -1.5592 -2.3277
 8535TIP3    H247097   2.183   6.467   2.736 -0.0606 -0.3964 -0.5571
 8536TIP3   OH247098   3.726   0.594   4.074  0.4472  0.4725  0.2701
 8536TIP3    H147099   3.675   0.673   4.058 -0.0873  0.1077  0.1485
 8536TIP3    H247100   3.697   0.564   4.160  0.2532  0.1136  0.0816
 8537TIP3   OH247101   0.273   4.458  13.946 -0.4476 -0.2111 -0.0961
 8537TIP3    H147102   0.262   4.421  13.858  1.9050 -0.4531 -0.3705
 8537TIP3    H247103   0.254   4.551  13.936 -0.9854 -0.3795 -0.6869
 8538TIP3   OH247104   2.654   0.959   4.284  0.0372  0.0596 -0.2243
 8538TIP3    H147105   2.684   0.929   4.370 -1.3660 -0.5726  0.0688
 8538TIP3    H247106   2.680   1.051   4.280 -1.2508  0.5600  1.5496
 8539TIP3   OH247107   0.810   6.511   2.798 -0.0124 -0.0883 -0.0467
 8539TIP3    H147108   0.720   6.543   2.802  0.2517  0.7937 -0.8857
 8539TIP3    H247109   0.848   6.538   2.882 -0.7775 -1.3201  0.7369
 8540TIP3   OH247110   2.623   4.277   3.941  0.2709 -0.2492  0.1372
 8540TIP3    H147111   2.589   4.252   3.855 -2.1997 -1.4307  1.3542
 8540TIP3    H247112   2.597   4.369   3.952 -1.9441 -0.8906  0.6890
 8541TIP3   OH247113   3.317   0.875  16.595  0.2365 -1.0995  0.2964
 8541TIP3    H147114   3.240   0.819  16.595 -0.6876  0.1296 -0.2364
 8541TIP3    H247115   3.335   0.893  16.687 -0.6971 -0.6164  0.3895
 8542TIP3   OH247116   2.207   4.068  17.014  0.1345  0.2445 -0.3655
 8542TIP3    H147117   2.153   4.088  16.937 -1.2331 -2.1296 -0.1183
 8542TIP3    H247118   2.167   3.990  17.051  1.7363  0.4084  1.8698
 8543TIP3   OH247119   5.229   4.688   0.259 -0.0825 -0.0774  0.0852
 8543TIP3    H147120   5.152   4.681   0.316  1.1558  0.4559  1.8993
 8543TIP3    H247121   5.223   4.775   0.221 -1.5174 -0.8362 -1.6061
 8544TIP3   OH247122   5.046   1.230   2.860  0.2164 -0.6899  0.4284
 8544TIP3    H147123   4.999   1.207   2.941  2.5808  0.1419  2.1602
 8544TIP3    H247124   5.119   1.168   2.857  0.5453 -0.2603 -0.7204
 8545TIP3   OH247125   1.524   5.003   3.275  0.1205 -0.4805  0.1067
 8545TIP3    H147126   1.462   4.968   3.210 -1.2598  1.5027  0.2830
 8545TIP3    H247127   1.610   4.992   3.234 -0.6673  0.2148 -1.8421
 8546TIP3   OH247128   2.425   1.103   5.984  0.5748 -0.1940  0.3021
 8546TIP3    H147129   2.506   1.136   6.022 -0.1084 -0.6924  2.3099
 8546TIP3    H247130   2.431   1.125   5.891  1.6177  2.5271  0.9262
 8547TIP3   OH247131   2.710   6.305   4.992 -0.2413  0.5059  0.4036
 8547TIP3    H147132   2.671   6.245   5.055  1.7394 -1.8066 -0.4064
 8547TIP3    H247133   2.765   6.363   5.045  0.0889 -0.3097  0.9766
 8548TIP3   OH247134   2.797   3.248  13.328  0.1204 -0.1406 -1.2734
 8548TIP3    H147135   2.799   3.328  13.276 -0.5858  0.4178 -0.4795
 8548TIP3    H247136   2.748   3.272  13.407  2.1899 -0.6331  0.2289
 8549TIP3   OH247137   1.449   5.048  17.087 -0.0254  0.4143 -0.0373
 8549TIP3    H147138   1.481   4.976  17.141 -0.0476  0.4910  0.0787
 8549TIP3    H247139   1.507   5.121  17.108 -0.4459  0.6306  0.3792
 8550TIP3   OH247140   6.398   2.106   2.517 -0.0738  0.3874  0.1249
 8550TIP3    H147141   6.465   2.170   2.495  0.3615  0.1898  0.8521
 8550TIP3    H247142   6.383   2.117   2.611 -1.7421  1.0643 -0.1878
 8551TIP3   OH247143   4.128   4.328   4.814 -0.1471  0.1195 -0.9333
 8551TIP3    H147144   4.220   4.334   4.837 -0.5387  0.5870  0.5897
 8551TIP3    H247145   4.115   4.395   4.747  0.3248  0.9643 -0.1851
 8552TIP3   OH247146   4.339   2.170  12.127 -0.0749 -0.2913 -0.0774
 8552TIP3    H147147   4.321   2.257  12.163 -1.5373 -0.2557 -0.8275
 8552TIP3    H247148   4.286   2.111  12.180 -0.3425 -0.5245 -0.5969
 8553TIP3   OH247149   4.349   0.845   4.413 -0.4895  0.0442  0.1215
 8553TIP3    H147150   4.404   0.797   4.475  0.3943  1.6143  0.6102
 8553TIP3    H247151   4.341   0.786   4.338 -1.2398 -1.7353  1.4984
 8554TIP3   OH247152   2.602   0.023   6.067  0.4184  0.3631  0.3906
 8554TIP3    H147153   2.546  -0.021   6.131  0.4757  2.3039  1.8268
 8554TIP3    H247154   2.582   0.116   6.077  2.0295  0.8913 -0.9013
 8555TIP3   OH247155   4.861   4.898  16.863  0.0645  0.7653  0.3928
 8555TIP3    H147156   4.874   4.870  16.772 -0.7332  0.9684  0.2077
 8555TIP3    H247157   4.796   4.838  16.898  0.1959  0.8347  0.7578
 8556TIP3   OH247158   1.413   0.050   4.074  0.0755 -0.4072 -0.7760
 8556TIP3    H147159   1.355   0.089   4.008  3.3489  1.0974 -3.0141
 8556TIP3    H247160   1.456  -0.022   4.027 -0.2028 -1.7624  0.9604
 8557TIP3   OH247161   1.387   6.371   5.031 -0.3132 -0.9318 -0.4508
 8557TIP3    H147162   1.479   6.394   5.047 -0.0332 -1.1179 -1.6652
 8557TIP3    H247163   1.371   6.297   5.090  0.1396 -0.5201  0.1967
 8558TIP3   OH247164   5.572   4.961   1.262  0.2793 -0.7270 -0.0388
 8558TIP3    H147165   5.562   4.878   1.216 -0.3647 -0.5394 -0.2526
 8558TIP3    H247166   5.622   4.939   1.341  0.7403 -1.1830 -0.4500
 8559TIP3   OH247167   4.242   1.357   5.236  0.2496 -0.5962  0.0487
 8559TIP3    H147168   4.187   1.281   5.251 -1.7230  0.8335  0.5183
 8559TIP3    H247169   4.201   1.427   5.286  2.4919  0.6030  0.3592
 8560TIP3   OH247170   1.626   1.038   4.171 -0.1307  0.1069 -0.7743
 8560TIP3    H147171   1.717   1.036   4.199  0.0578 -2.7943 -1.3032
 8560TIP3    H247172   1.592   0.952   4.193 -2.7624  1.0933 -0.6616
 8561TIP3   OH247173   4.231   2.701  14.606 -0.0110  0.5267  0.4363
 8561TIP3    H147174   4.302   2.637  14.596 -0.0840  0.4309  0.5259
 8561TIP3    H247175   4.152   2.652  14.584  0.2871  1.7770 -4.4816
 8562TIP3   OH247176   4.609   1.502  11.580  0.2426 -0.2183  0.0489
 8562TIP3    H147177   4.563   1.558  11.517  0.6924 -1.5851 -1.5830
 8562TIP3    H247178   4.540   1.467  11.636 -0.0250  2.0705  1.2470
 8563TIP3   OH247179   6.011   5.300  14.208  0.0032 -0.1374 -0.2337
 8563TIP3    H147180   5.929   5.270  14.249  0.8576 -2.4558 -0.0501
 8563TIP3    H247181   5.986   5.328  14.120 -1.1507  0.3721  0.2406
 8564TIP3   OH247182   2.663   1.172   5.446  0.5794  0.2396 -0.2911
 8564TIP3    H147183   2.596   1.181   5.379  0.8249  1.3423 -0.4010
 8564TIP3    H247184   2.724   1.244   5.430  0.6820  0.4851  1.0592
 8565TIP3   OH247185   4.591   3.140  16.488 -0.4510 -0.1798 -0.3083
 8565TIP3    H147186   4.675   3.172  16.522 -1.4964 -0.1133  2.4473
 8565TIP3    H247187   4.597   3.045  16.497 -0.4348 -0.2342 -0.8182
 8566TIP3   OH247188   6.277   0.752   4.819 -0.5053  0.4224 -0.2429
 8566TIP3    H147189   6.265   0.745   4.914  2.3724  1.5355  0.3292
 8566TIP3    H247190   6.207   0.698   4.781 -1.8190  0.0469  2.4806
 8567TIP3   OH247191   5.866   1.900  16.388 -0.2291 -0.5314 -0.2235
 8567TIP3    H147192   5.894   1.880  16.477 -0.1138  0.1292 -0.1068
 8567TIP3    H247193   5.813   1.979  16.396  0.0693 -0.2634 -0.7732
 8568TIP3   OH247194   3.366   1.084   0.954  0.2338  0.3564 -0.3478
 8568TIP3    H147195   3.302   1.092   0.884 -3.7364 -1.2089  2.7414
 8568TIP3    H247196   3.388   0.991   0.957  0.6739  0.4677  0.2493
 8569TIP3   OH247197   4.714   5.446   5.057 -0.5962 -0.3277  0.2783
 8569TIP3    H147198   4.731   5.424   4.966  0.5438 -1.3918  0.7178
 8569TIP3    H247199   4.699   5.362   5.100 -2.4915  0.2443  0.8405
 8570TIP3   OH247200   5.089   4.982  13.463  0.2330 -0.5013 -0.5153
 8570TIP3    H147201   5.118   4.993  13.373  1.1548  1.6450 -0.0056
 8570TIP3    H247202   5.014   5.041  13.472 -0.6591 -1.6404 -0.1848
 8571TIP3   OH247203   5.619   1.881   1.112  0.8515  0.0213  0.0497
 8571TIP3    H147204   5.651   1.832   1.036  0.5385 -0.1156  0.0011
 8571TIP3    H247205   5.537   1.837   1.135  2.0375 -1.3693  1.8643
 8572TIP3   OH247206   3.426   3.538   0.507  0.2681  0.1405 -0.3867
 8572TIP3    H147207   3.498   3.540   0.443  0.5355 -1.4226 -0.1652
 8572TIP3    H247208   3.352   3.502   0.459  0.0479  0.3258 -0.1926
 8573TIP3   OH247209   3.445   0.005  11.255  0.2131  0.2027  0.8304
 8573TIP3    H147210   3.507  -0.068  11.258  0.3120  0.2927  0.9557
 8573TIP3    H247211   3.406  -0.001  11.168  0.0229 -0.1662  0.9357
 8574TIP3   OH247212   5.655   3.818   3.849  0.2287  0.6182  0.7307
 8574TIP3    H147213   5.657   3.726   3.822 -0.2416  0.5531  0.9018
 8574TIP3    H247214   5.746   3.846   3.848  0.2897  0.4117 -0.2112
 8575TIP3   OH247215   0.584   2.594  13.747  0.4760 -0.4580 -0.4107
 8575TIP3    H147216   0.603   2.677  13.702 -0.1132 -1.4081 -2.5236
 8575TIP3    H247217   0.668   2.549  13.751  0.2440 -1.1343 -2.2803
 8576TIP3   OH247218   5.042   0.674   5.194  0.1416 -0.2276 -0.1486
 8576TIP3    H147219   4.974   0.696   5.130 -1.3269 -0.4727  1.2357
 8576TIP3    H247220   5.067   0.758   5.232  1.8571  0.0561 -1.7742
 8577TIP3   OH247221   3.634   0.198  11.767  0.2118  1.1402 -0.3330
 8577TIP3    H147222   3.583   0.276  11.745  0.3459  0.9371 -1.4046
 8577TIP3    H247223   3.651   0.155  11.683  0.2255  0.0001  0.2300
 8578TIP3   OH247224   0.838   6.266   1.624 -0.4721 -0.0708  0.1502
 8578TIP3    H147225   0.748   6.299   1.618 -0.2734  0.4997  0.2337
 8578TIP3    H247226   0.875   6.313   1.699 -0.1983 -0.5344  0.3077
 8579TIP3   OH247227   5.819   3.039  16.792  0.3875  0.0015 -0.4051
 8579TIP3    H147228   5.855   3.015  16.707  0.7491  0.6825 -0.4521
 8579TIP3    H247229   5.724   3.035  16.780  0.4402 -1.2022 -0.4526
 8580TIP3   OH247230   0.912   6.282  10.993  0.4403  0.1763  0.2006
 8580TIP3    H147231   0.831   6.323  10.962  0.7297  2.0065  1.6503
 8580TIP3    H247232   0.960   6.259  10.914 -1.9018 -1.9246 -0.7195
 8581TIP3   OH247233   2.228   6.760   2.861  0.0066 -0.2019  0.5683
 8581TIP3    H147234   2.257   6.747   2.951 -0.3890  1.4082  0.9617
 8581TIP3    H247235   2.238   6.854   2.846 -0.2090 -0.3968 -0.9793
 8582TIP3   OH247236   6.261   3.074  16.445  0.9938  0.1107  0.2543
 8582TIP3    H147237   6.210   3.152  16.424  1.4338  0.1716 -0.6292
 8582TIP3    H247238   6.224   3.006  16.390  0.2927 -0.4502  1.3665
 8583TIP3   OH247239   4.502   5.202   0.967 -0.4427 -0.1292  0.0353
 8583TIP3    H147240   4.454   5.201   1.049  1.3759  2.0599  1.2203
 8583TIP3    H247241   4.589   5.233   0.990  1.2402 -2.7056 -2.2046
 8584TIP3   OH247242   4.562   5.842  17.010 -0.6618 -0.1349 -0.2699
 8584TIP3    H147243   4.536   5.897  16.937 -1.7444  1.7711  1.4551
 8584TIP3    H247244   4.499   5.862  17.079 -0.8342 -3.2549  0.6331
 8585TIP3   OH247245   2.336   0.043  15.472  0.1149 -0.2126 -0.3386
 8585TIP3    H147246   2.306  -0.035  15.518  1.4560  0.4149  1.7181
 8585TIP3    H247247   2.256   0.082  15.437 -0.7050 -1.8527 -0.4119
 8586TIP3   OH247248   4.079   4.416  10.184 -0.2336 -0.5406  0.1615
 8586TIP3    H147249   4.021   4.453  10.118  1.0020 -0.7775 -1.0998
 8586TIP3    H247250   4.054   4.323  10.189 -0.6094 -0.4300  0.3382
 8587TIP3   OH247251   5.958   2.239   3.174  0.6496  0.1434 -0.2267
 8587TIP3    H147252   5.997   2.309   3.228 -0.1888  0.5684 -0.1629
 8587TIP3    H247253   5.990   2.256   3.086  0.3423  0.6980 -0.2366
 8588TIP3   OH247254   1.006   4.493  13.770 -0.1918  0.2237 -0.0722
 8588TIP3    H147255   1.061   4.415  13.775 -0.2473  0.1868 -0.0474
 8588TIP3    H247256   0.998   4.524  13.860  0.4953  0.7167 -0.1767
 8589TIP3   OH247257   6.418   0.014  12.095  0.4592  0.7187  0.7029
 8589TIP3    H147258   6.364  -0.018  12.022  2.3224 -0.7343 -0.0972
 8589TIP3    H247259   6.358   0.016  12.169 -0.8975 -0.1290 -0.3171
 8590TIP3   OH247260   3.144   0.212  14.367  0.4982 -0.5585  0.3459
 8590TIP3    H147261   3.128   0.193  14.274  0.8618  0.1923  0.1216
 8590TIP3    H247262   3.239   0.218  14.374  0.4247  1.4848  0.3048
 8591TIP3   OH247263   0.619   1.025  10.836 -0.2019  0.0356  0.3942
 8591TIP3    H147264   0.577   1.040  10.751  0.8094 -0.7923 -0.2881
 8591TIP3    H247265   0.710   1.052  10.822 -0.2447  0.8234  1.5243
 8592TIP3   OH247266   3.737   1.601  11.638 -0.1002  0.0675  0.0049
 8592TIP3    H147267   3.699   1.643  11.560 -1.0179  1.9782  1.4152
 8592TIP3    H247268   3.669   1.542  11.669  1.1549 -2.6684 -1.9224
 8593TIP3   OH247269   2.435   1.916   0.414  0.9267 -0.2518  0.1511
 8593TIP3    H147270   2.516   1.866   0.428  1.0036 -0.2741 -0.3617
 8593TIP3    H247271   2.367   1.849   0.405  0.7258 -0.2208  1.2903
 8594TIP3   OH247272   4.906   3.336   5.332 -0.0418 -0.5559  0.1167
 8594TIP3    H147273   4.819   3.300   5.312  0.1165 -1.6715  1.3030
 8594TIP3    H247274   4.955   3.325   5.251 -0.5809 -1.2731 -0.1348
 8595TIP3   OH247275   6.543   0.172  11.855  0.6471  0.4507 -0.7787
 8595TIP3    H147276   6.498   0.253  11.831  1.7418  1.0549 -0.8778
 8595TIP3    H247277   6.474   0.113  11.885 -0.2399  1.1946 -1.3255
 8596TIP3   OH247278   4.739   2.949  14.005  0.2483  0.3369  0.1034
 8596TIP3    H147279   4.710   2.859  13.993 -0.1771  0.5383 -0.4028
 8596TIP3    H247280   4.668   2.992  14.051 -0.1088  0.7293 -0.7865
 8597TIP3   OH247281   4.338   3.922  16.466  0.1723 -0.6935  0.0804
 8597TIP3    H147282   4.374   3.841  16.429  1.6587  0.9827 -2.4312
 8597TIP3    H247283   4.299   3.895  16.549  0.6095 -3.9660 -0.6379
 8598TIP3   OH247284   2.167   4.539  15.586 -0.1027 -0.0167  0.0478
 8598TIP3    H147285   2.097   4.499  15.638 -0.2536 -0.6141 -0.6148
 8598TIP3    H247286   2.182   4.478  15.514  1.2543 -0.0044  0.2952
 8599TIP3   OH247287   2.188   0.258  15.675  0.3257  0.0095 -0.2948
 8599TIP3    H147288   2.247   0.246  15.601  1.0410 -2.0355  0.5644
 8599TIP3    H247289   2.244   0.250  15.752 -0.7577 -0.0303  0.5045
 8600TIP3   OH247290   6.573   0.358   2.032 -0.4705 -0.1457  0.1844
 8600TIP3    H147291   6.562   0.296   1.960  0.7650 -0.5697  0.3386
 8600TIP3    H247292   6.656   0.333   2.074 -1.1671  0.0785  1.7742
 8601TIP3   OH247293   5.000   5.904  16.534 -0.4675  0.0800 -0.1696
 8601TIP3    H147294   5.076   5.846  16.522  0.4574  1.2405 -0.1801
 8601TIP3    H247295   4.977   5.932  16.445  1.1665  2.2174 -0.0206
 8602TIP3   OH247296   6.142   1.955  15.178 -0.0796  0.3172  0.3147
 8602TIP3    H147297   6.052   1.939  15.207  0.0058  2.7293  2.2349
 8602TIP3    H247298   6.138   2.039  15.132  1.1200  0.2092 -0.0312
 8603TIP3   OH247299   2.768   1.384  16.548  0.4091 -0.1524 -0.2826
 8603TIP3    H147300   2.853   1.393  16.592  0.5585 -1.2518 -0.3199
 8603TIP3    H247301   2.705   1.387  16.619  0.4427  0.9152 -0.2752
 8604TIP3   OH247302   3.298   6.030  13.619 -0.7896 -0.3226 -0.3987
 8604TIP3    H147303   3.356   5.956  13.605 -0.9947 -0.6117  0.2309
 8604TIP3    H247304   3.256   6.013  13.703 -0.9503  0.4377 -0.3093
 8605TIP3   OH247305   2.991   6.379  11.652  0.5840  0.7166 -0.0587
 8605TIP3    H147306   2.911   6.375  11.704  1.1358  3.2759  1.1254
 8605TIP3    H247307   2.966   6.425  11.572 -0.3533 -3.5171 -2.5622
 8606TIP3   OH247308   1.774   5.814  11.467  0.3897  0.0564  0.4164
 8606TIP3    H147309   1.870   5.805  11.465  0.4123  0.3152  0.1367
 8606TIP3    H247310   1.751   5.805  11.559  0.5377 -1.3978  0.3259
 8607TIP3   OH247311   2.997   0.999  14.069  0.0754  0.0979 -0.0967
 8607TIP3    H147312   2.942   1.053  14.012  1.3163 -0.5991 -2.0506
 8607TIP3    H247313   2.942   0.923  14.091 -0.4357  0.3959 -0.3286
 8608TIP3   OH247314   4.946   3.663  16.062 -0.4234  0.1630  0.0049
 8608TIP3    H147315   4.914   3.588  16.012 -0.8270  1.1627 -1.3002
 8608TIP3    H247316   4.946   3.634  16.153 -1.5759 -1.0655 -0.3697
 8609TIP3   OH247317   4.997   3.835   2.747  0.5798  0.2241 -0.7610
 8609TIP3    H147318   4.987   3.830   2.843  4.0923  1.3712 -0.2053
 8609TIP3    H247319   4.978   3.747   2.716  2.2728 -0.9820  1.3900
 8610TIP3   OH247320   6.561   2.318   4.281  0.1961 -0.1874  0.4232
 8610TIP3    H147321   6.616   2.373   4.336  0.2566  1.0874 -0.8675
 8610TIP3    H247322   6.622   2.261   4.234  0.4104  0.7964 -0.5392
 8611TIP3   OH247323   5.592   5.226   1.950 -0.4378  0.1028 -0.0063
 8611TIP3    H147324   5.548   5.201   2.032  1.4304 -5.8267 -0.2742
 8611TIP3    H247325   5.682   5.244   1.976 -0.1924 -0.2844 -0.5680
 8612TIP3   OH247326   1.592   3.464   0.443 -0.3703 -0.2750  0.0856
 8612TIP3    H147327   1.684   3.451   0.468 -0.4101  0.2704  0.5466
 8612TIP3    H247328   1.556   3.376   0.437  0.2600 -0.5008 -0.3903
 8613TIP3   OH247329   5.549   3.645  13.912  0.3064  0.2466  0.0744
 8613TIP3    H147330   5.644   3.662  13.914  0.2587  0.7439  2.9574
 8613TIP3    H247331   5.518   3.677  13.996 -1.9655 -2.5338  0.4468
 8614TIP3   OH247332   2.425   3.486   2.872 -0.3679 -0.3013  0.4143
 8614TIP3    H147333   2.380   3.463   2.953 -0.6161  0.7544  0.5991
 8614TIP3    H247334   2.433   3.404   2.824 -5.0042 -0.2670 -0.9185
 8615TIP3   OH247335   0.858   6.787  11.985 -0.1976  0.4011 -0.0819
 8615TIP3    H147336   0.915   6.776  12.061  0.9389  0.2342 -0.9310
 8615TIP3    H247337   0.829   6.879  11.991 -2.0155 -0.2054  1.7820
 8616TIP3   OH247338   5.544   1.816  14.239 -0.1255  1.0465 -0.2592
 8616TIP3    H147339   5.487   1.854  14.172 -1.5707  0.6392  0.7047
 8616TIP3    H247340   5.485   1.771  14.298  1.0321  1.9837  1.7147
 8617TIP3   OH247341   0.684   0.329  12.454  0.1441  0.2526 -0.0942
 8617TIP3    H147342   0.595   0.296  12.452 -0.0987  0.9286 -1.4262
 8617TIP3    H247343   0.726   0.280  12.524 -0.8675 -1.1177 -0.4079
 8618TIP3   OH247344   1.555   2.685   3.884 -0.3578 -0.4674  0.3571
 8618TIP3    H147345   1.560   2.778   3.908  0.0152 -0.4245  0.1190
 8618TIP3    H247346   1.644   2.653   3.891 -0.6082 -1.0184  1.2167
 8619TIP3   OH247347   1.421   2.165   5.103  0.2771 -0.3459  0.1388
 8619TIP3    H147348   1.367   2.165   5.182  0.0104 -1.0942 -0.0400
 8619TIP3    H247349   1.464   2.250   5.104 -1.5327  0.6333 -0.1363
 8620TIP3   OH247350   2.907   1.315  14.171  0.0443  0.1954 -0.1082
 8620TIP3    H147351   2.916   1.233  14.121  0.1238  0.5228 -0.6431
 8620TIP3    H247352   2.996   1.349  14.178 -0.0140  0.3413 -0.0679
 8621TIP3   OH247353   1.565   3.785   5.621  0.0618 -0.1227  0.0739
 8621TIP3    H147354   1.476   3.754   5.634 -0.5732  1.5089 -0.1819
 8621TIP3    H247355   1.600   3.729   5.552 -0.6718 -0.9282  0.3396
 8622TIP3   OH247356   6.237   5.505   3.950 -0.0797 -0.5738 -0.2691
 8622TIP3    H147357   6.219   5.450   3.874 -0.8822 -2.5564  1.2742
 8622TIP3    H247358   6.240   5.444   4.024  1.6235  1.1412  1.2022
 8623TIP3   OH247359   6.213   6.435  12.208 -0.6470  0.0328  0.8114
 8623TIP3    H147360   6.138   6.495  12.214 -0.6230 -0.0415  2.1579
 8623TIP3    H247361   6.255   6.440  12.294  0.8820  0.0381  0.0958
 8624TIP3   OH247362   2.817   5.788   3.468 -0.1526  0.5718 -0.6839
 8624TIP3    H147363   2.767   5.863   3.437 -0.2508  0.1328 -1.6248
 8624TIP3    H247364   2.907   5.820   3.473  0.0007  0.4716 -2.1790
 8625TIP3   OH247365   6.139   4.522  11.687 -0.1124  0.3459  0.2721
 8625TIP3    H147366   6.216   4.477  11.653 -0.1948  0.3307  0.1016
 8625TIP3    H247367   6.172   4.576  11.759 -0.1886 -0.9325  1.3238
 8626TIP3   OH247368   6.617   6.265   1.262 -0.4480  0.2622 -0.5250
 8626TIP3    H147369   6.599   6.307   1.178  1.3440  0.1217 -1.0069
 8626TIP3    H247370   6.692   6.311   1.298  0.4817 -1.3796 -0.2550
 8627TIP3   OH247371   4.361   3.146   2.787  0.0373  0.7994  0.2020
 8627TIP3    H147372   4.301   3.082   2.749 -0.0221  1.1191 -0.2446
 8627TIP3    H247373   4.428   3.159   2.721 -0.5035  1.9614 -0.1358
 8628TIP3   OH247374   3.613   0.947   3.526 -0.5223  0.3962  0.4784
 8628TIP3    H147375   3.574   0.865   3.558  1.1172 -0.9290 -0.7249
 8628TIP3    H247376   3.638   0.994   3.606  2.9629 -2.5673  1.3823
 8629TIP3   OH247377   1.655   5.477   3.896  0.1336  0.6598  0.1280
 8629TIP3    H147378   1.699   5.519   3.823  1.5717  2.1681  1.7570
 8629TIP3    H247379   1.670   5.383   3.883  0.3935  0.8976 -1.4511
 8630TIP3   OH247380   5.084   5.488   0.163 -0.4845  0.0797  0.3445
 8630TIP3    H147381   5.136   5.482   0.243  0.5495  0.4818 -0.2892
 8630TIP3    H247382   5.111   5.412   0.111 -0.8739  0.0341  0.2048
 8631TIP3   OH247383   0.168   0.733   2.083  0.2662 -0.7144 -0.7564
 8631TIP3    H147384   0.138   0.775   2.163 -1.0588  0.1289 -1.6582
 8631TIP3    H247385   0.147   0.796   2.013  1.2815 -1.4689 -1.7803
 8632TIP3   OH247386   5.393   3.217   3.093 -0.5082 -0.3019  0.3719
 8632TIP3    H147387   5.420   3.241   3.182 -0.6186 -0.0310  0.3310
 8632TIP3    H247388   5.371   3.300   3.051 -0.4223 -0.4264  0.0794
 8633TIP3   OH247389   1.855   2.341   6.272  0.2065 -0.5849  0.0969
 8633TIP3    H147390   1.846   2.311   6.362  0.5852  1.2796  0.8060
 8633TIP3    H247391   1.804   2.422   6.269  0.3600 -0.5209 -1.3142
 8634TIP3   OH247392   2.686   2.987  12.585  0.4700  0.1952  0.4668
 8634TIP3    H147393   2.646   3.047  12.522  0.1644 -0.6049 -0.1086
 8634TIP3    H247394   2.628   2.911  12.587  0.8819 -0.1186  1.1516
 8635TIP3   OH247395   0.647   2.491   1.629  0.1179 -0.4140 -0.3531
 8635TIP3    H147396   0.625   2.477   1.537 -1.9728  1.2851 -0.2023
 8635TIP3    H247397   0.710   2.563   1.628 -0.2743 -0.0673 -0.4553
 8636TIP3   OH247398   0.880   4.144   2.410 -0.9611  0.2141  0.1096
 8636TIP3    H147399   0.840   4.173   2.491 -2.3106  0.4126 -0.5947
 8636TIP3    H247400   0.860   4.213   2.347  0.3846  0.2501 -0.3299
 8637TIP3   OH247401   5.994   5.944  12.993  0.3045  0.0449  0.6437
 8637TIP3    H147402   5.916   5.987  13.029 -0.2025 -0.5815  0.2997
 8637TIP3    H247403   6.023   6.003  12.923 -0.4256 -0.1966  0.1310
 8638TIP3   OH247404   2.086   3.113   0.936  0.3096  0.0712 -0.2667
 8638TIP3    H147405   2.049   3.201   0.937  0.9176  0.4444 -3.0160
 8638TIP3    H247406   2.181   3.127   0.945  0.3029 -0.4694  0.9164
 8639TIP3   OH247407   1.737   3.012   4.141  0.0420 -0.0680  0.3688
 8639TIP3    H147408   1.827   3.041   4.153 -0.1135  0.0757  1.2866
 8639TIP3    H247409   1.703   3.003   4.230 -1.2532  1.1208  0.0194
 8640TIP3   OH247410   1.684   2.718   0.428  0.1628 -0.2381 -0.3683
 8640TIP3    H147411   1.774   2.728   0.460  1.2300 -2.7522 -2.2343
 8640TIP3    H247412   1.692   2.726   0.333 -1.6672 -0.1692 -0.5466
 8641TIP3   OH247413   1.923   2.311   2.991  0.4381 -0.3506  0.3803
 8641TIP3    H147414   1.953   2.369   3.061  3.3660 -1.0825 -0.1478
 8641TIP3    H247415   1.887   2.235   3.037  0.4726  0.0551  1.0885
 8642TIP3   OH247416   4.854   2.456   6.646 -0.7340  0.5176 -0.1531
 8642TIP3    H147417   4.812   2.514   6.583 -0.6682  1.0224  0.2592
 8642TIP3    H247418   4.947   2.464   6.629 -0.6537  1.3792  0.6081
 8643TIP3   OH247419   1.337   1.871   2.787 -0.0129 -0.2472  0.2671
 8643TIP3    H147420   1.262   1.924   2.813  0.6699  0.2946  1.1916
 8643TIP3    H247421   1.341   1.801   2.851 -1.7841 -2.3820 -1.7677
 8644TIP3   OH247422   4.798   2.579   6.152  0.5324  0.7376  0.2886
 8644TIP3    H147423   4.765   2.669   6.152 -0.0602  0.6215  2.8389
 8644TIP3    H247424   4.891   2.588   6.172  0.4677  0.8066  0.5701
 8645TIP3   OH247425   4.438   4.188  14.161 -0.2427  0.1854 -0.3835
 8645TIP3    H147426   4.446   4.248  14.086 -1.2976  0.0022 -0.6489
 8645TIP3    H247427   4.394   4.111  14.126  2.5085 -1.5028 -0.4537
 8646TIP3   OH247428   0.896   2.310  11.932  0.1833 -0.2482  0.0243
 8646TIP3    H147429   0.834   2.371  11.892 -3.0043 -1.9022  2.0155
 8646TIP3    H247430   0.888   2.230  11.881  0.5170 -0.5298  0.4092
 8647TIP3   OH247431   2.415   4.463  16.439 -0.4683  0.4152 -0.3039
 8647TIP3    H147432   2.359   4.407  16.493 -0.6136  0.1326 -0.7379
 8647TIP3    H247433   2.378   4.550  16.448 -1.9866 -0.0158 -1.8439
 8648TIP3   OH247434   0.485   1.791   3.421 -0.7823 -0.0265 -0.0946
 8648TIP3    H147435   0.490   1.796   3.326 -0.5907 -0.0685 -0.0874
 8648TIP3    H247436   0.397   1.757   3.439 -0.4828 -0.9052 -0.2863
 8649TIP3   OH247437   0.975   2.403  11.146 -0.3556  0.5353  0.8375
 8649TIP3    H147438   1.011   2.352  11.073  1.4547  3.5832 -0.6446
 8649TIP3    H247439   0.896   2.444  11.110 -0.9929 -0.0415  1.5395
 8650TIP3   OH247440   2.606   2.382   4.143 -0.3435  0.1875  0.0351
 8650TIP3    H147441   2.623   2.438   4.219 -2.2495  3.0630 -1.5146
 8650TIP3    H247442   2.673   2.408   4.079 -2.1362  1.9495 -1.2381
 8651TIP3   OH247443   2.343   6.795  11.927  0.0348 -0.2142  0.2775
 8651TIP3    H147444   2.293   6.874  11.909  0.7872  0.3887  0.7763
 8651TIP3    H247445   2.408   6.792  11.857 -0.9588 -1.2578 -0.6543
 8652TIP3   OH247446   3.897   3.620   1.840 -0.4565 -0.8899 -0.2519
 8652TIP3    H147447   3.958   3.559   1.882  0.2848  1.0196  1.5790
 8652TIP3    H247448   3.812   3.596   1.875  0.1155  0.5136  2.3357
 8653TIP3   OH247449   3.992   6.765   1.732 -0.2013  0.1476 -0.1082
 8653TIP3    H147450   4.008   6.679   1.771  1.6290  0.4036 -0.1810
 8653TIP3    H247451   3.899   6.782   1.747 -0.7193 -2.0462 -0.5358
 8654TIP3   OH247452   4.108   2.737  13.815 -0.1710 -0.3935  0.1263
 8654TIP3    H147453   4.130   2.761  13.905  1.0613 -2.6624  0.5086
 8654TIP3    H247454   4.044   2.667  13.823 -0.3433 -0.3565 -0.7660
 8655TIP3   OH247455   3.436   3.384  14.163  0.2091  0.9054 -0.0740
 8655TIP3    H147456   3.522   3.373  14.123 -0.2120 -0.0540 -0.7507
 8655TIP3    H247457   3.429   3.311  14.225 -0.4593  0.4562 -0.6645
 8656TIP3   OH247458   6.081   5.301   1.154  0.0915  0.3607  0.6802
 8656TIP3    H147459   6.176   5.304   1.142  0.0821 -3.0244 -2.0795
 8656TIP3    H247460   6.065   5.221   1.204 -1.3143 -0.1845 -0.5428
 8657TIP3   OH247461   0.847   0.342   4.132  0.3383  0.4474  0.1018
 8657TIP3    H147462   0.796   0.422   4.118  2.1777  1.5996 -0.3735
 8657TIP3    H247463   0.903   0.336   4.054  0.2584 -1.3077  0.1444
 8658TIP3   OH247464   3.546   4.915  16.730  0.1237  0.0768 -0.2057
 8658TIP3    H147465   3.466   4.881  16.769  0.6994 -0.8019  0.2457
 8658TIP3    H247466   3.527   4.923  16.637 -0.5682  0.1202 -0.0626
 8659TIP3   OH247467   4.116   3.505  13.548 -0.0764  0.3277 -0.3557
 8659TIP3    H147468   4.036   3.456  13.568  0.5680 -0.5833  0.0727
 8659TIP3    H247469   4.159   3.517  13.633  1.2375 -1.0090 -0.7654
 8660TIP3   OH247470   4.475   4.611  15.571 -0.3164  0.1038  0.7107
 8660TIP3    H147471   4.385   4.630  15.596 -0.9976 -1.3873 -0.5045
 8660TIP3    H247472   4.503   4.543  15.632 -0.7880 -1.0275 -0.3139
 8661TIP3   OH247473   5.914   5.636  11.728 -0.8288  0.1898 -0.1202
 8661TIP3    H147474   5.914   5.595  11.815  0.3589 -0.3330 -0.3486
 8661TIP3    H247475   5.831   5.684  11.724 -0.4494  1.0766  1.6927
 8662TIP3   OH247476   3.146   4.360  12.375 -0.1292 -0.4619  0.2996
 8662TIP3    H147477   3.127   4.269  12.355 -2.0037  0.1141 -0.7150
 8662TIP3    H247478   3.171   4.359  12.468 -0.0017 -1.9925  0.2766
 8663TIP3   OH247479   5.176   5.147   4.816 -0.9688 -0.1179  0.2548
 8663TIP3    H147480   5.271   5.152   4.815 -0.9786  0.4152  0.9853
 8663TIP3    H247481   5.156   5.071   4.871 -0.9625 -0.1480  0.2155
 8664TIP3   OH247482   5.383   4.784  14.088  0.3330  0.0286  0.2169
 8664TIP3    H147483   5.435   4.826  14.155  1.4003  0.4463 -0.8408
 8664TIP3    H247484   5.372   4.851  14.020 -0.0651 -0.6150 -0.3690
 8665TIP3   OH247485   5.338   3.214  11.504 -0.6811 -0.0178  0.0363
 8665TIP3    H147486   5.367   3.165  11.581 -0.7670 -0.2856 -0.0989
 8665TIP3    H247487   5.286   3.151  11.454 -2.0909  0.6551  0.6134
 8666TIP3   OH247488   6.443   1.268  14.926 -0.1976 -0.6942  0.1239
 8666TIP3    H147489   6.355   1.296  14.901  0.6303  1.1050 -1.0177
 8666TIP3    H247490   6.434   1.174  14.942 -2.1573 -0.7174 -0.7408
 8667TIP3   OH247491   5.826   3.131   2.543  0.1967  0.3205 -0.4947
 8667TIP3    H147492   5.792   3.219   2.555 -0.6006  0.2367 -1.9257
 8667TIP3    H247493   5.913   3.143   2.505  0.4623  0.4774  0.1372
 8668TIP3   OH247494   5.024   4.853   3.090 -0.3844  0.9384  0.0850
 8668TIP3    H147495   4.985   4.922   3.036  1.0586  0.4382 -1.7210
 8668TIP3    H247496   5.118   4.855   3.067  0.0924 -0.0319  1.7983
 8669TIP3   OH247497   2.514   4.705  14.213 -0.4252 -0.7923 -0.2955
 8669TIP3    H147498   2.525   4.711  14.118  2.6359 -0.6499 -0.0285
 8669TIP3    H247499   2.503   4.795  14.242  1.3624 -0.5560 -0.2967
 8670TIP3   OH247500   0.577   6.594   1.383 -0.8902  0.0954  0.2707
 8670TIP3    H147501   0.486   6.579   1.357 -0.6708 -0.2162 -0.3474
 8670TIP3    H247502   0.606   6.666   1.327 -1.4032  1.7153  1.9995
 8671TIP3   OH247503   6.510   1.343   3.078  0.4048 -0.4711  0.0012
 8671TIP3    H147504   6.470   1.345   2.991 -1.5905  0.9366  0.8593
 8671TIP3    H247505   6.592   1.391   3.068 -0.6668  1.3195 -0.8017
 8672TIP3   OH247506   6.493   3.107  14.467  0.5197 -0.1268 -0.3188
 8672TIP3    H147507   6.412   3.158  14.462  1.6293  1.5949 -2.4844
 8672TIP3    H247508   6.541   3.145  14.540  0.0799 -0.0823 -0.0469
 8673TIP3   OH247509   6.485   3.627  15.940  0.1661  0.0276  0.0125
 8673TIP3    H147510   6.424   3.591  16.005  0.3117  1.8349  1.2287
 8673TIP3    H247511   6.428   3.671  15.876  0.1355  0.8663  0.6064
 8674TIP3   OH247512   6.452   6.800   0.511 -0.2551 -0.6165 -0.2461
 8674TIP3    H147513   6.392   6.749   0.566 -0.9868  0.2723 -0.1825
 8674TIP3    H247514   6.531   6.746   0.505 -0.8046 -1.5081  0.2433
 8675TIP3   OH247515   2.037   2.356   3.241 -0.3250 -0.4722 -0.1844
 8675TIP3    H147516   2.030   2.265   3.214  0.2763  0.1085 -2.5655
 8675TIP3    H247517   1.997   2.359   3.328  1.7640 -3.4376  1.0400
 8676TIP3   OH247518   1.656   0.348   1.248  0.5256 -0.8481 -0.6336
 8676TIP3    H147519   1.629   0.433   1.283 -0.0485 -0.9398 -0.8441
 8676TIP3    H247520   1.737   0.366   1.199  0.8441 -0.5682 -0.0167
 8677TIP3   OH247521   2.542   3.401  14.832 -0.7964 -0.0323  0.0342
 8677TIP3    H147522   2.522   3.494  14.819 -1.1811 -0.1476 -0.1858
 8677TIP3    H247523   2.567   3.396  14.925  0.0166  0.4284 -0.1460
 8678TIP3   OH247524   6.186   4.175  11.566 -0.3234  0.4470  0.2387
 8678TIP3    H147525   6.161   4.100  11.621  0.9487 -0.1063  0.0993
 8678TIP3    H247526   6.107   4.197  11.517 -1.2155  0.3371  1.5820
 8679TIP3   OH247527   4.811   1.137  13.106 -0.3678  0.5505 -0.2326
 8679TIP3    H147528   4.902   1.110  13.102 -0.8364 -1.0558 -0.6152
 8679TIP3    H247529   4.764   1.075  13.050 -1.8107  0.8044  0.6261
 8680TIP3   OH247530   1.973   4.067  12.634  0.4495 -0.5364 -0.7059
 8680TIP3    H147531   1.973   3.972  12.649  0.4791 -0.3628  0.4615
 8680TIP3    H247532   1.948   4.105  12.718 -2.1453  0.4030 -1.7891
 8681TIP3   OH247533   0.002   1.206   2.567  0.1659 -0.6732 -0.0220
 8681TIP3    H147534   0.074   1.250   2.521  0.1383 -0.8929 -0.2766
 8681TIP3    H247535  -0.010   1.123   2.520 -0.2354 -0.6508  0.0384
 8682TIP3   OH247536   4.571   5.509  14.612  0.0492  0.1925 -0.7091
 8682TIP3    H147537   4.620   5.460  14.546  2.9133  0.5159  0.9826
 8682TIP3    H247538   4.587   5.461  14.693 -0.7907  1.4709  0.2433
 8683TIP3   OH247539   4.795   1.026   2.300 -0.2216  0.6750  0.2069
 8683TIP3    H147540   4.871   1.074   2.267 -0.9978  1.7569 -0.0837
 8683TIP3    H247541   4.787   1.055   2.391 -0.1769  0.4229  0.2904
 8684TIP3   OH247542   4.140   2.030  15.664 -0.4181  0.1945 -0.2933
 8684TIP3    H147543   4.229   1.996  15.660 -0.4780 -0.2718  1.4126
 8684TIP3    H247544   4.148   2.121  15.636  1.0828  0.9017  2.0874
 8685TIP3   OH247545   2.445   6.107   4.059 -0.2721  0.1305 -0.4279
 8685TIP3    H147546   2.432   6.195   4.026 -0.9480  0.3566  0.3970
 8685TIP3    H247547   2.357   6.078   4.086 -0.2376 -1.1620 -1.5655
 8686TIP3   OH247548   4.801   3.733  14.120 -0.1693 -0.4994 -0.1322
 8686TIP3    H147549   4.894   3.709  14.119  0.2151  0.9225  0.2263
 8686TIP3    H247550   4.797   3.814  14.170 -1.5504 -0.2524 -0.5975
 8687TIP3   OH247551   5.047   4.583   5.886 -0.4115  0.1967 -0.3787
 8687TIP3    H147552   5.047   4.675   5.911 -4.3061 -0.1004  1.3805
 8687TIP3    H247553   5.111   4.543   5.945 -2.1324  1.1540  2.3352
 8688TIP3   OH247554   5.155   4.151  12.215  0.1087 -0.0966  0.1936
 8688TIP3    H147555   5.116   4.161  12.128  0.9620 -1.3034 -0.3522
 8688TIP3    H247556   5.208   4.072  12.209 -1.0720 -1.1548  2.2729
 8689TIP3   OH247557   1.435   0.112   0.410  0.6520  0.2793 -0.0502
 8689TIP3    H147558   1.447   0.025   0.373  2.1090  0.9368 -1.2131
 8689TIP3    H247559   1.467   0.104   0.500  1.8906 -0.1261 -0.5065
 8690TIP3   OH247560   4.350   1.530  16.897 -0.6703  0.4967  0.4760
 8690TIP3    H147561   4.406   1.482  16.836 -2.0075  0.4410 -0.7601
 8690TIP3    H247562   4.404   1.542  16.976  1.1403  0.6669 -0.7430
 8691TIP3   OH247563   2.728   2.185  14.081  0.1873 -0.1777 -0.2424
 8691TIP3    H147564   2.714   2.273  14.046 -1.6976 -0.8272 -1.2621
 8691TIP3    H247565   2.810   2.191  14.131  1.7397  1.3855 -2.7853
 8692TIP3   OH247566   0.356   1.690  14.230 -0.0978 -0.1702  0.4163
 8692TIP3    H147567   0.302   1.612  14.222 -0.9431  0.5419 -1.7174
 8692TIP3    H247568   0.446   1.659  14.217 -0.4527 -0.7720 -0.7049
 8693TIP3   OH247569   5.906   5.816   0.748  0.0803 -0.0288 -0.3521
 8693TIP3    H147570   5.840   5.798   0.680  1.3833  0.3280 -1.7854
 8693TIP3    H247571   5.989   5.803   0.703  0.9960  0.5002  1.1408
 8694TIP3   OH247572   3.946   6.487   5.956  0.0178  0.2787 -0.0776
 8694TIP3    H147573   3.909   6.548   6.020 -0.4286  0.6195 -0.6481
 8694TIP3    H247574   3.882   6.416   5.952  0.1174  0.1868 -0.0400
 8695TIP3   OH247575   3.057   0.989   0.640  0.1113  0.5128 -0.6779
 8695TIP3    H147576   3.030   1.040   0.563 -0.0501  0.4351 -0.6720
 8695TIP3    H247577   3.128   1.041   0.679 -0.0093  0.7022 -0.7083
 8696TIP3   OH247578   3.600   5.870   0.975  0.3996  0.8551 -0.0823
 8696TIP3    H147579   3.586   5.951   0.926 -1.2986  0.6237 -0.0333
 8696TIP3    H247580   3.578   5.892   1.065 -0.7505  0.1808 -0.1834
 8697TIP3   OH247581   1.849   6.059   2.067 -0.5805  0.0773  0.2675
 8697TIP3    H147582   1.889   6.054   2.154 -1.1522 -1.5258  0.4708
 8697TIP3    H247583   1.782   6.127   2.076  0.4015  1.0270  0.6185
 8698TIP3   OH247584   2.451   3.946  11.869 -0.5405 -0.3987  0.4115
 8698TIP3    H147585   2.545   3.946  11.852 -0.0627 -0.7918  2.7676
 8698TIP3    H247586   2.418   4.023  11.821  0.6985 -1.0126 -1.5704
 8699TIP3   OH247587   4.004   3.962  11.618 -0.0690 -0.2654  0.1732
 8699TIP3    H147588   3.945   3.886  11.618 -0.7202  0.2229  0.7840
 8699TIP3    H247589   4.062   3.947  11.693  0.0972 -0.3818  0.0210
 8700TIP3   OH247590   1.510   5.059   4.652 -0.5119 -0.4019  0.5767
 8700TIP3    H147591   1.536   4.981   4.701  0.9339 -0.8038 -0.7508
 8700TIP3    H247592   1.538   5.041   4.562 -3.1734  0.2324 -0.4973
 8701TIP3   OH247593   1.930   3.710  11.647  0.6569 -0.7803 -0.3626
 8701TIP3    H147594   1.918   3.631  11.593  0.5552 -0.9132 -0.1470
 8701TIP3    H247595   2.006   3.754  11.608  1.1498 -1.3475 -0.0604
 8702TIP3   OH247596   1.926   2.721   2.390  0.0402 -0.2354 -0.4476
 8702TIP3    H147597   1.832   2.716   2.405 -0.0078 -0.9389 -0.9234
 8702TIP3    H247598   1.965   2.710   2.477 -0.3279  1.4797 -0.0367
 8703TIP3   OH247599   1.317   3.674  11.235  0.3716 -0.4139 -0.1743
 8703TIP3    H147600   1.304   3.704  11.145  0.0257 -0.0013  0.0120
 8703TIP3    H247601   1.409   3.696  11.255  0.4324 -0.4591 -0.4052
 8704TIP3   OH247602   6.011   0.779  12.181  0.5512 -0.3376  0.1653
 8704TIP3    H147603   6.037   0.743  12.096 -1.4265 -1.3325 -0.0965
 8704TIP3    H247604   6.093   0.799  12.225  1.6414  0.5870 -2.1150
 8705TIP3   OH247605   5.985   6.552  11.540 -0.2788  0.5865 -0.1094
 8705TIP3    H147606   6.027   6.544  11.454  1.3102  0.8602  0.6153
 8705TIP3    H247607   5.957   6.643  11.545 -0.5751  0.5172 -0.4051
 8706TIP3   OH247608   4.604   1.409  16.949  0.0703  0.2748  0.2518
 8706TIP3    H147609   4.643   1.357  17.019  0.3219  1.6871  1.2212
 8706TIP3    H247610   4.666   1.403  16.877  0.3691 -0.3038  0.5566
 8707TIP3   OH247611   2.811   2.493  15.022 -0.0059  0.2960 -0.1306
 8707TIP3    H147612   2.724   2.531  15.038  0.7525  2.8284 -1.4421
 8707TIP3    H247613   2.840   2.464  15.109 -1.5268  0.8658  0.6151
 8708TIP3   OH247614   3.048   3.957  13.767  1.0521  0.3547 -0.4871
 8708TIP3    H147615   3.070   3.869  13.736  1.7588  0.6581 -0.8813
 8708TIP3    H247616   2.953   3.955  13.780  1.2446 -0.8879  0.9062
 8709TIP3   OH247617   3.502   0.714   1.475  0.0570  0.8855 -0.1193
 8709TIP3    H147618   3.493   0.774   1.549 -1.1345  1.2263 -0.5179
 8709TIP3    H247619   3.459   0.759   1.402 -1.1891 -0.5864 -0.3419
 8710TIP3   OH247620   5.627   2.681  13.287  0.1790  0.7072  0.3523
 8710TIP3    H147621   5.617   2.770  13.253 -0.6139  0.2367 -0.7104
 8710TIP3    H247622   5.546   2.637  13.263  1.5435 -1.0293 -1.4538
 8711TIP3   OH247623   3.466   6.501  14.037  0.5721 -0.1445 -0.2335
 8711TIP3    H147624   3.545   6.552  14.057 -0.5451  1.4761  0.2890
 8711TIP3    H247625   3.473   6.481  13.944  2.3744 -1.4916  0.1372
 8712TIP3   OH247626   0.434   4.688   0.167  0.4039  0.4667  0.2277
 8712TIP3    H147627   0.399   4.726   0.086  1.2664  0.1093 -0.3253
 8712TIP3    H247628   0.469   4.764   0.215 -2.4964  1.0869  1.5640
 8713TIP3   OH247629   5.324   5.449   3.317  0.0713  0.1205 -0.1302
 8713TIP3    H147630   5.343   5.402   3.399  0.0606  0.5648  0.1308
 8713TIP3    H247631   5.402   5.502   3.301 -0.3380  0.8167  0.1446
 8714TIP3   OH247632   4.301   6.709  14.043  0.3179  0.0054  0.7136
 8714TIP3    H147633   4.297   6.804  14.036  0.7046  0.1925  2.4747
 8714TIP3    H247634   4.386   6.685  14.007 -0.0755  0.2240 -0.4045
 8715TIP3   OH247635   0.319   2.599   2.918  0.8904 -0.1774 -0.4660
 8715TIP3    H147636   0.288   2.517   2.881  0.5214 -0.7424  1.0109
 8715TIP3    H247637   0.308   2.588   3.013  0.5119  1.7078 -0.2536
 8716TIP3   OH247638   0.877   1.926   5.073 -0.4949  0.3021  0.3974
 8716TIP3    H147639   0.968   1.956   5.068  0.4565 -2.2519  0.7407
 8716TIP3    H247640   0.863   1.909   5.166 -1.7436  1.7375  0.4997
 8717TIP3   OH247641   2.179   4.463   3.518 -0.3718  0.1573 -0.0658
 8717TIP3    H147642   2.099   4.501   3.555 -0.7298 -0.9609  0.3875
 8717TIP3    H247643   2.222   4.535   3.472 -1.7076  0.7579 -0.4293
 8718TIP3   OH247644   2.296   3.941  10.922 -0.6758  0.2875  0.0582
 8718TIP3    H147645   2.254   3.923  10.838  1.3939 -1.4784 -0.7143
 8718TIP3    H247646   2.328   4.031  10.914 -1.7184  0.6261 -0.4724
 8719TIP3   OH247647   4.523   4.354  12.073 -0.2406 -0.5720  0.0301
 8719TIP3    H147648   4.607   4.376  12.112 -0.5500 -1.0113  0.9824
 8719TIP3    H247649   4.536   4.266  12.036 -0.4668 -0.9297  0.7839
 8720TIP3   OH247650   1.000   2.232  17.144  0.0105 -0.3646 -0.1136
 8720TIP3    H147651   0.986   2.215  17.051 -1.7337 -2.3114  0.4479
 8720TIP3    H247652   1.073   2.175  17.168  1.0491  0.7790 -0.4139
 8721TIP3   OH247653   1.748   3.539  12.048 -0.0985  0.1429  0.2491
 8721TIP3    H147654   1.767   3.596  11.974 -1.3264 -0.1491 -0.3210
 8721TIP3    H247655   1.807   3.569  12.117  0.3930  1.0492 -0.5414
 8722TIP3   OH247656   5.419   5.841   2.659  0.1116  0.1752  0.3661
 8722TIP3    H147657   5.448   5.931   2.646  1.2414 -0.0167  1.4045
 8722TIP3    H247658   5.489   5.787   2.623 -1.0800 -0.3223 -1.3168
 8723TIP3   OH247659   1.894   4.084  10.485  1.0068 -0.8805  0.1043
 8723TIP3    H147660   1.937   4.160  10.447 -1.3092 -0.2489 -1.4429
 8723TIP3    H247661   1.828   4.120  10.543 -0.7056 -1.6110 -1.2971
 8724TIP3   OH247662   0.084   5.206   3.121 -0.2206  1.0551  0.1873
 8724TIP3    H147663   0.092   5.264   3.045 -1.9203  0.3271 -0.6242
 8724TIP3    H247664   0.029   5.255   3.182 -0.1421  1.0291  0.2779
 8725TIP3   OH247665   2.325   5.665   2.478  0.3913 -0.7480  0.0832
 8725TIP3    H147666   2.241   5.620   2.467  0.8445 -1.3861 -0.9537
 8725TIP3    H247667   2.302   5.758   2.482 -0.2840 -0.8428 -1.1840
 8726TIP3   OH247668   5.863   1.618  11.525  0.1040 -0.0388  0.0936
 8726TIP3    H147669   5.870   1.711  11.502  1.2013 -0.0431  0.3752
 8726TIP3    H247670   5.771   1.597  11.510 -0.1865  1.1260  0.1330
 8727TIP3   OH247671   4.028   6.218   3.724  0.1278  0.2026  0.1280
 8727TIP3    H147672   3.981   6.269   3.791 -0.8778 -0.3218 -0.1609
 8727TIP3    H247673   3.965   6.208   3.653  0.2431 -1.5758  0.2298
 8728TIP3   OH247674   1.584   0.226   0.865  0.0510  0.1757  0.5012
 8728TIP3    H147675   1.576   0.318   0.891 -0.2616 -0.0264  1.1424
 8728TIP3    H247676   1.675   0.217   0.837  0.5337  0.3109  1.9421
 8729TIP3   OH247677   2.463   1.638  13.312  0.1605  0.4525 -0.9882
 8729TIP3    H147678   2.559   1.641  13.318  0.3163 -1.0825 -2.1491
 8729TIP3    H247679   2.435   1.628  13.403  0.8499  4.2493 -0.2107
 8730TIP3   OH247680   1.282   5.832   2.963  0.1814 -0.1725 -0.7840
 8730TIP3    H147681   1.203   5.875   2.998  0.8495  0.5736 -0.1537
 8730TIP3    H247682   1.272   5.740   2.988  0.2870  0.2045  0.8029
 8731TIP3   OH247683   2.206   4.941  12.200 -0.2083  0.0506 -0.3805
 8731TIP3    H147684   2.128   4.976  12.242  1.0384 -0.4208  2.5320
 8731TIP3    H247685   2.180   4.854  12.169 -1.0662  0.2471 -0.2330
 8732TIP3   OH247686   5.091   2.717   1.962 -0.3832  0.4264  0.1602
 8732TIP3    H147687   5.137   2.668   1.895 -0.7541 -0.2857  0.4161
 8732TIP3    H247688   5.005   2.735   1.924  0.0258  1.6177 -0.2568
 8733TIP3   OH247689   5.677   4.584   0.429  0.0300  0.0668 -0.3437
 8733TIP3    H147690   5.724   4.649   0.480 -0.1019  0.9022 -1.2590
 8733TIP3    H247691   5.713   4.592   0.341  1.0838 -2.1452 -0.1732
 8734TIP3   OH247692   2.084   3.624   3.964 -0.1452 -0.2164  0.1888
 8734TIP3    H147693   2.087   3.612   4.059  0.7198  0.4495  0.2550
 8734TIP3    H247694   2.001   3.671   3.949  0.8554  1.9215  0.9099
 8735TIP3   OH247695   3.028   4.184   0.243 -0.4394  0.4183 -0.2797
 8735TIP3    H147696   3.009   4.232   0.162  0.5834  0.0261 -0.7704
 8735TIP3    H247697   3.081   4.245   0.295  1.6750 -0.4606 -1.3060
 8736TIP3   OH247698   4.235   0.033  13.415 -0.3525 -0.4717 -0.6656
 8736TIP3    H147699   4.289   0.112  13.415  2.1311 -2.0350 -1.6558
 8736TIP3    H247700   4.298  -0.039  13.404 -2.4631 -2.6242  0.3811
 8737TIP3   OH247701   5.928   4.731  11.290 -0.3527 -0.0502 -0.1169
 8737TIP3    H147702   5.946   4.806  11.234  0.5749 -0.3472 -0.2359
 8737TIP3    H247703   5.910   4.659  11.229  0.8491 -0.4203 -0.0576
 8738TIP3   OH247704   1.417   3.371  16.052  0.2619 -0.2150 -0.3865
 8738TIP3    H147705   1.417   3.276  16.047  1.1826 -0.2065 -0.6871
 8738TIP3    H247706   1.442   3.400  15.964 -1.4325  0.3468 -0.7246
 8739TIP3   OH247707   2.174   1.781   2.113 -0.4345  0.2528  0.6298
 8739TIP3    H147708   2.128   1.864   2.097  1.3167  1.1083 -0.3867
 8739TIP3    H247709   2.188   1.745   2.025  0.0333 -0.4085  0.9701
 8740TIP3   OH247710   4.382   2.095   5.320  0.2319 -0.0401 -0.5638
 8740TIP3    H147711   4.434   2.128   5.394 -1.7449  0.8490  0.4865
 8740TIP3    H247712   4.291   2.108   5.346 -0.5561 -1.2158 -2.5008
 8741TIP3   OH247713   5.334   0.187  12.778 -0.0103  0.7053 -0.1373
 8741TIP3    H147714   5.329   0.201  12.872  0.9165  0.7003 -0.0809
 8741TIP3    H247715   5.336   0.092  12.768 -1.7790  0.6439 -0.2728
 8742TIP3   OH247716   4.088   4.828   0.728  0.0844  0.0221 -0.6369
 8742TIP3    H147717   4.045   4.875   0.657 -1.5584  0.9248  0.8871
 8742TIP3    H247718   4.179   4.818   0.698 -0.5553  0.3080 -2.8475
 8743TIP3   OH247719   3.320   1.075   5.445 -0.0221  0.2312 -0.1693
 8743TIP3    H147720   3.280   1.151   5.488  0.5350  0.4521 -0.0382
 8743TIP3    H247721   3.261   1.003   5.465  0.1193  0.3681  0.7980
 8744TIP3   OH247722   2.172   5.113   4.812  0.4188 -0.2465  0.3711
 8744TIP3    H147723   2.095   5.168   4.799  0.0640 -0.4736  1.4228
 8744TIP3    H247724   2.155   5.034   4.761  1.0829  0.7219 -1.4403
 8745TIP3   OH247725   0.405   0.767   1.498  0.2383 -0.5911  0.1981
 8745TIP3    H147726   0.355   0.825   1.439 -4.1182 -1.8929  2.2137
 8745TIP3    H247727   0.421   0.820   1.576 -0.4577 -0.9736  0.6073
 8746TIP3   OH247728   6.046   1.349   4.894 -0.3139  0.0906  0.6815
 8746TIP3    H147729   6.006   1.293   4.827 -0.3105 -0.3067  1.0054
 8746TIP3    H247730   6.120   1.298   4.927 -0.5089  0.1459  1.2125
 8747TIP3   OH247731   5.764   2.915  15.484  0.1055  0.3737  0.1679
 8747TIP3    H147732   5.758   2.831  15.529 -0.6577  0.1531 -0.3100
 8747TIP3    H247733   5.727   2.897  15.397  2.3498  0.5666 -0.8766
 8748TIP3   OH247734   1.312   1.749  10.273  0.5824  0.4567  0.6509
 8748TIP3    H147735   1.313   1.840  10.302 -1.7369  0.8774 -0.3665
 8748TIP3    H247736   1.244   1.707  10.325  1.9302 -0.8510  1.4280
 8749TIP3   OH247737   5.299   2.322  16.606 -0.3028 -0.0862 -0.3836
 8749TIP3    H147738   5.226   2.280  16.560  0.8234 -2.4068 -0.2032
 8749TIP3    H247739   5.376   2.296  16.556  0.6873 -0.3442  1.2206
 8750TIP3   OH247740   3.199   3.816  17.093  0.0063 -0.4550 -0.2770
 8750TIP3    H147741   3.221   3.793  17.003  0.4834 -0.1587 -0.2380
 8750TIP3    H247742   3.275   3.864  17.125 -0.1705 -0.5399  0.2779
 8751TIP3   OH247743   6.827   6.619   6.396  0.3792 -0.5337 -0.1182
 8751TIP3    H147744   6.773   6.632   6.319 -0.4122  0.9823  0.6361
 8751TIP3    H247745   6.766   6.592   6.464  0.3524  1.8965  0.9343
 8752TIP3   OH247746   0.801   1.239   0.442 -0.5498  0.9410  0.1106
 8752TIP3    H147747   0.709   1.235   0.466 -0.1189 -0.3263  1.7343
 8752TIP3    H247748   0.807   1.183   0.364 -1.0879  0.7741  0.1828
 8753TIP3   OH247749   3.161   6.355   0.122 -0.0602 -0.3969  0.1704
 8753TIP3    H147750   3.079   6.325   0.084 -0.6434 -0.4453  1.4268
 8753TIP3    H247751   3.153   6.450   0.124  0.5408 -0.2951 -1.0337
 8754TIP3   OH247752   3.573   5.573  12.095 -0.2614 -0.4228  0.4528
 8754TIP3    H147753   3.478   5.562  12.098 -0.2140 -0.7618  0.7582
 8754TIP3    H247754   3.595   5.610  12.181 -0.0077 -1.2121  0.7279
 8755TIP3   OH247755   5.574   0.627  15.285 -0.1676  0.6528  0.8662
 8755TIP3    H147756   5.617   0.647  15.202  0.2656  1.5170  1.2952
 8755TIP3    H247757   5.597   0.535  15.303 -1.2465  0.0645 -0.5529
 8756TIP3   OH247758   5.375   3.566   4.337  0.2443 -0.1465 -0.6505
 8756TIP3    H147759   5.390   3.615   4.418 -1.4781 -0.2369 -0.2245
 8756TIP3    H247760   5.295   3.605   4.301 -0.3389 -1.6466 -1.0592
 8757TIP3   OH247761   6.652   5.939  13.941  0.5699 -0.2086  0.1612
 8757TIP3    H147762   6.584   5.922  13.876  1.4105  0.7594 -1.0166
 8757TIP3    H247763   6.689   5.852  13.959  1.7525 -0.3160 -2.3082
 8758TIP3   OH247764   6.786   5.930  14.539  0.3278 -0.0430  0.1841
 8758TIP3    H147765   6.865   5.887  14.506  0.3581  1.0244 -1.2292
 8758TIP3    H247766   6.719   5.911  14.474 -0.0849  0.6224  0.3985
 8759TIP3   OH247767   0.711   5.544   4.702 -0.3684 -0.0309 -0.0243
 8759TIP3    H147768   0.784   5.596   4.669  0.1603 -0.6268  0.1807
 8759TIP3    H247769   0.744   5.503   4.781 -0.9874 -0.1710  0.1712
 8760TIP3   OH247770   3.990   3.649  13.900 -0.2209  0.4228  0.2225
 8760TIP3    H147771   4.066   3.600  13.869 -0.4851 -0.5369  1.0031
 8760TIP3    H247772   4.008   3.740  13.877  2.5136  0.6971  2.8090
 8761TIP3   OH247773   2.216   4.516  14.066 -0.2902  0.5421 -0.5251
 8761TIP3    H147774   2.271   4.532  13.990 -0.7082  2.1793 -0.5134
 8761TIP3    H247775   2.171   4.599  14.082 -0.7938  0.0168  1.0374
 8762TIP3   OH247776   1.787   5.677   6.215 -0.5251 -0.0133  0.4064
 8762TIP3    H147777   1.882   5.684   6.206 -0.6311 -0.9620 -2.8423
 8762TIP3    H247778   1.774   5.625   6.294  1.6803 -0.3936  0.5917
 8763TIP3   OH247779   4.816   5.966   3.442  0.2716 -0.3049  1.0100
 8763TIP3    H147780   4.841   5.975   3.350 -1.6883 -0.6388  0.3947
 8763TIP3    H247781   4.886   5.913   3.481  1.6580  0.6971 -0.0189
 8764TIP3   OH247782   0.732   0.193  15.536 -0.4835 -0.4063  0.0629
 8764TIP3    H147783   0.768   0.231  15.456  0.2580 -0.7716  0.2048
 8764TIP3    H247784   0.710   0.103  15.512 -1.4275 -0.1553 -0.0483
 8765TIP3   OH247785   6.196   6.669  16.919  0.1061 -0.3157 -0.2833
 8765TIP3    H147786   6.281   6.711  16.925  0.5911 -1.3608  0.5716
 8765TIP3    H247787   6.133   6.740  16.925  0.9071  0.4074 -0.2864
 8766TIP3   OH247788   1.690   3.939   0.609 -0.0238  0.5130  0.4721
 8766TIP3    H147789   1.764   3.959   0.552  0.6882 -0.9090  0.8580
 8766TIP3    H247790   1.659   4.025   0.638  0.1075  1.2326 -1.3694
 8767TIP3   OH247791   5.284   6.077   0.876 -0.1500 -0.4248  0.2992
 8767TIP3    H147792   5.347   6.038   0.936 -0.0657 -0.0369  0.4638
 8767TIP3    H247793   5.253   6.004   0.823 -1.7481 -1.1518  2.1569
 8768TIP3   OH247794   0.934   1.496  17.148 -0.7859 -0.1550  0.6884
 8768TIP3    H147795   0.945   1.591  17.143 -1.2734 -0.1483 -0.4798
 8768TIP3    H247796   0.932   1.467  17.057 -1.1823 -1.2196  1.0202
 8769TIP3   OH247797   1.588   1.894   3.823  0.2546  0.2504 -0.3942
 8769TIP3    H147798   1.617   1.984   3.804  1.3912  0.0464  0.3066
 8769TIP3    H247799   1.659   1.856   3.874 -0.7762 -0.6512  0.4125
 8770TIP3   OH247800   1.081   3.433   6.245  0.3147 -0.2162  0.1279
 8770TIP3    H147801   1.135   3.398   6.316 -0.1212  0.5362  0.8396
 8770TIP3    H247802   1.025   3.359   6.220  1.8188 -1.0911 -0.8027
 8771TIP3   OH247803   5.739   6.522   0.278 -0.2086 -0.0522  0.1754
 8771TIP3    H147804   5.778   6.437   0.299 -0.3847  0.1392  1.3256
 8771TIP3    H247805   5.750   6.531   0.183  0.5729 -0.9763  0.1708
 8772TIP3   OH247806   0.334   2.502  13.046  0.1386  0.4368 -0.2995
 8772TIP3    H147807   0.244   2.489  13.016 -0.8566  0.3206  2.4659
 8772TIP3    H247808   0.370   2.568  12.986 -1.6667  0.2723 -1.6406
 8773TIP3   OH247809   3.173   1.791   0.870  0.9685 -0.0923 -0.3966
 8773TIP3    H147810   3.230   1.716   0.888  0.9860 -0.3283 -1.3598
 8773TIP3    H247811   3.128   1.807   0.953  1.8177 -0.4249  0.1468
 8774TIP3   OH247812   2.373   1.955   4.268  0.6069  0.4041  0.0113
 8774TIP3    H147813   2.317   1.877   4.268  0.3299  0.4858 -2.8778
 8774TIP3    H247814   2.332   2.015   4.330 -0.2598 -1.0101  0.8440
 8775TIP3   OH247815   6.807   2.417  11.875  0.0874  0.3335  0.3188
 8775TIP3    H147816   6.881   2.419  11.815  0.7834 -1.5621  1.0506
 8775TIP3    H247817   6.845   2.400  11.961 -1.1926 -0.7403  0.7072
 8776TIP3   OH247818   0.630   0.644   0.893  0.3670 -0.2064 -0.6566
 8776TIP3    H147819   0.708   0.652   0.837  1.3042  0.7831  0.7305
 8776TIP3    H247820   0.567   0.705   0.855  1.2317  0.9455 -0.3011
 8777TIP3   OH247821   3.911   3.402   1.428 -0.1588  0.1781  0.3131
 8777TIP3    H147822   3.965   3.475   1.399  2.2165 -1.0350  1.3412
 8777TIP3    H247823   3.834   3.442   1.468  0.8698  2.0754  0.4862
 8778TIP3   OH247824   2.100   2.224  13.633  0.3836  0.0768  0.3290
 8778TIP3    H147825   2.044   2.262  13.700  2.1976 -1.4151  2.8322
 8778TIP3    H247826   2.156   2.296  13.605  0.5936  0.3863  1.5023
 8779TIP3   OH247827   1.380   1.315  16.713  0.6040 -0.4636  0.2203
 8779TIP3    H147828   1.358   1.406  16.692 -0.7053 -1.0190 -0.9256
 8779TIP3    H247829   1.468   1.320  16.751  0.8383  1.2019 -0.4733
 8780TIP3   OH247830   1.858   1.151   3.899  0.0664 -0.2204  0.2939
 8780TIP3    H147831   1.820   1.076   3.854  0.2372 -0.1591  0.0485
 8780TIP3    H247832   1.899   1.203   3.830 -1.7787  1.1449  0.1440
 8781TIP3   OH247833   1.545   1.719  13.216  0.4244 -0.0285  0.0905
 8781TIP3    H147834   1.495   1.796  13.191 -1.0434 -0.7639  0.6202
 8781TIP3    H247835   1.630   1.730  13.173 -0.8651  0.2901 -2.5850
 8782TIP3   OH247836   3.567   5.385  11.088 -0.0717  0.6891 -0.6521
 8782TIP3    H147837   3.575   5.304  11.038  0.2485  1.0722 -1.2299
 8782TIP3    H247838   3.651   5.428  11.077 -0.7969  1.9121 -1.7876
 8783TIP3   OH247839   1.585   3.017   5.841 -0.7828  0.3078  0.3109
 8783TIP3    H147840   1.569   3.104   5.878  0.4950  0.9430 -0.5557
 8783TIP3    H247841   1.618   3.035   5.753  0.3027 -1.0330  0.4236
 8784TIP3   OH247842   3.702   6.170  14.197  0.0227 -0.4063 -0.3645
 8784TIP3    H147843   3.735   6.124  14.120 -1.0686 -1.2072 -0.3854
 8784TIP3    H247844   3.607   6.171  14.184 -0.0611  0.7335  0.2734
 8785TIP3   OH247845   3.553   1.942   2.361 -0.2079  0.2568 -0.1733
 8785TIP3    H147846   3.646   1.952   2.343  0.2331  1.5203  2.3035
 8785TIP3    H247847   3.512   2.017   2.319  0.1692  0.7072  0.2498
 8786TIP3   OH247848   3.944   2.627  14.544  0.3410  0.0441  0.1620
 8786TIP3    H147849   3.876   2.587  14.598 -0.7559  1.1864 -0.3333
 8786TIP3    H247850   3.965   2.561  14.478 -0.5430 -0.1956  0.1130
 8787TIP3   OH247851   6.406   0.429   2.246 -0.4921  0.2304  0.3251
 8787TIP3    H147852   6.458   0.389   2.176 -0.3721 -0.0967  0.5992
 8787TIP3    H247853   6.424   0.375   2.323  1.0152  1.8144  1.1371
 8788TIP3   OH247854   1.708   1.324  11.923 -0.0594  0.3169  0.5372
 8788TIP3    H147855   1.795   1.347  11.891  0.4290 -2.6252 -0.5426
 8788TIP3    H247856   1.675   1.260  11.859 -2.0441 -0.3997  2.1623
 8789TIP3   OH247857   4.505   4.471  15.822  0.6850  0.3740  0.3346
 8789TIP3    H147858   4.443   4.538  15.852  0.5490  0.3429  0.1221
 8789TIP3    H247859   4.578   4.478  15.884  0.6787  0.7292  0.3070
 8790TIP3   OH247860   5.633   6.648  16.080  0.2157 -0.2843  0.3594
 8790TIP3    H147861   5.583   6.588  16.136  0.9908  0.8644  2.4024
 8790TIP3    H247862   5.573   6.721  16.064  0.5214  0.1390  1.0889
 8791TIP3   OH247863   4.729   0.413   4.638 -0.3575  0.4603  0.2536
 8791TIP3    H147864   4.654   0.355   4.626  0.7371 -0.8752 -0.3870
 8791TIP3    H247865   4.703   0.472   4.709 -0.6879 -2.2792  2.5932
 8792TIP3   OH247866   3.082   0.287  13.970  0.3721  0.2219  0.0348
 8792TIP3    H147867   3.119   0.371  13.999  3.0329 -1.2175  1.1969
 8792TIP3    H247868   3.099   0.227  14.043 -3.0928 -1.0064 -0.0024
 8793TIP3   OH247869   1.266   4.071   2.521  0.0596  0.0685 -0.2253
 8793TIP3    H147870   1.220   4.068   2.605 -0.8003  0.8514 -0.6481
 8793TIP3    H247871   1.346   4.022   2.536  0.2039  0.6965  1.2342
 8794TIP3   OH247872   3.202   3.430   3.780 -0.5749  0.2311 -0.5380
 8794TIP3    H147873   3.210   3.335   3.788  0.5311  0.3515 -0.0044
 8794TIP3    H247874   3.113   3.449   3.809  0.0025 -0.3983  1.8997
 8795TIP3   OH247875   5.695   0.722  14.310  0.3226  0.6598 -0.7777
 8795TIP3    H147876   5.678   0.810  14.277 -0.2723  0.5685 -0.7344
 8795TIP3    H247877   5.634   0.666  14.261  1.2752  0.1546 -1.3981
 8796TIP3   OH247878   5.591   5.462   0.833 -0.6447  0.6155 -0.2470
 8796TIP3    H147879   5.565   5.412   0.910 -0.9855  1.0931 -0.0483
 8796TIP3    H247880   5.679   5.493   0.853  0.4125 -1.5529 -1.1912
 8797TIP3   OH247881   2.549   3.381   0.269  0.3004 -0.2596 -0.2620
 8797TIP3    H147882   2.457   3.391   0.294  0.3015 -0.9144  0.0142
 8797TIP3    H247883   2.576   3.469   0.241 -0.6113 -0.2133 -1.0464
 8798TIP3   OH247884   4.261   5.055   3.629  0.5712 -0.2027 -0.0611
 8798TIP3    H147885   4.348   5.059   3.589  0.4358 -1.0755 -0.4683
 8798TIP3    H247886   4.260   5.128   3.691  1.1533  0.5587 -0.9189
 8799TIP3   OH247887   4.985   5.822  17.033 -0.3401  0.5923 -0.3814
 8799TIP3    H147888   4.951   5.748  16.982 -0.1924 -0.3240  0.7915
 8799TIP3    H247889   4.908   5.858  17.078 -0.3642  0.9667 -0.7204
 8800TIP3   OH247890   3.782   6.794   0.510 -0.2863 -1.0078  0.5080
 8800TIP3    H147891   3.743   6.849   0.442 -0.5008  0.3517  1.6804
 8800TIP3    H247892   3.726   6.808   0.586  2.5153  1.1741  2.3293
 8801TIP3   OH247893   0.703   2.274   4.246  0.1227  0.4445 -0.0585
 8801TIP3    H147894   0.612   2.304   4.237  0.3341  0.6971 -1.7033
 8801TIP3    H247895   0.736   2.272   4.156  1.4426 -0.6270  0.4227
 8802TIP3   OH247896   0.616   5.609   1.537 -0.2375 -0.2235 -0.4283
 8802TIP3    H147897   0.623   5.517   1.511 -1.3181 -0.1344 -1.1248
 8802TIP3    H247898   0.571   5.651   1.464  0.5642  0.9435 -0.2778
 8803TIP3   OH247899   3.859   1.832   1.263  0.1622 -0.1089  0.1203
 8803TIP3    H147900   3.801   1.831   1.339  0.6624 -0.9999  0.5038
 8803TIP3    H247901   3.813   1.885   1.198 -0.9697 -0.6099  0.4947
 8804TIP3   OH247902   5.323   2.035  13.187  0.8808 -0.1392  0.1564
 8804TIP3    H147903   5.346   1.942  13.191  1.3949  0.0288  1.3734
 8804TIP3    H247904   5.377   2.070  13.116 -1.4992 -1.3268 -2.4513
 8805TIP3   OH247905   6.070   6.801   5.853  0.2117 -0.0060  0.6189
 8805TIP3    H147906   6.149   6.804   5.799  0.4030  1.5288  0.9342
 8805TIP3    H247907   6.103   6.794   5.943  0.1516  2.9793  0.9641
 8806TIP3   OH247908   2.221   1.849  15.144  0.2834 -1.0996 -0.3162
 8806TIP3    H147909   2.249   1.940  15.130  1.0734 -1.0010  1.6332
 8806TIP3    H247910   2.168   1.829  15.067 -2.6015  2.0646  0.5535
 8807TIP3   OH247911   5.563   5.554  12.745 -0.0813 -0.3751  0.4569
 8807TIP3    H147912   5.608   5.485  12.793 -0.2946 -1.7790 -1.2700
 8807TIP3    H247913   5.632   5.593  12.690 -0.1207  0.2939  0.8748
 8808TIP3   OH247914   6.398   5.963   5.437  0.8017  0.3049  0.6413
 8808TIP3    H147915   6.490   5.989   5.448  1.4807 -0.5785 -2.0580
 8808TIP3    H247916   6.398   5.869   5.454  0.3207  0.3519  0.9206
 8809TIP3   OH247917   1.321   1.122  10.872 -0.1380  0.2574  0.1488
 8809TIP3    H147918   1.342   1.211  10.899 -1.4002  0.6731 -0.2033
 8809TIP3    H247919   1.273   1.132  10.791 -1.7173 -0.6366  0.9357
 8810TIP3   OH247920   2.913   4.724  14.610 -0.4645  0.5817  0.5149
 8810TIP3    H147921   2.944   4.772  14.688 -1.2549  2.0930 -0.0648
 8810TIP3    H247922   2.952   4.771  14.537  1.0183 -1.3771 -0.0238
 8811TIP3   OH247923   3.077   4.067   4.209  0.0732 -0.0721 -0.0970
 8811TIP3    H147924   2.989   4.066   4.248 -0.0137  0.7497 -0.2531
 8811TIP3    H247925   3.087   3.980   4.171 -1.4495  0.4183 -1.7769
 8812TIP3   OH247926   1.463   3.362  13.086 -0.1026 -0.2014  0.2875
 8812TIP3    H147927   1.421   3.336  13.004 -0.4616  1.1138  0.0217
 8812TIP3    H247928   1.427   3.303  13.152 -0.1907 -0.9457 -0.4188
 8813TIP3   OH247929   0.724   0.382  15.909 -0.5063 -0.3778  0.3576
 8813TIP3    H147930   0.693   0.294  15.932  0.4506 -1.1658 -1.1552
 8813TIP3    H247931   0.754   0.373  15.818  1.0085  1.1427  0.6626
 8814TIP3   OH247932   0.100   3.841   2.380  0.1328 -0.0178  0.2915
 8814TIP3    H147933   0.020   3.789   2.378  0.1615 -0.0633  0.3391
 8814TIP3    H247934   0.146   3.811   2.458  1.0925 -1.3203 -0.7376
 8815TIP3   OH247935   2.064   6.591  15.315  0.1040 -0.3588  0.3372
 8815TIP3    H147936   2.000   6.553  15.376 -1.7665  0.6919 -0.8854
 8815TIP3    H247937   2.085   6.520  15.255  0.7260 -0.9330  1.2051
 8816TIP3   OH247938   2.717   4.979  15.754  0.4230  0.1955 -0.8287
 8816TIP3    H147939   2.693   4.897  15.710  0.8715  0.1571 -1.0069
 8816TIP3    H247940   2.691   5.047  15.691 -0.7730  0.2450 -0.3085
 8817TIP3   OH247941   0.748   3.183  10.667 -1.1251  0.4155  0.0846
 8817TIP3    H147942   0.719   3.262  10.622 -2.1851  0.9403  1.5955
 8817TIP3    H247943   0.668   3.144  10.702 -0.5453 -0.9920 -0.0926
 8818TIP3   OH247944   2.033   3.359   4.896  0.0235  0.1376 -0.5118
 8818TIP3    H147945   2.026   3.295   4.825 -2.1815 -0.6874  0.3548
 8818TIP3    H247946   1.960   3.419   4.882  0.2439  0.6446  0.4065
 8819TIP3   OH247947   2.627   1.116   3.828 -0.3549 -0.0504 -0.3652
 8819TIP3    H147948   2.557   1.118   3.894  0.5628  1.0190  0.6186
 8819TIP3    H247949   2.695   1.173   3.864  0.5449 -0.1515 -1.8426
 8820TIP3   OH247950   2.513   3.911   0.280  0.5635 -0.3014 -0.4697
 8820TIP3    H147951   2.518   3.974   0.208  0.6098  0.0868 -0.1265
 8820TIP3    H247952   2.572   3.945   0.347  2.5886 -2.0269 -1.2671
 8821TIP3   OH247953   4.157   5.653   1.614  0.2402  0.0780  0.7391
 8821TIP3    H147954   4.180   5.744   1.595 -0.0050 -0.1146 -0.5734
 8821TIP3    H247955   4.206   5.632   1.694  0.9886  1.0803  0.5671
 8822TIP3   OH247956   5.743   4.106  12.649  0.1229 -0.3248  0.0683
 8822TIP3    H147957   5.685   4.161  12.596  1.4505  0.3601 -0.7136
 8822TIP3    H247958   5.784   4.047  12.585  0.5561 -0.5548  0.5543
 8823TIP3   OH247959   5.674   5.831   4.376 -0.5833  0.3805  0.0799
 8823TIP3    H147960   5.675   5.896   4.306 -0.5437 -0.2889 -0.5534
 8823TIP3    H247961   5.766   5.816   4.397 -0.3601 -1.8004 -2.0164
 8824TIP3   OH247962   2.097   5.177  10.916 -0.1505 -0.1418  0.1269
 8824TIP3    H147963   2.082   5.262  10.874  0.1808 -0.3045 -0.3332
 8824TIP3    H247964   2.147   5.197  10.996 -2.7331  0.4080  1.7038
 8825TIP3   OH247965   4.672   1.074  15.229  0.0749 -0.3196  0.1021
 8825TIP3    H147966   4.732   1.094  15.301 -0.0811 -0.3615  0.2446
 8825TIP3    H247967   4.603   1.139  15.237 -0.2804 -0.7223  0.3897
 8826TIP3   OH247968   4.825   0.011  14.721  0.5962  0.4039 -0.1839
 8826TIP3    H147969   4.884  -0.050  14.766  0.4228  1.0583  0.9670
 8826TIP3    H247970   4.794   0.070  14.790 -1.7980 -0.1987 -0.6638
 8827TIP3   OH247971   1.171   5.261  16.485  0.0134  0.1107  0.4754
 8827TIP3    H147972   1.179   5.183  16.541  1.4422  0.0982  0.2781
 8827TIP3    H247973   1.244   5.254  16.424  0.1793  1.6417  0.4784
 8828TIP3   OH247974   6.331   5.407   4.846 -0.7746 -0.7467 -0.4350
 8828TIP3    H147975   6.351   5.323   4.887 -1.1689 -0.9984 -0.7539
 8828TIP3    H247976   6.368   5.400   4.758  0.3579 -0.0859 -0.0317
 8829TIP3   OH247977   5.455   2.878  16.836  0.4247 -0.5078  0.6594
 8829TIP3    H147978   5.501   2.934  16.774 -0.5734 -0.2666  0.1196
 8829TIP3    H247979   5.518   2.810  16.858  1.7917  0.9847  1.5928
 8830TIP3   OH247980   2.440   3.514  13.858  0.1640  0.0525  0.3923
 8830TIP3    H147981   2.435   3.420  13.871 -2.6265 -0.0198 -0.4455
 8830TIP3    H247982   2.386   3.551  13.928 -0.5687  0.8194 -0.5332
 8831TIP3   OH247983   6.436   3.591  13.825  0.5130 -0.2681 -0.3378
 8831TIP3    H147984   6.528   3.573  13.804  0.5189 -0.6558  0.0189
 8831TIP3    H247985   6.404   3.511  13.866  0.3998  0.3430  0.8252
 8832TIP3   OH247986   3.365   1.349   4.942 -0.1826 -0.8554  0.3279
 8832TIP3    H147987   3.311   1.336   4.864 -0.3502 -1.5870  0.5598
 8832TIP3    H247988   3.333   1.284   5.005 -0.1598 -0.1659  1.0680
 8833TIP3   OH247989   5.141   2.927  15.308  0.3504  0.5402 -0.0588
 8833TIP3    H147990   5.206   2.883  15.252 -0.6074 -0.7622 -0.1989
 8833TIP3    H247991   5.065   2.940  15.251  0.4009  1.8821  0.1568
 8834TIP3   OH247992   2.194   6.342  14.345  0.0566  0.4495  0.6784
 8834TIP3    H147993   2.251   6.417  14.328 -0.6807  0.5548 -1.6158
 8834TIP3    H247994   2.194   6.293  14.263 -0.8712 -1.1124  1.5837
 8835TIP3   OH247995   3.689   3.366   6.639  0.7204  0.1254  0.1029
 8835TIP3    H147996   3.635   3.341   6.714 -1.8547  2.2446 -0.8801
 8835TIP3    H247997   3.742   3.439   6.671  2.0872 -1.0671  0.6813
 8836TIP3   OH247998   6.167   2.000  13.765 -0.2858 -0.0901 -0.3126
 8836TIP3    H147999   6.229   1.942  13.809 -0.9316 -1.1463 -0.7359
 8836TIP3    H248000   6.090   1.945  13.750 -1.1420  1.0530 -0.2347
 8837TIP3   OH248001   1.167   1.110  12.498 -0.1378  0.4338  0.1177
 8837TIP3    H148002   1.089   1.087  12.549  0.4901  1.2348  1.4923
 8837TIP3    H248003   1.148   1.197  12.462  0.0551  0.5728  0.3449
 8838TIP3   OH248004   5.625   3.166  12.138  0.2140 -0.0126 -0.3323
 8838TIP3    H148005   5.619   3.255  12.172  0.1312 -0.6951  1.5582
 8838TIP3    H248006   5.553   3.160  12.075 -0.6327  0.8531  0.5131
 8839TIP3   OH248007   1.976   1.722   4.335  0.4131 -0.2755  0.0356
 8839TIP3    H148008   2.002   1.765   4.254  1.5155 -1.2862 -0.1788
 8839TIP3    H248009   1.928   1.789   4.384  0.4209  0.5838 -1.1059
 8840TIP3   OH248010   5.581   5.236   4.232 -0.2718 -0.0962 -0.6483
 8840TIP3    H148011   5.497   5.232   4.279 -1.1476  2.1444 -1.8933
 8840TIP3    H248012   5.586   5.152   4.186 -0.4061 -1.4543  1.6384
 8841TIP3   OH248013   4.149   4.089   1.669  0.0191  0.1338 -0.0754
 8841TIP3    H148014   4.206   4.101   1.745 -0.0500 -1.7120  0.3120
 8841TIP3    H248015   4.207   4.055   1.601 -0.3509 -0.5062 -0.0815
 8842TIP3   OH248016   4.865   0.801   5.476 -0.5743 -0.6211 -0.1862
 8842TIP3    H148017   4.839   0.845   5.557  0.3461  1.7941 -1.1079
 8842TIP3    H248018   4.786   0.803   5.422 -0.2026  1.3252 -0.7519
 8843TIP3   OH248019   6.565   5.786   5.288 -0.1564  0.5475  0.0581
 8843TIP3    H148020   6.607   5.863   5.248  0.3604  0.8000  1.0587
 8843TIP3    H248021   6.524   5.741   5.215 -1.9359  2.6770 -0.3616
 8844TIP3   OH248022   1.971   2.478   4.395 -0.1104 -0.0160  0.3668
 8844TIP3    H148023   1.949   2.419   4.322  0.1797 -1.3595  1.3138
 8844TIP3    H248024   1.896   2.472   4.454  1.0426 -1.6391  1.7827
 8845TIP3   OH248025   4.732   3.040   4.136  0.0015  0.4919  0.8524
 8845TIP3    H148026   4.712   3.132   4.154 -1.9804  0.2837 -0.0070
 8845TIP3    H248027   4.697   2.992   4.211 -0.9714  0.2911  0.2933
 8846TIP3   OH248028   6.231   5.934   0.203 -0.3969  0.0103 -0.4372
 8846TIP3    H148029   6.262   5.956   0.115  0.1331 -0.8931 -0.4934
 8846TIP3    H248030   6.161   5.997   0.221  0.4215  1.1001 -0.9443
 8847TIP3   OH248031   6.081   1.257  11.151 -0.0682  0.1269  0.3540
 8847TIP3    H148032   6.171   1.244  11.181  0.3372  0.0648 -0.8212
 8847TIP3    H248033   6.041   1.314  11.217  1.0895  0.8658  0.4472
 8848TIP3   OH248034   4.025   3.409   4.845 -0.3452  0.1045 -0.0803
 8848TIP3    H148035   4.087   3.452   4.904 -1.8160  0.9110  0.9401
 8848TIP3    H248036   4.001   3.328   4.889  0.0823 -0.2928 -0.5564
 8849TIP3   OH248037   1.190   4.479  13.556 -0.2498 -0.5902  0.6592
 8849TIP3    H148038   1.123   4.483  13.625  1.3973  0.8917  2.2599
 8849TIP3    H248039   1.208   4.570  13.535 -1.8776 -0.9482 -3.0642
 8850TIP3   OH248040   0.178   0.063  13.773 -0.4850  0.2456 -0.1985
 8850TIP3    H148041   0.163   0.157  13.766 -0.3750  0.3361  0.6732
 8850TIP3    H248042   0.271   0.054  13.792 -0.9599  0.1433  2.4360
 8851TIP3   OH248043   4.250   5.667   2.098  0.5122  0.1217 -0.6148
 8851TIP3    H148044   4.261   5.635   2.009  0.9701 -0.7827 -0.2430
 8851TIP3    H248045   4.160   5.644   2.120  0.6108 -0.2585 -0.6068
 8852TIP3   OH248046   4.148   1.611   1.472 -0.0649 -0.3891  0.0551
 8852TIP3    H148047   4.110   1.538   1.424 -2.9166  1.2325 -0.3597
 8852TIP3    H248048   4.097   1.616   1.553  1.1870  0.1573  0.8474
 8853TIP3   OH248049   5.736   0.625  16.719 -0.0142  0.2443  0.3487
 8853TIP3    H148050   5.707   0.550  16.770 -0.8209  1.0304  1.0826
 8853TIP3    H248051   5.772   0.686  16.784 -2.7645  2.0742  0.3310
 8854TIP3   OH248052   3.368   0.449  14.561 -0.1110 -0.1318  0.0714
 8854TIP3    H148053   3.283   0.405  14.559  0.0432 -0.4245 -1.5211
 8854TIP3    H248054   3.407   0.423  14.644 -1.0645 -1.0038  0.2623
 8855TIP3   OH248055   0.743   1.888  15.437  0.3279 -0.0343  0.4468
 8855TIP3    H148056   0.838   1.892  15.430  0.2485  0.5473 -0.4451
 8855TIP3    H248057   0.713   1.975  15.409 -0.4154  0.1823  1.7676
 8856TIP3   OH248058   0.308   1.531   2.816 -0.2738  0.1030  0.4430
 8856TIP3    H148059   0.258   1.602   2.857  0.5921  1.0046 -0.0125
 8856TIP3    H248060   0.345   1.571   2.737  1.4154 -0.4302  0.9324
 8857TIP3   OH248061   5.464   6.525   3.444  0.0712 -0.5527  0.4494
 8857TIP3    H148062   5.473   6.456   3.378 -1.5661 -0.5480  0.1757
 8857TIP3    H248063   5.370   6.529   3.462 -0.1963  2.8100 -0.8873
 8858TIP3   OH248064   5.639   6.373  16.619  0.2432  0.0497 -0.4424
 8858TIP3    H148065   5.692   6.300  16.653 -2.4134 -0.8453  2.2902
 8858TIP3    H248066   5.563   6.331  16.579  0.0045  1.3170 -1.3851
 8859TIP3   OH248067   4.093   3.895  11.866  0.1983 -0.3975 -0.1846
 8859TIP3    H148068   4.029   3.845  11.916  0.5768  0.8692  1.6454
 8859TIP3    H248069   4.164   3.912  11.928  1.2014  0.3009 -1.4770
 8860TIP3   OH248070   2.394   5.801  15.399  0.1708  0.0937 -0.0929
 8860TIP3    H148071   2.413   5.892  15.422  0.4163  0.0114  0.0421
 8860TIP3    H248072   2.345   5.766  15.473  0.7079 -0.0877  0.1881
 8861TIP3   OH248073   1.297   2.248   1.006 -0.5335 -0.5404 -0.1901
 8861TIP3    H148074   1.241   2.280   1.077 -0.0086  2.2275 -0.9379
 8861TIP3    H248075   1.381   2.228   1.049  0.2244  2.4115 -0.1383
 8862TIP3   OH248076   2.388   2.172   2.060  0.1371  0.0295  0.0905
 8862TIP3    H148077   2.343   2.164   1.976 -1.5855  0.3968  0.9319
 8862TIP3    H248078   2.326   2.219   2.116  1.4096  0.1469  1.4552
 8863TIP3   OH248079   6.074   2.445  10.452  0.5043  0.0532 -0.1641
 8863TIP3    H148080   6.116   2.387  10.515  2.4000 -0.3477 -1.6986
 8863TIP3    H248081   6.003   2.394  10.414 -0.1649  0.0410  1.0574
 8864TIP3   OH248082   0.181   6.792  15.140 -0.1425  0.5420  0.0095
 8864TIP3    H148083   0.259   6.739  15.129 -0.3773  0.1880  0.0187
 8864TIP3    H248084   0.167   6.833  15.054  0.5846  1.3555  0.2711
 8865TIP3   OH248085   0.046   1.619   4.037 -0.0166  0.1488  0.0755
 8865TIP3    H148086   0.114   1.574   4.088 -0.8909 -0.3880  0.7948
 8865TIP3    H248087  -0.007   1.664   4.103  0.2025  1.3712 -0.5596
 8866TIP3   OH248088   4.469   3.100  15.469  0.2082  0.5687  0.4587
 8866TIP3    H148089   4.562   3.079  15.478  0.1266 -0.4505 -0.7416
 8866TIP3    H248090   4.423   3.026  15.508 -0.0740 -0.5911 -1.8721
 8867TIP3   OH248091   2.631   4.982  13.541  0.5592  0.4880 -0.8788
 8867TIP3    H148092   2.721   4.958  13.563  0.1329 -0.7649 -0.4029
 8867TIP3    H248093   2.610   5.053  13.600  0.7699 -0.1864  0.0311
 8868TIP3   OH248094   0.918   0.308   0.667  0.0634 -0.2379 -0.1622
 8868TIP3    H148095   0.966   0.330   0.747  2.8999  1.5172 -2.1403
 8868TIP3    H248096   0.848   0.372   0.663 -0.5671 -0.7982  1.2243
 8869TIP3   OH248097   5.305   5.403   1.115 -0.5306 -0.4196  0.3305
 8869TIP3    H148098   5.324   5.342   1.044  0.4125  0.3650 -0.1303
 8869TIP3    H248099   5.342   5.361   1.193 -0.7071 -0.8523  0.1812
 8870TIP3   OH248100   4.438   1.604   5.328 -0.0910  0.3050 -0.4058
 8870TIP3    H148101   4.506   1.540   5.309 -1.4220 -1.2988 -0.0476
 8870TIP3    H248102   4.381   1.603   5.251  0.1936  1.5350 -0.6569
 8871TIP3   OH248103   5.407   1.093  17.052  0.6802  0.2848  0.7288
 8871TIP3    H148104   5.391   1.188  17.053  1.8157  0.4922  1.4659
 8871TIP3    H248105   5.395   1.066  17.143 -0.0458 -0.3654  0.4469
 8872TIP3   OH248106   0.159   2.565   0.171  0.0841 -0.5362  0.1584
 8872TIP3    H148107   0.157   2.495   0.105 -0.1255 -0.3987  0.0192
 8872TIP3    H248108   0.187   2.521   0.251 -0.0996 -0.7916  0.0829
 8873TIP3   OH248109   1.138   0.925  10.681  0.4366 -0.3994 -0.5296
 8873TIP3    H148110   1.227   0.921  10.646  0.6421 -0.7392  0.0119
 8873TIP3    H248111   1.119   1.018  10.689  1.7411 -0.2476  1.7811
 8874TIP3   OH248112   2.983   1.175  15.395  0.7846 -0.4020 -0.3492
 8874TIP3    H148113   3.055   1.235  15.414  1.6406 -1.7936  0.9952
 8874TIP3    H248114   2.927   1.179  15.472 -0.3862  0.3251 -1.1967
 8875TIP3   OH248115   0.202   5.652  14.251  0.2874 -0.0498 -0.4711
 8875TIP3    H148116   0.174   5.741  14.229  2.1898  0.5865 -0.5686
 8875TIP3    H248117   0.162   5.597  14.184 -0.9276  0.7134 -0.4047
 8876TIP3   OH248118   0.618   5.229  10.491  0.0300  0.0850 -0.2158
 8876TIP3    H148119   0.582   5.305  10.444  1.7514  2.4477  1.9876
 8876TIP3    H248120   0.712   5.236  10.478  0.2116 -2.0092 -0.3228
 8877TIP3   OH248121   0.109   4.377  15.759  0.6038  0.4433 -0.1903
 8877TIP3    H148122   0.023   4.343  15.783  1.1883 -0.4073  0.8087
 8877TIP3    H248123   0.112   4.464  15.799  0.3406  0.3263  0.0955
 8878TIP3   OH248124   3.105   3.905   5.769 -0.5294  0.3158 -0.0993
 8878TIP3    H148125   3.143   3.868   5.849 -3.2548 -2.1126  0.2341
 8878TIP3    H248126   3.125   3.841   5.701 -2.3041 -0.0927 -0.2878
 8879TIP3   OH248127   5.680   3.205   3.719 -0.2507  0.3918 -0.0232
 8879TIP3    H148128   5.676   3.300   3.716 -0.9288  0.4379  1.4069
 8879TIP3    H248129   5.601   3.180   3.768  1.5038 -0.6983  2.4221
 8880TIP3   OH248130   0.506   3.086   2.479 -0.6565  0.1716  0.0202
 8880TIP3    H148131   0.481   3.001   2.515 -0.6834  0.9503  1.9368
 8880TIP3    H248132   0.458   3.150   2.531 -2.0681  1.3564 -2.5676
 8881TIP3   OH248133   3.670   3.546  11.164  0.6948  0.3503 -0.5994
 8881TIP3    H148134   3.758   3.523  11.195  1.1948  1.5608 -1.0951
 8881TIP3    H248135   3.668   3.641  11.166 -1.3269  0.3684  1.4071
 8882TIP3   OH248136   0.353   5.545  17.131  0.2553  0.0092 -0.3343
 8882TIP3    H148137   0.448   5.545  17.147  0.6223  0.8849 -2.2472
 8882TIP3    H248138   0.345   5.522  17.038 -1.0893  4.2613 -1.4931
 8883TIP3   OH248139   2.418   6.460   3.044 -0.2900 -0.3347 -0.2556
 8883TIP3    H148140   2.364   6.512   3.104  0.6299 -0.0981  0.3856
 8883TIP3    H248141   2.444   6.521   2.975 -0.5108 -0.3506 -0.3541
 8884TIP3   OH248142   2.749   2.801  14.654 -0.4976 -0.2138  0.2675
 8884TIP3    H148143   2.774   2.871  14.715  1.7455 -0.9787  0.3391
 8884TIP3    H248144   2.676   2.756  14.697 -0.7932  0.9830  1.0499
 8885TIP3   OH248145   5.187   1.106  12.880  0.3219  0.3114 -0.2144
 8885TIP3    H148146   5.114   1.079  12.824 -0.0611  0.3740  0.2498
 8885TIP3    H248147   5.265   1.073  12.835 -0.0128 -0.0265 -0.5589
 8886TIP3   OH248148   2.925   4.721   1.501 -0.4908  0.3005 -0.2926
 8886TIP3    H148149   2.925   4.693   1.409  0.4772  0.6142 -0.4038
 8886TIP3    H248150   2.993   4.666   1.542  1.7224  2.6128 -0.5932
 8887TIP3   OH248151   5.306   0.003  11.267 -0.0240 -0.4793  0.0535
 8887TIP3    H148152   5.271  -0.049  11.340  1.1804 -2.6694 -0.8160
 8887TIP3    H248153   5.265  -0.033  11.189  1.7870 -1.0679 -0.6957
 8888TIP3   OH248154   6.034   2.798  14.247  0.2573  0.2124  0.3484
 8888TIP3    H148155   6.026   2.866  14.180 -0.4279 -0.4672 -0.2676
 8888TIP3    H248156   5.946   2.764  14.258  0.8239 -1.5873 -0.4182
 8889TIP3   OH248157   2.565   5.817   1.235 -0.0540 -1.0797  0.2699
 8889TIP3    H148158   2.645   5.858   1.268 -0.8639  0.9722 -0.1399
 8889TIP3    H248159   2.555   5.738   1.287  1.8527 -1.0116  0.8118
 8890TIP3   OH248160   1.545   1.469   5.438  0.3128  0.0934  0.1808
 8890TIP3    H148161   1.471   1.514   5.397 -0.0147 -0.1300  0.5255
 8890TIP3    H248162   1.513   1.381   5.457  0.3530  0.2934  1.2119
 8891TIP3   OH248163   6.064   0.520  11.506 -0.5067 -0.8160 -0.5376
 8891TIP3    H148164   6.016   0.602  11.515 -0.5290 -0.9373  0.6239
 8891TIP3    H248165   6.016   0.472  11.439 -0.6821 -0.0193 -1.0038
 8892TIP3   OH248166   2.870   0.772   5.515  0.2950  0.7689  0.2041
 8892TIP3    H148167   2.813   0.779   5.439  1.7532  0.1627 -0.9937
 8892TIP3    H248168   2.876   0.678   5.533 -0.2044  0.9166  1.2180
 8893TIP3   OH248169   0.798   5.847   3.567  0.3196 -0.2361  0.4010
 8893TIP3    H148170   0.882   5.888   3.587  1.0148 -1.6277  0.4452
 8893TIP3    H248171   0.812   5.754   3.584 -1.4626 -0.4039  1.1283
 8894TIP3   OH248172   1.927   0.066   2.729 -0.3009 -0.1695 -0.2279
 8894TIP3    H148173   2.009   0.090   2.686  1.0453 -1.4164  1.4742
 8894TIP3    H248174   1.951  -0.006   2.788 -2.0572  1.1424  2.2825
 8895TIP3   OH248175   2.998   1.390   5.782 -0.0497 -0.2371  0.0824
 8895TIP3    H148176   2.905   1.379   5.763 -0.6422  2.0242  1.3374
 8895TIP3    H248177   3.001   1.445   5.860  2.3426  0.9319 -0.7117
 8896TIP3   OH248178   3.620   5.093   4.739 -0.0109 -0.2248  0.4148
 8896TIP3    H148179   3.679   5.115   4.667 -1.4729  0.9712 -0.4928
 8896TIP3    H248180   3.661   5.018   4.782  1.7640  0.1020 -0.6098
 8897TIP3   OH248181   5.083   1.505  14.024 -0.8302 -0.0753  0.1262
 8897TIP3    H148182   5.171   1.512  13.988 -1.2482 -1.2284 -1.2284
 8897TIP3    H248183   5.040   1.587  13.999 -0.8508 -0.4992 -1.3314
 8898TIP3   OH248184   5.069   6.827   3.102 -0.5440  0.8583  0.0306
 8898TIP3    H148185   5.164   6.838   3.109 -0.4712 -0.1064  0.7349
 8898TIP3    H248186   5.035   6.870   3.180 -0.7643  1.8495 -0.5857
 8899TIP3   OH248187   4.995   2.260  14.619  0.5091  0.2439 -0.1513
 8899TIP3    H148188   5.089   2.248  14.634  0.4641 -1.0138 -0.7898
 8899TIP3    H248189   4.986   2.263  14.524 -0.0165  1.2149 -0.0864
 8900TIP3   OH248190   2.193   4.262   4.270  0.3079  0.1344 -0.1718
 8900TIP3    H148191   2.131   4.194   4.246  1.3279 -0.6400 -0.7033
 8900TIP3    H248192   2.214   4.245   4.362  0.8006 -0.4660 -0.3950
 8901TIP3   OH248193   5.361   6.273  14.950 -0.0802  0.6155 -0.1835
 8901TIP3    H148194   5.335   6.349  15.001 -0.7764  0.4467 -0.2798
 8901TIP3    H248195   5.300   6.271  14.877 -1.7129 -1.4455  1.1242
 8902TIP3   OH248196   4.984   0.905   0.737  0.2913  0.5479 -0.0702
 8902TIP3    H148197   5.041   0.828   0.732 -0.7202 -0.1474 -1.5556
 8902TIP3    H248198   4.909   0.876   0.788 -0.1359  0.5071 -0.7161
 8903TIP3   OH248199   0.658   0.977   3.434 -0.3888  0.4175  0.7294
 8903TIP3    H148200   0.616   0.989   3.349  0.1430 -1.8177  0.0892
 8903TIP3    H248201   0.591   1.004   3.498 -1.7509 -0.3290 -0.3334
 8904TIP3   OH248202   3.825   4.243   3.449 -0.7787 -0.1170  0.3293
 8904TIP3    H148203   3.759   4.173   3.446 -3.0961  1.9394 -0.6027
 8904TIP3    H248204   3.889   4.213   3.514 -2.8549 -2.0644  1.6451
 8905TIP3   OH248205   6.179   0.060   0.472  0.1745 -0.4071 -0.3218
 8905TIP3    H148206   6.139  -0.026   0.476 -0.4356 -0.1357 -0.4806
 8905TIP3    H248207   6.273   0.043   0.477  0.0403 -1.0448  0.1186
 8906TIP3   OH248208   3.201   0.946  12.217 -0.1643 -0.0575 -0.0875
 8906TIP3    H148209   3.249   0.873  12.178 -0.5832  0.0781 -0.8788
 8906TIP3    H248210   3.124   0.957  12.161  0.1835  1.3679 -0.3284
 8907TIP3   OH248211   6.120   2.684   5.298  0.5167  0.0776  0.2722
 8907TIP3    H148212   6.058   2.617   5.270  0.6649 -0.2328  0.6807
 8907TIP3    H248213   6.078   2.767   5.275  0.0767 -0.1401  0.2869
 8908TIP3   OH248214   0.239   3.351  11.057 -0.4372 -0.1380 -0.3065
 8908TIP3    H148215   0.203   3.438  11.072 -1.0283 -0.3012 -0.7252
 8908TIP3    H248216   0.248   3.346  10.962 -0.3836 -0.5247 -0.2809
 8909TIP3   OH248217   3.771   4.550  12.354 -0.5271  0.1516 -0.4414
 8909TIP3    H148218   3.845   4.610  12.368 -1.5546  1.3027  0.2221
 8909TIP3    H248219   3.793   4.504  12.273  1.4368 -0.3525  0.3074
 8910TIP3   OH248220   1.979   3.294  13.236 -0.5166  0.3109  0.6640
 8910TIP3    H148221   1.953   3.322  13.324 -0.2770 -3.8161  2.2887
 8910TIP3    H248222   1.975   3.199  13.239  1.4688 -0.1133 -3.2485
 8911TIP3   OH248223   4.612   5.994   5.671 -0.4955 -0.4901 -0.1124
 8911TIP3    H148224   4.567   5.996   5.586 -1.6514 -2.1788  0.4091
 8911TIP3    H248225   4.687   5.938   5.656 -1.1583 -1.4710  0.1653
 8912TIP3   OH248226   6.369   1.653   4.961 -0.1383  0.5273  0.3020
 8912TIP3    H148227   6.395   1.564   4.985 -1.3626 -0.1366 -0.6781
 8912TIP3    H248228   6.412   1.709   5.025  2.1872 -0.5903 -0.1791
 8913TIP3   OH248229   1.471   5.004   5.001  0.8142  0.8354 -0.3283
 8913TIP3    H148230   1.413   5.080   5.001  2.6331  2.2896  0.2940
 8913TIP3    H248231   1.547   5.032   4.949  2.3013  0.0993  1.3592
 8914TIP3   OH248232   4.149   5.612  10.252  0.0385 -0.0886  0.6086
 8914TIP3    H148233   4.071   5.587  10.301 -0.9995  0.6886 -0.5978
 8914TIP3    H248234   4.117   5.666  10.181  1.7881  1.0806  0.6384
 8915TIP3   OH248235   5.116   5.520   3.123 -0.0295 -0.9323 -0.3437
 8915TIP3    H148236   5.060   5.564   3.187  3.3102  2.1030  0.7750
 8915TIP3    H248237   5.176   5.468   3.175  2.8920  1.7575 -0.7296
 8916TIP3   OH248238   4.943   3.390  11.521  0.0369 -0.2735 -0.0764
 8916TIP3    H148239   5.016   3.450  11.505 -0.8421  0.4262 -1.6834
 8916TIP3    H248240   4.890   3.435  11.587 -0.5248  0.6910 -1.1478
 8917TIP3   OH248241   3.511   6.519   6.628 -0.2406 -0.4361  0.1730
 8917TIP3    H148242   3.470   6.602   6.655  0.3980 -0.1594  0.3009
 8917TIP3    H248243   3.437   6.459   6.616 -0.7420  0.2468 -0.2694
 8918TIP3   OH248244   3.475   0.798   6.300  0.4103 -0.1477  0.0482
 8918TIP3    H148245   3.552   0.798   6.244  1.4154  0.9136  1.3715
 8918TIP3    H248246   3.439   0.886   6.292  0.7497  0.1310  1.2547
 8919TIP3   OH248247   2.865   3.246   1.540  0.4428 -0.2123 -0.5484
 8919TIP3    H148248   2.878   3.175   1.602  0.4226 -0.8358 -1.2481
 8919TIP3    H248249   2.953   3.266   1.507  0.8157  1.7644  1.4287
 8920TIP3   OH248250   5.292   3.817  16.521 -0.1964 -0.1254  0.1383
 8920TIP3    H148251   5.273   3.770  16.440 -0.8598 -0.1938  0.3249
 8920TIP3    H248252   5.383   3.844  16.513 -0.1033 -0.5924 -0.3986
 8921TIP3   OH248253   4.778   4.239   1.138  0.1208  0.3643 -0.0968
 8921TIP3    H148254   4.722   4.247   1.215  0.5087  0.7380  0.1546
 8921TIP3    H248255   4.725   4.272   1.065  0.0708  0.8643  0.1632
 8922TIP3   OH248256   0.323   4.196  15.037  0.1324 -0.0466  0.0076
 8922TIP3    H148257   0.418   4.205  15.029  0.2020  0.1972  1.0387
 8922TIP3    H248258   0.289   4.223  14.951  0.9651  0.3395 -0.2091
 8923TIP3   OH248259   2.110   6.109   4.506  0.4950 -0.0327 -0.0648
 8923TIP3    H148260   2.167   6.035   4.483 -0.5093 -1.6775  2.3557
 8923TIP3    H248261   2.022   6.081   4.481  0.0505  0.1447  1.2109
 8924TIP3   OH248262   4.756   5.213   0.734 -0.0641 -0.6131 -0.1531
 8924TIP3    H148263   4.786   5.198   0.823 -0.3264 -1.3072 -0.1727
 8924TIP3    H248264   4.734   5.306   0.731  2.4083  0.0489 -0.2402
 8925TIP3   OH248265   0.659   6.354   3.785 -0.3395  0.3425 -0.4325
 8925TIP3    H148266   0.605   6.430   3.765 -1.5055  0.0851  1.4540
 8925TIP3    H248267   0.605   6.279   3.759  0.1925  0.1204 -0.9152
 8926TIP3   OH248268   0.376   2.667   1.856  0.0254 -0.1823 -0.5510
 8926TIP3    H148269   0.441   2.657   1.787  0.5513  2.4773 -0.5677
 8926TIP3    H248270   0.309   2.724   1.818 -0.4738  0.0313  0.6087
 8927TIP3   OH248271   2.342   5.505   4.922  0.2749  0.1851  0.2471
 8927TIP3    H148272   2.317   5.467   5.006 -0.7122  0.0739 -0.0854
 8927TIP3    H248273   2.271   5.480   4.863  0.9623  0.2492 -0.6251
 8928TIP3   OH248274   6.604   2.679  14.921  0.0426  0.2620  0.4308
 8928TIP3    H148275   6.603   2.770  14.952 -1.7102  0.2819  0.3868
 8928TIP3    H248276   6.597   2.686  14.825 -0.6077  0.0837  0.4598
 8929TIP3   OH248277   6.744   6.132   2.638  0.5052 -1.2007 -0.6788
 8929TIP3    H148278   6.837   6.141   2.621  0.8643  0.8725  1.8050
 8929TIP3    H248279   6.705   6.213   2.604 -0.0992 -1.2199 -0.0575
 8930TIP3   OH248280   5.287   3.718  13.815  0.1925 -0.0522 -0.3392
 8930TIP3    H148281   5.306   3.797  13.764  0.3200 -0.5789 -1.1270
 8930TIP3    H248282   5.371   3.694  13.855 -0.2734  1.4104  1.7001
 8931TIP3   OH248283   4.876   4.956   3.303  0.0339 -0.2758  0.3190
 8931TIP3    H148284   4.782   4.940   3.301  0.2438 -2.1092  1.8663
 8931TIP3    H248285   4.912   4.898   3.235  0.0607  0.5925 -0.4308
 8932TIP3   OH248286   5.710   4.375  16.668  0.2346  0.1581  0.2561
 8932TIP3    H148287   5.617   4.397  16.675 -0.3418 -1.7251 -0.8191
 8932TIP3    H248288   5.736   4.412  16.583  0.5235  0.8145  0.6240
 8933TIP3   OH248289   0.997   4.304   1.661 -0.5374  0.1000 -0.9336
 8933TIP3    H148290   1.049   4.295   1.582  1.0926 -1.0987  0.2012
 8933TIP3    H248291   0.938   4.229   1.661 -0.0361 -0.3001 -0.6806
 8934TIP3   OH248292   2.406   2.065   3.794 -0.6840  0.3091  0.2736
 8934TIP3    H148293   2.486   2.112   3.822 -0.0560  0.0013 -0.9296
 8934TIP3    H248294   2.414   2.061   3.699 -0.9565 -1.8451  0.3111
 8935TIP3   OH248295   0.641   2.363   6.246  0.3904 -0.1665  0.6620
 8935TIP3    H148296   0.696   2.286   6.255  0.9607  0.2287  0.6432
 8935TIP3    H248297   0.608   2.379   6.335  1.6137  0.5327  1.0135
 8936TIP3   OH248298   2.324   5.978  13.012  0.4595  0.5108 -0.2340
 8936TIP3    H148299   2.250   5.965  13.072  2.1904 -0.6162  1.7878
 8936TIP3    H248300   2.308   6.064  12.972 -1.7940  0.3965  0.3016
 8937TIP3   OH248301   6.354   4.189   1.846 -0.3577 -0.6011 -0.1667
 8937TIP3    H148302   6.344   4.176   1.752 -0.4364  1.1814 -0.4338
 8937TIP3    H248303   6.433   4.141   1.869  0.1588 -0.3209 -1.3141
 8938TIP3   OH248304   6.485   4.193   1.073  0.0548  0.6400 -0.4908
 8938TIP3    H148305   6.569   4.152   1.091 -0.0504  0.7283  0.2589
 8938TIP3    H248306   6.436   4.185   1.155 -1.2873 -0.8499 -1.3714
 8939TIP3   OH248307   1.036   6.626  10.212  0.0161 -0.0294 -0.4316
 8939TIP3    H148308   1.096   6.585  10.273  0.2421 -1.6711 -1.6778
 8939TIP3    H248309   1.085   6.700  10.176 -0.4800  1.5784  2.0270
 8940TIP3   OH248310   0.278   5.537   5.166  0.7867  0.6393 -0.1267
 8940TIP3    H148311   0.251   5.476   5.234  1.7526 -1.0015 -1.1657
 8940TIP3    H248312   0.195   5.574   5.134 -0.0187 -1.5897 -0.7901
 8941TIP3   OH248313   2.245   1.782  13.836  0.3960 -0.5373 -0.3179
 8941TIP3    H148314   2.220   1.845  13.903  3.4416  1.0221 -0.4483
 8941TIP3    H248315   2.266   1.702  13.884 -0.6843 -0.5282  0.1838
 8942TIP3   OH248316   0.617   4.956  13.053 -0.2075  0.1941 -0.4080
 8942TIP3    H148317   0.692   4.970  12.995 -0.5310  2.0529 -0.4589
 8942TIP3    H248318   0.612   4.861  13.064  0.4830 -0.1637 -2.6034
 8943TIP3   OH248319   0.973   2.153  11.688  0.2089  0.3370  0.1148
 8943TIP3    H148320   0.926   2.206  11.623  3.9659 -0.1045 -3.3396
 8943TIP3    H248321   0.948   2.063  11.669  0.1650  0.3022  0.3310
 8944TIP3   OH248322   5.944   4.731  15.883 -0.3175 -0.5506 -0.0776
 8944TIP3    H148323   5.852   4.729  15.859 -0.6085  1.8994  0.4861
 8944TIP3    H248324   5.963   4.824  15.896  2.2785 -0.9600 -0.3159
 8945TIP3   OH248325   0.430   6.555  16.945 -0.3593 -0.5836 -0.1306
 8945TIP3    H148326   0.525   6.547  16.930 -0.1046 -0.0856  1.1366
 8945TIP3    H248327   0.399   6.610  16.873  0.4164 -0.2440 -0.2155
 8946TIP3   OH248328   0.101   3.118  14.787 -0.0493  0.4720  0.3155
 8946TIP3    H148329   0.167   3.068  14.739 -1.4893 -1.3309  0.0880
 8946TIP3    H248330   0.104   3.206  14.749  0.8901 -0.1048 -1.0007
 8947TIP3   OH248331   4.461   4.675   5.628  0.0933 -0.0637  0.0014
 8947TIP3    H148332   4.547   4.716   5.638  0.6756 -0.7218 -1.9102
 8947TIP3    H248333   4.403   4.728   5.684  1.5218  1.0284  0.5183
 8948TIP3   OH248334   4.142   6.238  15.103  0.0369  0.2846 -0.6360
 8948TIP3    H148335   4.192   6.270  15.178 -1.5010  0.7397  0.2395
 8948TIP3    H248336   4.130   6.316  15.049 -0.7641  0.4498 -0.2273
 8949TIP3   OH248337   5.270   2.646  12.264  0.0975  0.6459  0.4349
 8949TIP3    H148338   5.228   2.728  12.237  0.6807  0.6945 -0.3433
 8949TIP3    H248339   5.204   2.579  12.248  0.0030  0.8286  0.0510
 8950TIP3   OH248340   1.645   6.521  13.026 -0.3292  0.0778 -0.2601
 8950TIP3    H148341   1.665   6.485  12.939 -0.6750  2.7992 -1.5773
 8950TIP3    H248342   1.709   6.479  13.084  0.3639 -1.3273 -1.9221
 8951TIP3   OH248343   0.321   1.232   4.602  0.4197  0.1703 -0.5301
 8951TIP3    H148344   0.330   1.155   4.547 -2.0133  0.4963 -1.5065
 8951TIP3    H248345   0.397   1.286   4.581  1.1575 -1.0960 -1.2146
 8952TIP3   OH248346   1.460   6.475  11.899  0.4076  0.2154 -0.4025
 8952TIP3    H148347   1.553   6.455  11.905  0.5087  0.4324 -1.1554
 8952TIP3    H248348   1.433   6.492  11.990  1.3981  1.4914 -0.3168
 8953TIP3   OH248349   4.286   5.735  16.034 -0.2861  0.4866 -0.2936
 8953TIP3    H148350   4.250   5.724  15.946  0.2447 -2.0134 -0.2825
 8953TIP3    H248351   4.377   5.760  16.019 -0.1267 -0.1835 -0.4898
 8954TIP3   OH248352   1.745   5.933  12.859 -0.3614  0.9135  0.5540
 8954TIP3    H148353   1.829   5.898  12.889 -0.3303 -0.7477 -1.3461
 8954TIP3    H248354   1.705   5.863  12.808 -1.8683  2.4748 -0.5470
 8955TIP3   OH248355   3.608   2.847  15.215  0.4614 -0.6457 -0.2913
 8955TIP3    H148356   3.560   2.852  15.133  1.2269  1.2147 -0.6746
 8955TIP3    H248357   3.688   2.799  15.193  0.4526 -0.5499 -0.5363
 8956TIP3   OH248358   1.890   2.369  15.862  0.3801  0.9295 -0.0143
 8956TIP3    H148359   1.854   2.414  15.938 -0.0184  0.7041 -0.0687
 8956TIP3    H248360   1.953   2.307  15.899 -1.1875 -0.5449  0.3049
 8957TIP3   OH248361   6.582   0.342  12.987 -0.2064  0.0448 -0.0355
 8957TIP3    H148362   6.643   0.307  13.052  0.3051  1.2576  0.1732
 8957TIP3    H248363   6.578   0.275  12.919  1.0646 -0.2413  0.1399
 8958TIP3   OH248364   0.325   4.410   4.226  0.3308 -0.0709  0.6533
 8958TIP3    H148365   0.359   4.350   4.159  0.2610  0.5057  0.0845
 8958TIP3    H248366   0.266   4.468   4.177  0.2329  0.3201  1.2345
 8959TIP3   OH248367   4.940   0.657  15.469  0.6449 -0.0981  0.3285
 8959TIP3    H148368   4.857   0.609  15.476 -0.1272  0.7917 -1.9537
 8959TIP3    H248369   5.007   0.594  15.496 -0.6141 -1.4401  0.4108
 8960TIP3   OH248370   2.949   3.747   0.010  0.3739 -0.1292  0.0434
 8960TIP3    H148371   3.036   3.782  -0.009  0.7776  1.1812  3.6213
 8960TIP3    H248372   2.889   3.818  -0.015  0.8274  1.2180  2.4691
 8961TIP3   OH248373   6.449   5.218  11.947  0.1786 -0.0153 -0.1147
 8961TIP3    H148374   6.459   5.292  11.888 -0.5092 -0.5976 -0.9986
 8961TIP3    H248375   6.357   5.220  11.973 -0.3076 -1.4517 -1.4636
 8962TIP3   OH248376   0.283   1.642  16.949  0.6371 -0.2955  0.3246
 8962TIP3    H148377   0.306   1.734  16.935 -0.4542  0.1095  1.0134
 8962TIP3    H248378   0.240   1.641  17.035  1.7885 -1.6732  0.9269
 8963TIP3   OH248379   1.627   6.672  15.736 -0.2678 -0.5291 -0.7199
 8963TIP3    H148380   1.595   6.582  15.746 -0.5104 -0.2644  1.4341
 8963TIP3    H248381   1.591   6.719  15.811  2.1170  0.6883 -0.2192
 8964TIP3   OH248382   6.776   2.405  12.201 -0.4034 -0.0722  0.1650
 8964TIP3    H148383   6.789   2.413  12.295  0.0812 -0.4249  0.1343
 8964TIP3    H248384   6.796   2.492  12.166 -0.1974 -0.0433  0.3515
 8965TIP3   OH248385   6.596   4.678  12.939 -0.1080 -0.1139  0.0179
 8965TIP3    H148386   6.563   4.670  13.028  0.4042 -2.0122  0.0813
 8965TIP3    H248387   6.529   4.728  12.893 -1.2506 -0.6420  1.0394
 8966TIP3   OH248388   1.992   0.024  15.709  0.3994  0.3056 -0.1437
 8966TIP3    H148389   2.042   0.104  15.695 -0.1095  1.1611  2.3576
 8966TIP3    H248390   2.052  -0.047  15.687  1.8024  1.3398  0.2410
 8967TIP3   OH248391   5.459   4.386  13.761  0.6670 -0.2371 -0.8733
 8967TIP3    H148392   5.454   4.439  13.840  0.7037 -1.1589 -0.2363
 8967TIP3    H248393   5.428   4.444  13.691  0.3310  0.4871 -0.1381
 8968TIP3   OH248394   4.345   2.789  11.208  0.3726  0.1636  0.3506
 8968TIP3    H148395   4.367   2.849  11.137  1.7743  0.1211  0.7214
 8968TIP3    H248396   4.348   2.702  11.167  3.6666 -0.1044  0.9186
 8969TIP3   OH248397   3.088   4.794  11.491 -0.1907 -0.5997  0.7919
 8969TIP3    H148398   3.009   4.823  11.538 -1.4416  0.0793 -1.5546
 8969TIP3    H248399   3.083   4.699  11.493 -2.5854 -0.6563 -1.4521
 8970TIP3   OH248400   1.937   5.308   5.883  0.1527 -0.6383 -0.8060
 8970TIP3    H148401   1.880   5.302   5.959  1.5998  2.1330  0.6400
 8970TIP3    H248402   1.932   5.400   5.856  1.8495 -0.9215 -2.3100
 8971TIP3   OH248403   5.855   1.930   5.309 -0.1458 -0.0477  0.1693
 8971TIP3    H148404   5.889   1.985   5.239  0.4024  0.8947  1.1339
 8971TIP3    H248405   5.806   1.862   5.265  1.9358 -0.7313 -1.2300
 8972TIP3   OH248406   1.230   4.177  15.026 -0.0888  0.3706  0.5489
 8972TIP3    H148407   1.280   4.109  14.979  0.0399  0.9197 -0.1352
 8972TIP3    H248408   1.145   4.177  14.983  0.3944  1.6498 -0.4704
 8973TIP3   OH248409   3.178   6.060   1.937 -0.1020  0.5196  0.3178
 8973TIP3    H148410   3.231   5.981   1.948 -0.7875 -0.2684 -1.5139
 8973TIP3    H248411   3.242   6.130   1.928  0.5155  0.5138  3.5013
 8974TIP3   OH248412   0.052   3.876  14.929  0.1539 -0.3627  0.0541
 8974TIP3    H148413   0.060   3.781  14.936  1.6563 -0.1845  1.4340
 8974TIP3    H248414  -0.022   3.898  14.986  0.4984 -0.6270  0.6156
 8975TIP3   OH248415   2.068   1.025   3.318 -0.1598 -0.0183 -0.2608
 8975TIP3    H148416   2.124   1.025   3.241 -0.0380  0.0612 -0.1731
 8975TIP3    H248417   2.058   0.932   3.340 -2.6283 -0.2967 -2.1165
 8976TIP3   OH248418   1.056   5.191  14.279 -0.5677 -0.2979  0.5830
 8976TIP3    H148419   1.101   5.235  14.351 -1.3269 -0.5286  1.2160
 8976TIP3    H248420   1.104   5.109  14.266  2.3295  1.5937 -2.1590
 8977TIP3   OH248421   5.257   3.228   2.518 -1.0412 -0.0252  0.6181
 8977TIP3    H148422   5.244   3.138   2.488 -2.5229 -0.3681  2.1535
 8977TIP3    H248423   5.325   3.222   2.585 -0.3506  0.1989 -0.0392
 8978TIP3   OH248424   4.733   2.462   0.076 -0.0806 -0.4402  0.4320
 8978TIP3    H148425   4.699   2.387   0.124 -1.4527  0.4298  0.8618
 8978TIP3    H248426   4.679   2.467  -0.003  0.5544 -0.3859 -0.0117
 8979TIP3   OH248427   3.587   5.342  16.323  0.0106  0.1229  0.3929
 8979TIP3    H148428   3.649   5.350  16.395 -0.0808 -1.8494  0.7470
 8979TIP3    H248429   3.640   5.343  16.244  0.2833  0.5279  0.5820
 8980TIP3   OH248430   4.766   1.904  14.303  0.1702 -0.3968 -0.2961
 8980TIP3    H148431   4.697   1.860  14.253  1.8258 -2.0326 -1.2409
 8980TIP3    H248432   4.812   1.834  14.348  2.0851  0.4660 -0.7955
 8981TIP3   OH248433   1.630   1.135   5.404 -0.0771 -0.0740  0.2822
 8981TIP3    H148434   1.643   1.040   5.397 -1.8198 -0.3478  0.2870
 8981TIP3    H248435   1.536   1.147   5.393  0.0536  1.6282  0.7386
 8982TIP3   OH248436   0.435   4.781  16.109 -0.9468 -0.2911  0.5931
 8982TIP3    H148437   0.493   4.747  16.178 -1.7176  0.1081  1.4608
 8982TIP3    H248438   0.403   4.864  16.144  0.1417  0.9029 -1.0859
 8983TIP3   OH248439   4.790   5.468  14.089 -0.4122  0.0933 -0.6342
 8983TIP3    H148440   4.848   5.523  14.142 -2.1349  0.2207  1.2171
 8983TIP3    H248441   4.828   5.472  14.001  0.8672  2.2993 -0.0578
 8984TIP3   OH248442   4.838   1.177  14.999  0.0895  0.1437 -0.0327
 8984TIP3    H148443   4.775   1.166  14.928 -2.7864  3.1738  1.7932
 8984TIP3    H248444   4.826   1.099  15.053 -1.7469  0.3714 -0.0386
 8985TIP3   OH248445   4.167   2.491   4.590 -0.4046 -0.4071  0.2351
 8985TIP3    H148446   4.129   2.545   4.659 -0.3053 -0.1320  0.0769
 8985TIP3    H248447   4.098   2.483   4.525 -0.3576 -0.3133  0.1729
 8986TIP3   OH248448   5.966   4.872   1.208  0.5580  0.1930 -0.0841
 8986TIP3    H148449   6.028   4.802   1.229 -0.1979 -0.8373 -1.1225
 8986TIP3    H248450   5.968   4.930   1.284  1.7627 -0.5549  0.4870
 8987TIP3   OH248451   3.453   1.668  15.752 -0.7731 -0.4220  0.4441
 8987TIP3    H148452   3.546   1.655  15.768 -1.2091 -4.5456  0.9447
 8987TIP3    H248453   3.449   1.739  15.688  2.8267 -1.0305 -0.7177
 8988TIP3   OH248454   3.733   4.014  16.775  0.3569 -0.2647 -0.7974
 8988TIP3    H148455   3.822   4.041  16.752 -0.0553  0.8263 -1.1994
 8988TIP3    H248456   3.697   4.088  16.823 -0.9634  0.1373 -2.3036
 8989TIP3   OH248457   2.390   0.972   0.628  0.4743 -0.3361  0.1758
 8989TIP3    H148458   2.423   0.974   0.539 -0.2698 -1.2727 -0.1461
 8989TIP3    H248459   2.467   0.981   0.684  0.9332  0.3174 -0.5585
 8990TIP3   OH248460   5.922   2.545   3.288 -0.0108  0.2709  0.4638
 8990TIP3    H148461   5.940   2.628   3.333 -0.1482  2.0692 -2.5307
 8990TIP3    H248462   5.979   2.546   3.211 -2.5572 -0.6519 -1.6077
 8991TIP3   OH248463   1.972   1.781   1.350  0.2906 -0.6930 -0.4627
 8991TIP3    H148464   1.963   1.779   1.255 -0.5861 -0.5104 -0.3894
 8991TIP3    H248465   1.883   1.773   1.383  0.6005 -0.8740  0.3491
 8992TIP3   OH248466   1.379   1.696   3.023 -0.2120 -0.2809 -0.6309
 8992TIP3    H148467   1.388   1.601   3.020 -1.4129 -0.3992 -1.5490
 8992TIP3    H248468   1.462   1.728   3.059 -0.0251 -1.7008  0.2575
 8993TIP3   OH248469   1.619   5.481  14.297 -0.1890 -0.7148 -0.5068
 8993TIP3    H148470   1.704   5.443  14.320 -0.4206 -0.0123  1.7346
 8993TIP3    H248471   1.559   5.407  14.296 -0.6312 -0.6166  3.7657
 8994TIP3   OH248472   3.839   3.762   5.354 -0.4380 -0.6222 -0.4872
 8994TIP3    H148473   3.755   3.729   5.385 -0.2726 -0.9934 -0.4279
 8994TIP3    H248474   3.904   3.712   5.404 -0.1741 -0.7804 -0.9807
 8995TIP3   OH248475   3.877   0.365  11.685 -0.3731 -0.2777  0.5267
 8995TIP3    H148476   3.824   0.439  11.713 -3.2920 -2.4223  1.1923
 8995TIP3    H248477   3.869   0.364  11.589  0.0050  0.4441  0.4815
 8996TIP3   OH248478   0.843   6.552   4.933  0.2598  0.3726 -0.5296
 8996TIP3    H148479   0.761   6.510   4.958 -0.6529  2.5242  0.4282
 8996TIP3    H248480   0.910   6.507   4.984 -0.6275 -0.1211  0.2371
 8997TIP3   OH248481   2.291   4.463   5.641 -0.3650  0.0543 -0.0597
 8997TIP3    H148482   2.279   4.448   5.547 -0.3818 -3.6289  0.3939
 8997TIP3    H248483   2.207   4.439   5.680  0.2338 -0.3116  1.0453
 8998TIP3   OH248484   2.208   6.666  15.623 -0.0658  0.0238 -0.1940
 8998TIP3    H148485   2.238   6.611  15.695  1.6788 -1.4822 -1.9853
 8998TIP3    H248486   2.134   6.619  15.585 -0.1379  0.1545 -0.2189
 8999TIP3   OH248487   5.905   2.183   4.851 -0.5184  0.1897  0.1091
 8999TIP3    H148488   5.958   2.104   4.866 -1.4331 -0.6899 -1.0673
 8999TIP3    H248489   5.966   2.255   4.865  0.8895 -0.7697 -0.7756
 9000TIP3   OH248490   6.027   5.011  16.205  0.1876 -0.1331  0.4462
 9000TIP3    H148491   6.012   4.933  16.259 -1.6747  0.8617  1.4586
 9000TIP3    H248492   5.971   4.999  16.129  2.2147 -1.1563 -0.9756
 9001TIP3   OH248493   3.738   6.344  10.449  0.7233  0.4901 -0.3528
 9001TIP3    H148494   3.743   6.252  10.422  1.5327  0.1814  0.7747
 9001TIP3    H248495   3.776   6.346  10.536 -1.2771  1.5390  0.5710
 9002TIP3   OH248496   4.255   4.791  15.628 -0.0806  0.7277  0.0446
 9002TIP3    H148497   4.188   4.858  15.642 -0.2090  0.4513  0.8176
 9002TIP3    H248498   4.230   4.750  15.545 -0.6631  0.8735  0.1391
 9003TIP3   OH248499   1.519   1.986  12.463  0.2391  0.5297  0.1092
 9003TIP3    H148500   1.558   2.012  12.547  3.1517 -0.8404 -0.6902
 9003TIP3    H248501   1.514   2.067  12.413  0.5191  1.0123  0.8395
 9004TIP3   OH248502   3.796   3.520  12.026  0.2273 -0.7565  0.8252
 9004TIP3    H148503   3.732   3.472  12.078 -0.0222 -2.3595 -0.8568
 9004TIP3    H248504   3.866   3.456  12.008  0.6353 -0.0576 -0.2012
 9005TIP3   OH248505   5.728   6.013  12.608  0.1676 -0.3904 -0.8433
 9005TIP3    H148506   5.761   5.933  12.648 -1.0673 -0.7270 -0.4577
 9005TIP3    H248507   5.635   5.998  12.597 -0.3207  1.4380  0.3173
 9006TIP3   OH248508   6.772   3.912  14.171 -0.2178 -0.0200 -0.0658
 9006TIP3    H148509   6.714   3.870  14.107 -0.3747 -0.6585  0.4780
 9006TIP3    H248510   6.745   4.003  14.173  0.6293  0.3243 -1.8494
 9007TIP3   OH248511   6.692   2.907  13.273  0.0949  0.1121 -0.1257
 9007TIP3    H148512   6.708   2.910  13.178 -0.7791 -1.1238 -0.3367
 9007TIP3    H248513   6.618   2.967  13.286 -0.7140 -0.7792 -0.4636
 9008TIP3   OH248514   1.322   4.744   0.940 -0.1794 -0.6837 -0.3552
 9008TIP3    H148515   1.248   4.727   0.999 -0.4452  0.5019 -0.3245
 9008TIP3    H248516   1.298   4.825   0.894  1.6338  0.4592  0.5806
 9009TIP3   OH248517   5.428   2.897  11.926 -0.2826  0.0328 -0.5752
 9009TIP3    H148518   5.490   2.969  11.917  0.0217 -0.5055 -3.7805
 9009TIP3    H248519   5.471   2.837  11.988  1.4683  0.6212 -1.1608
 9010TIP3   OH248520   2.940   4.676  11.090 -0.1564  0.2208 -0.3728
 9010TIP3    H148521   2.930   4.642  11.001  1.0614 -1.4160  0.0573
 9010TIP3    H248522   2.858   4.653  11.134 -1.6922  2.9368 -1.5518
 9011TIP3   OH248523   1.647   6.538   0.414 -0.2667  0.6726 -0.4850
 9011TIP3    H148524   1.585   6.587   0.360 -1.1392  1.3891  1.0725
 9011TIP3    H248525   1.599   6.461   0.443 -0.1306  0.7486 -0.0365
 9012TIP3   OH248526   2.726   3.656   4.920  0.2906 -0.1739  0.6437
 9012TIP3    H148527   2.689   3.689   4.838  0.3495  2.4904  1.5990
 9012TIP3    H248528   2.821   3.657   4.906  0.2739 -0.3999  0.5116
 9013TIP3   OH248529   3.697   3.061  13.373  0.4017 -0.5565  0.5361
 9013TIP3    H148530   3.749   2.983  13.356  1.1053  0.1231 -0.5355
 9013TIP3    H248531   3.686   3.102  13.287  0.8230  0.9998  1.1833
 9014TIP3   OH248532   5.417   6.269  12.280 -0.3824 -0.0465 -0.2706
 9014TIP3    H148533   5.365   6.227  12.349 -1.1784  0.9535 -0.2373
 9014TIP3    H248534   5.404   6.363  12.294  1.4941  0.2573 -0.2297
 9015TIP3   OH248535   4.017   2.819   0.149  0.4060  0.3324  0.1850
 9015TIP3    H148536   4.013   2.772   0.232 -0.2640  0.3090  0.1469
 9015TIP3    H248537   4.110   2.828   0.131  0.5687 -1.6481 -0.1800
 9016TIP3   OH248538   3.649   2.370   6.796  0.4870 -0.3210 -0.1950
 9016TIP3    H148539   3.602   2.324   6.727  0.2505  0.3874 -0.5117
 9016TIP3    H248540   3.602   2.453   6.806  1.0051 -0.0760  0.2538
 9017TIP3   OH248541   5.674   5.715  15.737 -0.0831 -0.5668 -0.3965
 9017TIP3    H148542   5.767   5.699  15.724 -0.3533 -2.4640 -0.3033
 9017TIP3    H248543   5.664   5.810  15.730  1.6513 -0.4402 -1.7288
 9018TIP3   OH248544   4.950   0.338   5.025  0.0431 -0.0973 -0.1662
 9018TIP3    H148545   5.004   0.359   5.101 -0.3671 -2.2095  0.7874
 9018TIP3    H248546   5.012   0.323   4.954  0.8552 -2.5782  0.9322
 9019TIP3   OH248547   1.398   0.111  16.488 -0.3451 -0.7689 -0.5314
 9019TIP3    H148548   1.408   0.204  16.507 -3.7105  0.3463 -3.1897
 9019TIP3    H248549   1.357   0.075  16.566 -0.6563  0.4039 -0.1303
 9020TIP3   OH248550   0.350   0.597   2.874 -0.3244  0.0417 -1.2368
 9020TIP3    H148551   0.426   0.607   2.818  0.6859 -0.4362 -0.0052
 9020TIP3    H248552   0.381   0.621   2.961 -2.0974  1.7314 -0.9854
 9021TIP3   OH248553   0.497   6.628  14.647 -0.3800 -0.0144 -0.2181
 9021TIP3    H148554   0.467   6.669  14.566 -2.2803 -1.8710 -0.5519
 9021TIP3    H248555   0.593   6.633  14.643 -0.4705  2.7991 -0.9677
 9022TIP3   OH248556   6.060   2.017   6.490 -0.4513  0.9181  0.0294
 9022TIP3    H148557   5.975   2.058   6.506 -0.5225  1.3919 -1.4560
 9022TIP3    H248558   6.100   2.070   6.422  0.3521 -0.2588 -0.4502
 9023TIP3   OH248559   5.026   1.104   6.123  0.5590  0.4374 -0.1313
 9023TIP3    H148560   4.948   1.158   6.111 -0.9537 -1.0672  2.1614
 9023TIP3    H248561   5.062   1.132   6.208 -0.3192 -2.0681  1.1621
 9024TIP3   OH248562   5.483   2.052   2.010  0.3763  0.3479 -0.5585
 9024TIP3    H148563   5.439   2.000   1.943  0.4981 -0.3419 -0.1068
 9024TIP3    H248564   5.425   2.127   2.024 -0.0601  0.0635 -0.8271
 9025TIP3   OH248565   6.093   4.978   2.335  0.2903 -0.1704 -0.4568
 9025TIP3    H148566   6.040   5.015   2.265 -0.6437  0.9216  0.7704
 9025TIP3    H248567   6.160   5.043   2.351  1.0857 -0.8506 -0.9560
 9026TIP3   OH248568   3.003   2.864  17.079  0.5093 -0.1455  0.5114
 9026TIP3    H148569   2.946   2.787  17.088 -0.7252  0.5357 -1.0175
 9026TIP3    H248570   3.091   2.828  17.066 -0.0845 -1.3004 -0.4300
 9027TIP3   OH248571   0.176   1.713  11.058  0.1012 -0.0340 -0.3326
 9027TIP3    H148572   0.221   1.753  10.984 -0.8125 -2.7372 -2.5388
 9027TIP3    H248573   0.230   1.637  11.081 -0.9406 -0.6899  0.0294
 9028TIP3   OH248574   4.039   0.844   5.913 -0.6090  0.4198  0.1077
 9028TIP3    H148575   3.948   0.873   5.905 -1.7157 -2.4575  1.0462
 9028TIP3    H248576   4.040   0.789   5.991  1.9070  0.2024 -0.0020
 9029TIP3   OH248577   5.954   5.618   3.662  0.3335  0.1093  0.0471
 9029TIP3    H148578   5.871   5.598   3.706  0.0870 -0.7919 -0.7842
 9029TIP3    H248579   6.004   5.537   3.668 -0.7554 -1.0485 -3.5670
 9030TIP3   OH248580   5.534   0.223  12.121  0.2246  0.9237 -0.5034
 9030TIP3    H148581   5.559   0.166  12.193 -1.1562  0.1891 -0.5769
 9030TIP3    H248582   5.549   0.312  12.154  0.4457  0.5761  0.3526
 9031TIP3   OH248583   0.206   3.849  16.520  0.2297  0.0528  0.1410
 9031TIP3    H148584   0.120   3.848  16.563  0.6278 -0.4951  0.9516
 9031TIP3    H248585   0.227   3.756  16.507  1.2148  0.1283  1.0300
 9032TIP3   OH248586   3.141   3.109  11.788  0.4712 -0.1343  0.4397
 9032TIP3    H148587   3.182   3.125  11.873  0.7010 -0.4735  0.3989
 9032TIP3    H248588   3.195   3.157  11.726 -1.8086  3.2905  0.8290
 9033TIP3   OH248589   4.805   4.464   1.392  0.3028  0.5618 -0.9885
 9033TIP3    H148590   4.893   4.500   1.401 -0.9831  3.6766  0.5011
 9033TIP3    H248591   4.751   4.515   1.453 -2.4594 -1.6474 -1.3379
 9034TIP3   OH248592   2.250   0.474   1.292  0.3055 -0.0804 -0.3397
 9034TIP3    H148593   2.288   0.450   1.377 -1.2595 -0.2081  0.3553
 9034TIP3    H248594   2.273   0.400   1.235  0.9213 -0.2398  0.0926
 9035TIP3   OH248595   5.168   0.798  12.704 -0.2159  0.3223 -0.5254
 9035TIP3    H148596   5.214   0.881  12.695  3.9551 -1.6481  0.2166
 9035TIP3    H248597   5.148   0.772  12.615  3.4963 -0.2572 -1.3596
 9036TIP3   OH248598   3.060   5.653   6.148  0.3731  0.3899  0.6838
 9036TIP3    H148599   3.136   5.683   6.098  0.1034  0.8708  0.5520
 9036TIP3    H248600   2.990   5.713   6.123 -0.4310 -0.9089 -0.2776
 9037TIP3   OH248601   6.615   3.533   2.419  0.1156 -0.4169 -0.5186
 9037TIP3    H148602   6.576   3.490   2.495 -1.5856  0.0633 -1.0783
 9037TIP3    H248603   6.672   3.466   2.380  0.6232 -0.8243  0.8810
 9038TIP3   OH248604   5.173   2.787  10.772  0.1706 -0.4758 -0.3828
 9038TIP3    H148605   5.239   2.783  10.702  1.5580  0.4658  0.8227
 9038TIP3    H248606   5.098   2.828  10.730  1.0087  0.1560 -1.3198
 9039TIP3   OH248607   2.239   4.748   5.362 -0.8105 -0.1952 -0.1356
 9039TIP3    H148608   2.183   4.770   5.287 -0.0563  0.2423 -0.5768
 9039TIP3    H248609   2.246   4.653   5.359  1.1368 -0.0568 -2.0689
 9040TIP3   OH248610   1.024   2.606  14.372  0.3626 -0.2398  0.2569
 9040TIP3    H148611   1.045   2.651  14.291 -1.9550 -0.4355 -0.5353
 9040TIP3    H248612   1.049   2.515  14.357  2.0693  0.1347  0.6652
 9041TIP3   OH248613   0.254   0.993   2.289  0.1447 -0.2576 -0.4545
 9041TIP3    H148614   0.197   0.919   2.308  1.3376 -1.0118  0.3562
 9041TIP3    H248615   0.318   0.993   2.360  1.0112  0.6874 -1.1913
 9042TIP3   OH248616   5.247   3.988  14.715  0.2632  0.0063 -0.1566
 9042TIP3    H148617   5.204   3.925  14.773 -1.4771  0.7369 -0.5785
 9042TIP3    H248618   5.262   4.065  14.769 -1.0624  0.5674 -0.5385
 9043TIP3   OH248619   2.808   1.091   1.779  0.0675 -0.4146 -0.0579
 9043TIP3    H148620   2.869   1.033   1.825  0.0081 -0.6948 -0.3332
 9043TIP3    H248621   2.854   1.175   1.773  0.1291 -0.4137  0.3937
 9044TIP3   OH248622   2.905   4.995  16.484  0.2105  0.1475 -0.2526
 9044TIP3    H148623   2.836   4.968  16.424 -2.9156  2.5948  1.9145
 9044TIP3    H248624   2.895   4.938  16.560  2.4291 -1.2167 -0.9024
 9045TIP3   OH248625   4.426   6.086  13.129  0.0817 -0.3328 -0.2681
 9045TIP3    H148626   4.386   6.173  13.124 -1.2799 -0.7813  1.6291
 9045TIP3    H248627   4.396   6.041  13.050 -1.6375 -0.0067  0.1549
 9046TIP3   OH248628   4.135   1.365   1.732 -0.4284 -0.5420  0.1335
 9046TIP3    H148629   4.064   1.404   1.784  0.2091  0.5453  0.2258
 9046TIP3    H248630   4.214   1.410   1.763 -0.0400  0.2858 -1.8904
 9047TIP3   OH248631   6.667   1.348  14.788  0.2742 -0.7756 -0.2621
 9047TIP3    H148632   6.591   1.300  14.819  1.1285 -1.8587  0.2543
 9047TIP3    H248633   6.670   1.332  14.694 -0.8019  0.2924 -0.5037
 9048TIP3   OH248634   2.218   6.168  13.605  0.3090 -0.8512 -0.2123
 9048TIP3    H148635   2.257   6.143  13.689  0.0209  0.0465  0.2086
 9048TIP3    H248636   2.260   6.112  13.540  3.5560  1.1584 -0.0418
 9049TIP3   OH248637   5.490   0.597   6.531  0.4214  0.1422  0.0747
 9049TIP3    H148638   5.424   0.606   6.462 -0.7063  0.5408  1.1545
 9049TIP3    H248639   5.537   0.681   6.530  0.8781 -0.1153 -0.6534
 9050TIP3   OH248640   2.550   6.154   2.204 -0.0632  0.5518  0.3434
 9050TIP3    H148641   2.503   6.107   2.135 -0.5607  0.8506  0.4712
 9050TIP3    H248642   2.635   6.174   2.166  1.4057 -3.1117  1.2863
 9051TIP3   OH248643   0.050   1.256  12.260  0.0495  0.5070 -0.1115
 9051TIP3    H148644  -0.000   1.178  12.281  0.3197  0.3871  0.0880
 9051TIP3    H248645   0.088   1.237  12.174 -0.8647  0.9051 -0.6129
 9052TIP3   OH248646   5.676   5.749   3.618  0.6274 -0.3040  0.4438
 9052TIP3    H148647   5.585   5.768   3.643  0.5742 -0.2169  0.1808
 9052TIP3    H248648   5.725   5.823   3.654  0.5728 -0.2687  0.4476
 9053TIP3   OH248649   6.148   1.474   3.178 -0.7215  0.5100 -0.2657
 9053TIP3    H148650   6.078   1.534   3.202 -0.6232  1.0369 -1.2449
 9053TIP3    H248651   6.114   1.425   3.104 -0.2902  0.3237 -0.3462
 9054TIP3   OH248652   3.942   5.567  12.620 -0.8613  0.3163 -0.2560
 9054TIP3    H148653   3.929   5.573  12.525 -1.0950 -1.1625 -0.3296
 9054TIP3    H248654   3.980   5.481  12.634  1.7999  1.5226  0.7370
 9055TIP3   OH248655   6.608   1.011  16.115 -0.5302  0.2781  0.0017
 9055TIP3    H148656   6.694   1.011  16.156 -0.9852  1.8766  1.0414
 9055TIP3    H248657   6.621   1.060  16.034 -0.2025 -0.6154 -0.5014
 9056TIP3   OH248658   1.316   5.846  12.928  0.1571  0.0664  0.5497
 9056TIP3    H148659   1.392   5.796  12.958  0.1687 -0.2294  0.0495
 9056TIP3    H248660   1.300   5.910  12.997  0.4296 -0.3297  0.9873
 9057TIP3   OH248661   0.598   0.173   4.998  0.3125 -0.8042  0.1994
 9057TIP3    H148662   0.514   0.216   4.986  0.0208 -1.6840 -1.1741
 9057TIP3    H248663   0.653   0.208   4.929  0.3284 -1.9624 -0.4062
 9058TIP3   OH248664   4.359   1.824   5.883  0.3228 -0.3403  0.1820
 9058TIP3    H148665   4.377   1.801   5.792 -1.9676 -3.0072  0.2511
 9058TIP3    H248666   4.442   1.810   5.928  0.5862 -2.9815 -0.8995
 9059TIP3   OH248667   3.509   1.253  13.563 -0.2579  0.2607  0.1759
 9059TIP3    H148668   3.520   1.234  13.470  1.7303 -1.3014  0.6763
 9059TIP3    H248669   3.461   1.178  13.597 -0.0040  0.3021  0.6231
 9060TIP3   OH248670   6.634   3.802   1.183 -0.0057  0.2513  0.2169
 9060TIP3    H148671   6.695   3.870   1.154 -0.7667  1.1430  0.6611
 9060TIP3    H248672   6.682   3.754   1.250  0.2042  0.9706  0.5923
 9061TIP3   OH248673   0.479   6.057   2.465  0.4639  0.6011 -0.4358
 9061TIP3    H148674   0.524   6.048   2.550  0.2429  3.2265  0.0332
 9061TIP3    H248675   0.409   5.992   2.469 -1.2256  2.3538  2.6262
 9062TIP3   OH248676   4.793   5.203   1.964 -0.1834 -0.3415  0.7631
 9062TIP3    H148677   4.841   5.198   1.881  0.7140  1.1018  1.1736
 9062TIP3    H248678   4.841   5.144   2.022  1.3195  1.2633  1.2403
 9063TIP3   OH248679   5.987   4.958  14.108  0.0636 -0.4084 -0.6604
 9063TIP3    H148680   6.049   4.944  14.036 -0.3525  0.8996 -1.3077
 9063TIP3    H248681   5.901   4.945  14.068 -0.2244  1.3040 -0.6970
 9064TIP3   OH248682   1.294   4.624  11.741 -0.0440  0.2597  0.6210
 9064TIP3    H148683   1.226   4.626  11.674 -0.3937 -1.2761  0.9078
 9064TIP3    H248684   1.260   4.681  11.811 -0.4842  0.4408  0.2665
 9065TIP3   OH248685   2.895   5.339  12.924  0.4380 -0.3771  0.3457
 9065TIP3    H148686   2.881   5.425  12.885  1.9584  0.3996  1.4127
 9065TIP3    H248687   2.865   5.348  13.015  1.5409 -0.6420  0.7553
 9066TIP3   OH248688   2.540   1.484  10.805 -0.3973 -0.3489 -0.3945
 9066TIP3    H148689   2.521   1.465  10.713  1.9425 -2.5099 -0.5303
 9066TIP3    H248690   2.564   1.577  10.805 -2.7390  0.3519 -1.4690
 9067TIP3   OH248691   0.584   4.243  14.965 -0.5537 -0.0935 -0.4586
 9067TIP3    H148692   0.603   4.325  14.920 -0.3580  1.3953  2.0944
 9067TIP3    H248693   0.663   4.224  15.016 -0.5220 -2.0157 -1.1470
 9068TIP3   OH248694   4.592   0.910   2.447  0.5994 -0.1295  0.1150
 9068TIP3    H148695   4.544   0.992   2.461  2.0348  0.6557  0.5445
 9068TIP3    H248696   4.664   0.934   2.389 -0.0151 -1.4882 -1.2705
 9069TIP3   OH248697   0.621   3.595  11.050 -0.5282 -0.5658 -0.2266
 9069TIP3    H148698   0.610   3.614  10.957 -1.3725 -0.2021 -0.0564
 9069TIP3    H248699   0.552   3.645  11.093 -1.1733 -1.9797  0.4482
 9070TIP3   OH248700   5.822   1.308   4.671  0.0172 -0.2523 -0.0102
 9070TIP3    H148701   5.733   1.278   4.654  0.6290 -2.0260 -0.3582
 9070TIP3    H248702   5.829   1.392   4.627 -1.9054  0.6239  1.2427
 9071TIP3   OH248703   1.803   1.998   4.785 -0.2051 -0.1134  0.0514
 9071TIP3    H148704   1.816   1.953   4.868 -0.8088 -1.0992 -0.3689
 9071TIP3    H248705   1.789   1.928   4.721 -0.1152  0.6365 -0.8158
 9072TIP3   OH248706   1.549   4.465   6.136 -0.5788 -0.2012 -0.1250
 9072TIP3    H148707   1.588   4.508   6.212  1.5374 -2.1587  0.0110
 9072TIP3    H248708   1.462   4.436   6.166  0.1293 -0.7432  1.5136
 9073TIP3   OH248709   5.150   6.073  11.724 -0.0103 -0.4067  0.2608
 9073TIP3    H148710   5.086   6.082  11.794 -1.7608  1.6164 -1.4682
 9073TIP3    H248711   5.165   5.979  11.717 -2.8377 -0.9749  0.7559
 9074TIP3   OH248712   5.642   4.973  13.785  0.0966  0.0441 -0.5183
 9074TIP3    H148713   5.565   4.938  13.829  0.5962  0.7114  0.9236
 9074TIP3    H248714   5.609   5.046  13.733 -0.1453  0.8645  0.7526
 9075TIP3   OH248715   4.111   5.114  16.795 -0.1789  0.1015  0.5139
 9075TIP3    H148716   4.157   5.185  16.751  0.2080 -0.4442  0.0229
 9075TIP3    H248717   4.163   5.098  16.874  0.1489 -0.1210  0.2547
 9076TIP3   OH248718   1.169   5.861  11.879  0.3028 -0.0173 -0.0951
 9076TIP3    H148719   1.163   5.789  11.816  0.0248 -0.4364  0.4055
 9076TIP3    H248720   1.111   5.835  11.950  0.2511  0.6776  0.1165
 9077TIP3   OH248721   4.474   0.498   4.103 -0.0297  0.1589 -0.3484
 9077TIP3    H148722   4.489   0.527   4.013 -1.2320  0.8452 -0.3491
 9077TIP3    H248723   4.432   0.412   4.094 -0.8180  0.5518 -0.4672
 9078TIP3   OH248724   5.548   6.288  11.442  0.1592  0.5325 -0.3611
 9078TIP3    H148725   5.628   6.283  11.389 -0.7786 -1.4132 -1.7576
 9078TIP3    H248726   5.501   6.365  11.408 -0.2146 -0.4248 -2.1583
 9079TIP3   OH248727   0.814   6.794   4.515 -0.1955  0.1827  0.2167
 9079TIP3    H148728   0.879   6.727   4.496 -0.6984 -0.7224  1.5967
 9079TIP3    H248729   0.819   6.808   4.609 -0.2842  1.9198  0.0032
 9080TIP3   OH248730   2.063   4.414  14.750 -0.1661 -0.1375  0.3932
 9080TIP3    H148731   2.079   4.473  14.676 -0.4412  0.9373  1.1711
 9080TIP3    H248732   2.140   4.423  14.805 -0.6068  0.1956  0.9684
 9081TIP3   OH248733   1.256   5.448  13.961 -0.4972 -0.3438  0.3011
 9081TIP3    H148734   1.265   5.368  13.910  0.2519  0.2840 -0.5851
 9081TIP3    H248735   1.197   5.503  13.910 -0.3404  0.0009  0.4853
 9082TIP3   OH248736   0.894   6.520  13.866 -0.3531  0.0526 -0.2116
 9082TIP3    H148737   0.838   6.449  13.836 -3.0673  1.7292  0.5056
 9082TIP3    H248738   0.916   6.497  13.956  0.6853 -0.8975 -0.6808
 9083TIP3   OH248739   6.828   0.918  12.533  0.2924  0.0497 -0.1141
 9083TIP3    H148740   6.917   0.955  12.533  0.0409  0.7289  0.9826
 9083TIP3    H248741   6.833   0.843  12.475  1.5285  0.2263 -0.2728
 9084TIP3   OH248742   4.619   3.715  15.290 -0.2534 -0.0498 -0.4779
 9084TIP3    H148743   4.691   3.652  15.285  1.1990  1.5878 -1.0856
 9084TIP3    H248744   4.636   3.776  15.218 -2.2345  0.4243 -0.5957
 9085TIP3   OH248745   3.850   2.034  13.781 -0.3385 -0.0143  0.4742
 9085TIP3    H148746   3.902   2.046  13.701 -0.7238  1.7799  0.4397
 9085TIP3    H248747   3.801   1.954  13.767  0.3177 -0.2320 -0.6856
 9086TIP3   OH248748   2.985   0.070  12.149 -0.0615 -0.1252  0.2588
 9086TIP3    H148749   3.031  -0.011  12.129  1.8069  1.3501 -1.9079
 9086TIP3    H248750   2.911   0.071  12.088 -0.5087 -0.4891  0.7804
 9087TIP3   OH248751   1.300   5.886   0.745  0.3195  0.1764  0.3455
 9087TIP3    H148752   1.247   5.963   0.765 -1.0446 -0.3598 -0.9902
 9087TIP3    H248753   1.291   5.830   0.822 -0.9683  0.1738  0.2191
 9088TIP3   OH248754   1.705   5.677   5.481 -0.1418  0.4940  0.7028
 9088TIP3    H148755   1.756   5.598   5.467  0.6319  1.1214 -0.1151
 9088TIP3    H248756   1.624   5.646   5.522 -0.1843 -0.8084 -0.3051
 9089TIP3   OH248757   1.660   4.714  16.555 -0.1752 -0.0966 -0.0121
 9089TIP3    H148758   1.696   4.782  16.497  0.6146  0.5868  1.2177
 9089TIP3    H248759   1.605   4.762  16.617 -0.5306 -0.7245  0.1656
 9090TIP3   OH248760   6.137   6.734  13.561 -0.0704  0.2075  0.0369
 9090TIP3    H148761   6.187   6.762  13.638  0.4418 -1.1468  0.2358
 9090TIP3    H248762   6.080   6.664  13.594 -1.0539  0.7413 -0.4924
 9091TIP3   OH248763   6.403   2.211  13.604 -0.2054 -0.2933  0.1342
 9091TIP3    H148764   6.481   2.156  13.611  0.4861  0.5506 -0.6953
 9091TIP3    H248765   6.379   2.231  13.694  0.7229 -0.3085  0.3925
 9092TIP3   OH248766   0.842   1.489   3.666  0.2746  0.2508  0.0001
 9092TIP3    H148767   0.891   1.502   3.585  0.1496  0.3176 -0.0653
 9092TIP3    H248768   0.908   1.469   3.732  0.2349 -1.9947 -0.5652
 9093TIP3   OH248769   3.675   4.901   1.444 -0.7230  0.2656  0.0094
 9093TIP3    H148770   3.633   4.958   1.380  1.0628 -0.1650 -1.6324
 9093TIP3    H248771   3.766   4.897   1.416 -0.6277 -2.8161  0.4596
 9094TIP3   OH248772   1.945   3.033  13.313 -0.2264 -0.3852 -0.1643
 9094TIP3    H148773   2.031   3.040  13.355  0.0564 -0.8186 -0.6653
 9094TIP3    H248774   1.905   2.956  13.354 -0.2013 -0.4446 -0.2534
 9095TIP3   OH248775   3.425   4.513   5.397  0.2514  0.0299  0.1553
 9095TIP3    H148776   3.396   4.422   5.396  0.2342  0.0198  1.0310
 9095TIP3    H248777   3.521   4.507   5.387  0.4620 -0.1977  2.0603
 9096TIP3   OH248778   0.988   6.383  12.071  0.2248 -0.4279 -0.5661
 9096TIP3    H148779   0.924   6.436  12.023  0.4058  0.7055  0.3834
 9096TIP3    H248780   0.955   6.294  12.064 -0.7581 -0.0407 -1.1879
 9097TIP3   OH248781   4.919   6.756   4.876  0.2304  0.5910 -0.0004
 9097TIP3    H148782   5.005   6.730   4.911 -0.3093 -2.3128 -0.5553
 9097TIP3    H248783   4.863   6.765   4.954  0.9208  2.2059  0.3432
 9098TIP3   OH248784   3.454   5.347  11.929 -0.2392 -0.4034 -0.0914
 9098TIP3    H148785   3.390   5.305  11.872 -0.5917 -1.8939  1.3197
 9098TIP3    H248786   3.445   5.302  12.013  1.1398  0.8464  0.7893
 9099TIP3   OH248787   3.319   2.625   0.481 -0.2864  0.4674  0.1153
 9099TIP3    H148788   3.412   2.603   0.495 -0.4537 -1.2377 -1.1873
 9099TIP3    H248789   3.290   2.657   0.566  1.9096  2.7671  0.1338
 9100TIP3   OH248790   3.327   4.324   0.281 -0.0816  0.5092 -0.6900
 9100TIP3    H148791   3.261   4.393   0.280  0.8522  1.4885  0.9184
 9100TIP3    H248792   3.410   4.370   0.292  0.4665 -0.8713  1.7291
 9101TIP3   OH248793   5.228   6.689   4.733  0.5967 -0.0083  0.5534
 9101TIP3    H148794   5.306   6.733   4.767 -0.3801  1.4812  0.9604
 9101TIP3    H248795   5.215   6.726   4.646  0.2505 -0.1341  0.5480
 9102TIP3   OH248796   5.725   2.224  14.114 -0.2630 -0.3104  0.2432
 9102TIP3    H148797   5.764   2.144  14.149  0.6541 -0.0270 -0.0940
 9102TIP3    H248798   5.800   2.276  14.085 -0.8750  0.4681  0.0274
 9103TIP3   OH248799   0.957   2.185  16.869  0.4509  0.2989 -0.4072
 9103TIP3    H148800   0.901   2.155  16.798  1.2731  0.6520 -1.2165
 9103TIP3    H248801   1.040   2.207  16.827  1.2840 -0.4348  0.8031
 9104TIP3   OH248802   6.273   0.925   0.934  0.2122  0.3055  0.6710
 9104TIP3    H148803   6.337   0.912   1.004  0.0317  2.6181  1.3229
 9104TIP3    H248804   6.211   0.853   0.946 -0.7353  1.4942  3.9790
 9105TIP3   OH248805   2.355   3.029  15.668  0.3268 -0.0289  0.3252
 9105TIP3    H148806   2.430   3.076  15.632 -1.2532  1.7801 -0.8072
 9105TIP3    H248807   2.287   3.096  15.678 -0.7341 -1.3108  2.6668
 9106TIP3   OH248808   3.536   2.365  11.988  0.2676 -0.1967  0.0494
 9106TIP3    H148809   3.539   2.324  11.901 -1.4137  0.9999 -0.6162
 9106TIP3    H248810   3.556   2.457  11.972 -0.1317  0.0549  0.9250
 9107TIP3   OH248811   1.103   3.176   5.958 -0.0133 -0.5019 -0.0437
 9107TIP3    H148812   1.135   3.111   6.020 -0.3585 -0.3208  0.3264
 9107TIP3    H248813   1.031   3.219   6.003  0.1490  0.0758 -0.3201
 9108TIP3   OH248814   5.182   2.412   2.621 -0.1260 -0.3899  0.2240
 9108TIP3    H148815   5.182   2.493   2.570 -1.6607  0.0641  0.8541
 9108TIP3    H248816   5.101   2.417   2.672  1.2772 -0.8431  2.6499
 9109TIP3   OH248817   4.207   6.744   2.756 -0.2550  0.5247 -0.4065
 9109TIP3    H148818   4.261   6.765   2.680 -1.8268  1.9002 -1.1963
 9109TIP3    H248819   4.188   6.829   2.796 -2.4488  0.1712 -0.6065
 9110TIP3   OH248820   0.594   6.435  13.684  0.3358 -0.1914  0.1553
 9110TIP3    H148821   0.511   6.484  13.677 -0.7661 -2.1214 -1.3672
 9110TIP3    H248822   0.572   6.358  13.737  0.8760 -1.1812 -1.0064
 9111TIP3   OH248823   0.945   1.704  15.173  0.1740 -0.4982  0.1487
 9111TIP3    H148824   0.906   1.787  15.145  0.9294 -0.3394 -0.4512
 9111TIP3    H248825   0.899   1.682  15.254 -1.4637 -0.5343 -0.7472
 9112TIP3   OH248826   5.729   1.274   1.934 -0.3125  0.3201 -0.2080
 9112TIP3    H148827   5.637   1.254   1.913 -0.5118 -0.8744  1.5276
 9112TIP3    H248828   5.728   1.365   1.961 -1.1646  0.1105  0.5309
 9113TIP3   OH248829   3.551   2.872   4.590  0.0023  0.1487  0.5325
 9113TIP3    H148830   3.518   2.921   4.515  2.5749  2.1377  0.5561
 9113TIP3    H248831   3.629   2.827   4.557  0.0900 -0.4905  1.5642
 9114TIP3   OH248832   2.200   6.067   0.955  0.5230  0.0090 -0.2869
 9114TIP3    H148833   2.225   6.072   1.048 -0.6822  2.3524 -0.0153
 9114TIP3    H248834   2.278   6.095   0.908  0.4792  0.9236  0.1662
 9115TIP3   OH248835   3.684   1.683   2.563  0.0130 -0.3079 -0.1028
 9115TIP3    H148836   3.600   1.708   2.523  0.8682  1.8958 -0.7163
 9115TIP3    H248837   3.749   1.701   2.495  1.0873 -0.8417  0.7512
 9116TIP3   OH248838   5.268   6.202   3.370  0.0090 -0.0388 -0.3048
 9116TIP3    H148839   5.226   6.262   3.308 -0.0501 -0.3341 -0.5515
 9116TIP3    H248840   5.195   6.163   3.418 -0.1691 -1.9679 -2.0085
 9117TIP3   OH248841   3.325   3.355  15.711  0.1261 -0.4232  0.3293
 9117TIP3    H148842   3.313   3.282  15.651 -0.9376  0.9248 -1.1762
 9117TIP3    H248843   3.238   3.371  15.747  0.3383  0.1206  0.6070
 9118TIP3   OH248844   1.696   3.112   6.594  0.1507  0.0885  0.0138
 9118TIP3    H148845   1.763   3.108   6.662 -0.9380 -2.4437  1.0623
 9118TIP3    H248846   1.701   3.027   6.551 -3.0320 -0.6448  0.8612
 9119TIP3   OH248847   0.280   1.948  13.536  0.6818  0.1947  0.2618
 9119TIP3    H148848   0.251   1.933  13.626 -0.2603 -0.2982 -0.1079
 9119TIP3    H248849   0.317   2.037  13.537  0.3285  0.3429  1.0501
 9120TIP3   OH248850   3.907   0.719   1.703  0.0531 -0.1364 -0.6866
 9120TIP3    H148851   3.899   0.805   1.661 -1.5524 -0.4378 -1.0385
 9120TIP3    H248852   3.845   0.663   1.657  0.4368 -1.2738  0.1239
 9121TIP3   OH248853   2.996   2.429   0.946  0.3145 -0.4749  0.1532
 9121TIP3    H148854   3.046   2.383   0.879  1.5206  1.9268 -0.7077
 9121TIP3    H248855   2.906   2.400   0.933  0.8500 -1.7167 -1.0503
 9122TIP3   OH248856   4.669   1.853   3.617  0.1995 -0.2184 -0.0183
 9122TIP3    H148857   4.693   1.802   3.540  0.3775 -1.8326  1.0504
 9122TIP3    H248858   4.586   1.816   3.646 -1.2874  2.1838 -0.9486
 9123TIP3   OH248859   6.821   1.523  12.331  0.2220  0.5774  0.4629
 9123TIP3    H148860   6.903   1.550  12.373  1.2612 -2.5160  0.6518
 9123TIP3    H248861   6.826   1.428  12.326 -3.1591  0.2883 -0.0386
 9124TIP3   OH248862   1.474   4.983  12.095 -0.7476  0.2506 -0.4898
 9124TIP3    H148863   1.452   4.976  12.003  2.8731 -1.7462 -1.3946
 9124TIP3    H248864   1.545   5.048  12.098  0.7979 -1.4010  0.4589
 9125TIP3   OH248865   0.289   4.342   0.482 -0.3911 -0.8478  0.1234
 9125TIP3    H148866   0.263   4.409   0.419 -0.4095  0.6069  1.6141
 9125TIP3    H248867   0.225   4.349   0.553  2.0510  0.6369  2.3755
 9126TIP3   OH248868   6.009   6.403   3.754  0.0067 -0.4282  0.2298
 9126TIP3    H148869   6.020   6.394   3.660  0.4372 -1.4126  0.3606
 9126TIP3    H248870   5.917   6.426   3.766  0.4480  2.0138 -0.5499
 9127TIP3   OH248871   0.082   0.481  16.251 -0.2933 -0.7205  0.0934
 9127TIP3    H148872   0.099   0.443  16.336  1.4003 -1.0009 -0.3299
 9127TIP3    H248873   0.164   0.525  16.227 -0.9443 -0.0760 -1.0939
 9128TIP3   OH248874   3.802   5.203   4.566 -0.5756  0.0456 -0.2786
 9128TIP3    H148875   3.864   5.140   4.603 -0.1811  1.2760  1.2437
 9128TIP3    H248876   3.800   5.182   4.473  0.6974 -1.2260 -0.0608
 9129TIP3   OH248877   4.773   1.941   3.279  0.1087 -0.6623 -0.2550
 9129TIP3    H148878   4.742   1.856   3.312 -0.0536 -0.7146 -0.5412
 9129TIP3    H248879   4.722   1.956   3.200 -0.8076  0.3258  0.4935
 9130TIP3   OH248880   5.307   6.628   1.639  0.3187  0.5894 -0.1311
 9130TIP3    H148881   5.370   6.558   1.657  0.0093  0.4521  0.4597
 9130TIP3    H248882   5.224   6.582   1.624  0.3200  0.7770 -0.7419
 9131TIP3   OH248883   0.841   4.574   5.034 -0.0408  0.4847 -0.1615
 9131TIP3    H148884   0.857   4.481   5.019 -0.1449  0.2617  1.0137
 9131TIP3    H248885   0.805   4.578   5.122 -2.2081  1.4128 -1.0120
 9132TIP3   OH248886   2.658   5.691  13.447 -0.1342 -0.6867  0.5280
 9132TIP3    H148887   2.611   5.694  13.364  2.0515  3.0619 -0.8123
 9132TIP3    H248888   2.730   5.629  13.432 -0.7359 -1.3431  0.2844
 9133TIP3   OH248889   6.779   2.994   3.514  0.3677 -0.1397  0.3235
 9133TIP3    H148890   6.812   3.022   3.429 -0.2768 -1.4703 -0.4026
 9133TIP3    H248891   6.832   2.917   3.536 -0.6369 -0.8826  0.2477
 9134TIP3   OH248892   4.396   2.061   3.469  0.1879 -0.1613  0.2464
 9134TIP3    H148893   4.425   1.972   3.451 -0.4309 -0.4138  0.4625
 9134TIP3    H248894   4.343   2.085   3.392  1.3574  0.4889 -0.3915
 9135TIP3   OH248895   0.492   3.846   5.904 -0.0369  0.4683 -0.1077
 9135TIP3    H148896   0.427   3.800   5.851  0.5992 -0.1544 -0.3717
 9135TIP3    H248897   0.508   3.928   5.858 -1.6425  1.2772  0.6972
 9136TIP3   OH248898   3.724   0.073  12.587  0.0750 -0.7755 -0.0369
 9136TIP3    H148899   3.697   0.115  12.506 -2.4931  0.5562  1.3784
 9136TIP3    H248900   3.702  -0.020  12.574  2.0243 -1.0914 -1.6778
 9137TIP3   OH248901   4.795   5.956  11.139 -0.0834 -0.3512 -0.2726
 9137TIP3    H148902   4.865   5.956  11.074  1.2262 -0.5495  1.0999
 9137TIP3    H248903   4.818   6.025  11.200 -1.8519  0.5388 -0.5286
 9138TIP3   OH248904   5.707   2.695  11.793 -0.3456 -0.4482 -0.4967
 9138TIP3    H148905   5.751   2.727  11.714 -1.0103  0.2263 -0.6074
 9138TIP3    H248906   5.753   2.615  11.815  1.5621  0.7193 -0.0497
 9139TIP3   OH248907   6.286   2.972   2.092  0.2987 -0.1215 -0.0544
 9139TIP3    H148908   6.249   3.058   2.109 -0.0275 -0.1662 -0.5041
 9139TIP3    H248909   6.358   2.989   2.031  0.9840 -0.0426  0.7614
 9140TIP3   OH248910   2.831   0.416   3.727 -0.4431 -0.8727  0.6226
 9140TIP3    H148911   2.891   0.469   3.675 -2.1625 -0.9631 -1.5815
 9140TIP3    H248912   2.845   0.326   3.695 -0.5035 -1.1495  1.3539
 9141TIP3   OH248913   2.907   3.756   2.422 -0.0060  0.1984  0.1701
 9141TIP3    H148914   2.916   3.713   2.507  1.7256 -0.0999 -0.1237
 9141TIP3    H248915   2.900   3.849   2.443 -2.0048 -0.0212  0.7191
 9142TIP3   OH248916   6.185   3.403   2.055 -0.6044 -0.1856 -0.0291
 9142TIP3    H148917   6.262   3.378   2.004 -0.9793  0.7879 -1.1396
 9142TIP3    H248918   6.220   3.454   2.128  0.0083 -2.3254  1.2331
 9143TIP3   OH248919   3.946   6.463  13.380  0.3829 -0.7024 -0.2401
 9143TIP3    H148920   3.886   6.535  13.365  1.5554  0.2126 -0.7047
 9143TIP3    H248921   3.895   6.399  13.430 -0.2044  1.1390  1.6549
 9144TIP3   OH248922   3.311   4.267   3.696 -0.5282  0.0825 -0.1579
 9144TIP3    H148923   3.404   4.282   3.715 -0.3934  1.1690 -1.5210
 9144TIP3    H248924   3.279   4.216   3.771  1.5854 -1.9460 -0.5519
 9145TIP3   OH248925   4.679   5.594   6.373 -0.0795  0.2146 -0.2430
 9145TIP3    H148926   4.696   5.508   6.334 -2.2264 -0.6044  0.4728
 9145TIP3    H248927   4.763   5.621   6.410  0.7239 -1.4032 -0.7902
 9146TIP3   OH248928   2.677   4.726   3.469 -0.0573 -1.2911 -0.1806
 9146TIP3    H148929   2.737   4.712   3.541 -0.2888 -1.3075  0.0104
 9146TIP3    H248930   2.592   4.743   3.511  0.1158  0.2179 -0.4051
 9147TIP3   OH248931   5.938   4.669  13.156 -0.4725 -0.0229 -0.1577
 9147TIP3    H148932   5.942   4.580  13.192 -0.0115 -0.6716 -1.6827
 9147TIP3    H248933   5.886   4.659  13.076  1.0865  0.6975 -1.3085
 9148TIP3   OH248934   5.545   1.016  11.738  0.9449  0.5626 -0.1372
 9148TIP3    H148935   5.534   1.105  11.705 -2.3719  0.0911 -0.6543
 9148TIP3    H248936   5.577   0.967  11.662  0.5320  0.8929 -0.5314
 9149TIP3   OH248937   1.820   4.287  16.919  0.1685 -0.0432  0.0514
 9149TIP3    H148938   1.796   4.379  16.903  1.1196  0.4326  1.2096
 9149TIP3    H248939   1.738   4.239  16.910 -0.5490  1.0565  0.4406
 9150TIP3   OH248940   1.049   4.959  14.843 -0.4491  0.2359 -0.0176
 9150TIP3    H148941   0.955   4.954  14.825 -0.1552 -1.6578 -1.3329
 9150TIP3    H248942   1.075   4.868  14.860  0.8947  0.9016  1.8674
 9151TIP3   OH248943   1.300   0.313   4.520  0.2710  0.7441  0.0179
 9151TIP3    H148944   1.212   0.343   4.498 -0.0910  0.4884  1.0671
 9151TIP3    H248945   1.314   0.236   4.466 -0.6002  0.1185  0.6556
 9152TIP3   OH248946   4.917   4.472  15.631  0.0202  0.0893 -0.0968
 9152TIP3    H148947   4.950   4.409  15.695  0.3646  0.8725  0.5156
 9152TIP3    H248948   4.823   4.454  15.626  0.2409 -1.0417 -0.5903
 9153TIP3   OH248949   6.054   5.718  16.142  0.4321  0.5356 -0.0832
 9153TIP3    H148950   6.097   5.783  16.085 -0.5388  1.1146 -0.1698
 9153TIP3    H248951   6.007   5.770  16.206  0.2193 -0.1071  0.2829
 9154TIP3   OH248952   1.043   4.098  12.384 -0.9219  0.0122  0.0190
 9154TIP3    H148953   0.997   4.096  12.468  1.3271  0.2902  1.3294
 9154TIP3    H248954   1.080   4.186  12.379 -0.0479 -0.3875 -0.7049
 9155TIP3   OH248955   3.791   4.092  14.854  0.2268  0.4278 -0.2400
 9155TIP3    H148956   3.808   4.083  14.760  1.8691 -0.1882  0.0748
 9155TIP3    H248957   3.812   4.006  14.890  1.7925  1.2685  0.9629
 9156TIP3   OH248958   3.286   0.874  12.960  0.3608 -0.1511 -0.4506
 9156TIP3    H148959   3.322   0.799  12.912  0.7460 -0.3338  0.1131
 9156TIP3    H248960   3.359   0.904  13.015 -0.3860 -0.6348  0.8423
 9157TIP3   OH248961   0.270   3.878  14.184  0.5852 -0.1726  0.2572
 9157TIP3    H148962   0.211   3.806  14.161  2.4288 -1.6489 -0.1047
 9157TIP3    H248963   0.245   3.949  14.125 -1.2497 -0.4938  0.5857
 9158TIP3   OH248964   3.052   4.522  11.428 -0.4810  0.1813 -0.1466
 9158TIP3    H148965   3.138   4.504  11.466  0.0586  0.6955 -1.1002
 9158TIP3    H248966   3.021   4.436  11.398 -0.3189 -0.0116  0.2333
 9159TIP3   OH248967   6.799   3.281   2.280  0.2679 -0.3108  0.0944
 9159TIP3    H148968   6.833   3.232   2.205  1.5962  0.5627  0.1026
 9159TIP3    H248969   6.790   3.215   2.349  3.5116 -0.3851  0.6075
 9160TIP3   OH248970   4.588   3.840  10.614  0.0130  0.3787  0.5537
 9160TIP3    H148971   4.510   3.881  10.575  0.6871  1.0039 -0.1689
 9160TIP3    H248972   4.606   3.765  10.557 -0.2757  0.0053  0.9447
 9161TIP3   OH248973   4.372   3.165   1.637 -0.4102  0.1282 -0.9135
 9161TIP3    H148974   4.436   3.207   1.578 -2.1836  0.8575 -2.4125
 9161TIP3    H248975   4.408   3.078   1.653  1.1369  0.6397 -1.4071
 9162TIP3   OH248976   6.439   4.952   3.314 -0.5868 -0.4217  0.2012
 9162TIP3    H148977   6.482   4.914   3.238  1.2707 -1.3520  1.6376
 9162TIP3    H248978   6.448   5.047   3.302 -0.6227 -0.5488 -0.8848
 9163TIP3   OH248979   1.159   3.836   4.188 -0.2880 -0.3750  0.7512
 9163TIP3    H148980   1.196   3.920   4.164  2.0902 -1.8045 -1.0381
 9163TIP3    H248981   1.108   3.809   4.111  1.2271 -1.7132  0.1590
 9164TIP3   OH248982   5.319   0.253   5.162 -0.1749 -0.2992  0.0143
 9164TIP3    H148983   5.408   0.265   5.130  0.4020  0.7462  1.8716
 9164TIP3    H248984   5.319   0.164   5.199  0.9809  0.6333  2.4624
 9165TIP3   OH248985   5.023   6.569   3.007  1.4199  0.2065  0.0186
 9165TIP3    H148986   5.022   6.631   3.080 -0.1611  2.2718 -1.6292
 9165TIP3    H248987   4.936   6.529   3.009  2.1370 -1.4316  0.5460
 9166TIP3   OH248988   1.665   2.193  14.661  0.0493  0.5309  0.2678
 9166TIP3    H148989   1.712   2.140  14.726  0.9360  0.9179 -0.0326
 9166TIP3    H248990   1.625   2.264  14.712  0.8483  0.9048  0.3926
 9167TIP3   OH248991   6.409   5.243   2.604 -0.1243  0.0281  0.2077
 9167TIP3    H148992   6.440   5.172   2.660 -1.2648 -0.9417 -0.3540
 9167TIP3    H248993   6.377   5.309   2.666  0.4836 -0.1455  0.7258
 9168TIP3   OH248994   6.228   2.537   6.587 -0.1255  0.3982  0.3629
 9168TIP3    H148995   6.219   2.630   6.607 -0.5104  0.2357  0.9621
 9168TIP3    H248996   6.319   2.516   6.611  0.2099  0.7921 -0.5217
 9169TIP3   OH248997   0.299   0.515   4.804 -0.1459 -0.4801 -0.3058
 9169TIP3    H148998   0.314   0.483   4.715  0.1227  0.8359 -0.7481
 9169TIP3    H248999   0.205   0.535   4.807 -0.3149 -1.2809 -0.0273
 9170TIP3   OH249000   5.628   0.796  15.505 -0.7770  0.0258 -0.2154
 9170TIP3    H149001   5.627   0.878  15.455 -1.4188 -0.2623 -0.6948
 9170TIP3    H249002   5.616   0.728  15.439  0.4305 -0.5188  0.0953
 9171TIP3   OH249003   1.936   2.341   5.179 -0.0614 -0.6925 -0.1382
 9171TIP3    H149004   1.896   2.365   5.263 -1.0201  2.2009 -1.2816
 9171TIP3    H249005   1.869   2.360   5.114  0.8494 -2.3462 -1.6603
 9172TIP3   OH249006   5.039   4.904   5.638 -0.2278  0.5441  0.1152
 9172TIP3    H149007   5.082   4.879   5.720  0.5293  1.1590 -0.0824
 9172TIP3    H249008   4.952   4.864   5.644  0.6422 -1.5051  0.1416
 9173TIP3   OH249009   6.036   4.100  17.090  0.8053 -0.3665 -0.4658
 9173TIP3    H149010   6.043   4.111  16.995  0.4505 -0.7896 -0.5419
 9173TIP3    H249011   6.114   4.143  17.125  0.8042  0.0239 -0.9311
 9174TIP3   OH249012   4.283   2.396   0.671  0.1097  0.3888 -0.7726
 9174TIP3    H149013   4.330   2.363   0.594 -1.0816 -0.6743 -1.0776
 9174TIP3    H249014   4.257   2.317   0.718 -0.6663  0.9839 -0.1801
 9175TIP3   OH249015   4.257   2.169   0.854  0.5373  0.0317  0.8055
 9175TIP3    H149016   4.289   2.185   0.943 -0.1563  0.1686  1.0326
 9175TIP3    H249017   4.231   2.077   0.855  2.7313 -0.6688  0.0490
 9176TIP3   OH249018   2.910   4.907   2.253  0.0298 -0.0329  0.2559
 9176TIP3    H149019   2.837   4.890   2.313  1.7040 -1.6611  1.9904
 9176TIP3    H249020   2.988   4.898   2.308  1.5593  2.1427 -1.4123
 9177TIP3   OH249021   1.614   0.344  14.621  0.3491  0.0031  0.6133
 9177TIP3    H149022   1.614   0.426  14.572  0.3641  0.4826  1.3998
 9177TIP3    H249023   1.695   0.300  14.594  1.7426  1.4877  2.1879
 9178TIP3   OH249024   4.252   6.396  10.951 -0.4772  0.2707  0.4683
 9178TIP3    H149025   4.190   6.449  10.901  0.5737  1.0866  0.0021
 9178TIP3    H249026   4.336   6.408  10.907  0.5270  1.1304  2.4968
 9179TIP3   OH249027   6.180   3.605  13.340 -0.0884 -0.1608  0.2249
 9179TIP3    H149028   6.220   3.518  13.344  2.8107  1.0990  1.8414
 9179TIP3    H249029   6.155   3.625  13.430  0.8552  1.3188  0.1945
 9180TIP3   OH249030   0.047   0.347   1.002 -0.0488  0.1429  0.2894
 9180TIP3    H149031  -0.003   0.427   1.014 -2.0879 -0.6163 -2.1642
 9180TIP3    H249032  -0.010   0.277   1.033  0.7492 -0.5505  0.2515
 9181TIP3   OH249033   3.841   0.585  15.397 -0.1854  0.1790  0.1943
 9181TIP3    H149034   3.916   0.594  15.338 -1.0416 -2.8304 -1.5651
 9181TIP3    H249035   3.851   0.498  15.436 -1.4799  0.7263  1.8826
 9182TIP3   OH249036   3.195   4.358   4.253  0.2992 -0.4064  0.1485
 9182TIP3    H149037   3.206   4.266   4.278  0.5104 -0.2672  0.5605
 9182TIP3    H249038   3.261   4.373   4.185  1.6464  0.0019  1.5178
 9183TIP3   OH249039   5.723   4.126   1.864  0.0265  0.0656  0.5430
 9183TIP3    H149040   5.630   4.112   1.880  0.0683  1.5737  2.5297
 9183TIP3    H249041   5.766   4.049   1.900 -0.3735 -0.0034  0.8751
 9184TIP3   OH249042   0.553   4.987  15.015 -0.3322 -0.1772  0.0104
 9184TIP3    H149043   0.458   4.994  15.006 -0.3699 -0.9007 -0.1628
 9184TIP3    H249044   0.566   4.968  15.108 -0.4415 -1.4016 -0.2106
 9185TIP3   OH249045   6.044   4.938  16.768 -0.2155 -0.1678 -0.2383
 9185TIP3    H149046   5.983   4.891  16.711  0.3708  0.7555 -1.6830
 9185TIP3    H249047   6.099   4.989  16.708  0.3909  0.8942  1.1568
 9186TIP3   OH249048   3.779   3.711  13.588 -0.4881 -0.3448 -0.1368
 9186TIP3    H149049   3.821   3.685  13.506  0.2702 -1.6298  0.6342
 9186TIP3    H249050   3.803   3.644  13.651 -3.0759 -0.7391  0.5761
 9187TIP3   OH249051   0.425   3.492   5.164  0.2810  0.6012  0.7691
 9187TIP3    H149052   0.477   3.445   5.229 -0.4490  0.8436  1.5585
 9187TIP3    H249053   0.416   3.432   5.091 -0.8828 -0.6262  1.8723
 9188TIP3   OH249054   0.018   1.352  15.717  0.1244  0.0477 -0.0513
 9188TIP3    H149055   0.092   1.295  15.696  1.2675  1.3360  0.3331
 9188TIP3    H249056   0.057   1.440  15.722 -1.7530  1.0525 -1.7388
 9189TIP3   OH249057   0.181   2.588  13.272  0.1850 -0.1113  0.3007
 9189TIP3    H149058   0.114   2.529  13.308  0.3780 -0.2588  0.4235
 9189TIP3    H249059   0.256   2.531  13.256 -0.4694 -0.4137 -2.0363
 9190TIP3   OH249060   6.593   0.866   1.501  0.7460 -0.3626  0.0660
 9190TIP3    H149061   6.531   0.824   1.442  1.3606 -0.6339 -0.3959
 9190TIP3    H249062   6.616   0.948   1.457 -0.7084  0.6664  1.1204
 9191TIP3   OH249063   2.068   3.943  13.022  0.5355 -0.1466  0.2414
 9191TIP3    H149064   2.000   3.880  13.003  0.7736 -1.0257  2.0537
 9191TIP3    H249065   2.094   3.924  13.113  2.2306  1.0387  0.0617
 9192TIP3   OH249066   5.299   2.155   2.704 -0.7241  0.3370  0.1403
 9192TIP3    H149067   5.256   2.234   2.669 -2.4406 -0.5410  0.1627
 9192TIP3    H249068   5.287   2.161   2.799 -1.8814 -0.4868  0.0632
 9193TIP3   OH249069   1.543   3.301  14.953 -0.0735 -0.2794  0.1280
 9193TIP3    H149070   1.483   3.254  14.896 -2.1620  1.0432  1.1277
 9193TIP3    H249071   1.530   3.393  14.931  1.8558  0.0534  0.1634
 9194TIP3   OH249072   3.668   1.270   4.427  0.2466 -0.3039 -0.9587
 9194TIP3    H149073   3.735   1.218   4.471  1.2854  0.1835 -1.9150
 9194TIP3    H249074   3.617   1.308   4.498  1.7385  0.2763 -0.1511
 9195TIP3   OH249075   2.248   3.264   3.981 -0.2071  0.1017 -0.7660
 9195TIP3    H149076   2.317   3.322   3.949 -0.1600  0.0831 -0.6988
 9195TIP3    H249077   2.252   3.273   4.076  1.1908 -1.5874 -0.6201
 9196TIP3   OH249078   1.891   2.221  12.960  0.6054 -0.0964 -0.5350
 9196TIP3    H149079   1.838   2.206  12.881  0.2064  1.1886 -0.5435
 9196TIP3    H249080   1.954   2.288  12.933 -0.2106  1.1381  0.4954
 9197TIP3   OH249081   4.923   0.841  13.198 -0.2675 -0.3947 -0.0230
 9197TIP3    H149082   5.017   0.847  13.181 -0.0770 -1.4390  0.6323
 9197TIP3    H249083   4.891   0.777  13.134  0.0118 -2.3477  1.6834
 9198TIP3   OH249084   4.483   2.208   5.534  0.0145 -0.2593  0.0883
 9198TIP3    H149085   4.464   2.301   5.544  1.2507  0.2447 -1.7410
 9198TIP3    H249086   4.456   2.169   5.617 -0.4807  1.7218  0.9227
 9199TIP3   OH249087   1.951   4.717  16.149  0.2957 -0.0425  0.4610
 9199TIP3    H149088   1.897   4.649  16.111 -0.1661  0.1161  0.8098
 9199TIP3    H249089   1.997   4.674  16.221  0.9755 -0.2811 -0.1064
 9200TIP3   OH249090   0.722   2.299  17.126 -0.0491 -0.1868  0.0036
 9200TIP3    H149091   0.674   2.238  17.182 -1.4033  1.4963  0.7876
 9200TIP3    H249092   0.814   2.283  17.146 -0.3508 -1.9905  0.1132
 9201TIP3   OH249093   4.749   5.948  16.646  0.6855 -0.4633  0.0825
 9201TIP3    H149094   4.757   6.034  16.687 -1.1892 -0.3902  0.3728
 9201TIP3    H249095   4.818   5.896  16.687 -0.0605  0.0657  2.1574
 9202TIP3   OH249096   1.994   0.239  16.935 -0.2764  0.7422  0.3687
 9202TIP3    H149097   2.058   0.195  16.991  1.8993  2.4695 -0.6041
 9202TIP3    H249098   1.942   0.168  16.897  0.8385 -0.7183  1.4457
 9203TIP3   OH249099   1.961   3.573  16.399  0.1470 -0.3404  0.1926
 9203TIP3    H149100   1.884   3.629  16.389  0.6209  0.5054  1.0655
 9203TIP3    H249101   1.952   3.537  16.488 -0.4997 -2.2263 -0.5897
 9204TIP3   OH249102   1.300   6.829  10.488  0.0910 -0.2945 -0.1289
 9204TIP3    H149103   1.212   6.802  10.463 -0.1613 -0.1724  0.6098
 9204TIP3    H249104   1.349   6.747  10.494 -0.1558 -0.4251  0.1501
 9205TIP3   OH249105   4.537   5.592   2.316  0.3086 -0.8050  0.5947
 9205TIP3    H149106   4.464   5.531   2.310  1.7895 -2.7878  1.5407
 9205TIP3    H249107   4.550   5.605   2.410  1.0660 -0.3204  0.4339
 9206TIP3   OH249108   1.994   3.969   1.558 -0.3927  0.4234 -0.4041
 9206TIP3    H149109   2.025   3.879   1.553 -0.6006  0.3462 -0.3339
 9206TIP3    H249110   2.052   4.011   1.622 -1.0955 -0.0059  0.5363
 9207TIP3   OH249111   0.361   4.429  16.034 -0.2504  0.2359  0.0322
 9207TIP3    H149112   0.457   4.426  16.026 -0.0856 -0.8803  1.7842
 9207TIP3    H249113   0.345   4.463  16.121 -1.4397 -0.2164  0.0114
 9208TIP3   OH249114   6.192   0.672   3.010  0.2164 -0.1899  0.1649
 9208TIP3    H149115   6.243   0.598   3.042 -1.4556 -1.6748 -0.3883
 9208TIP3    H249116   6.175   0.650   2.918 -1.0653  0.4225  0.2422
 9209TIP3   OH249117   6.274   4.066   2.086 -0.2287  0.5664 -0.0790
 9209TIP3    H149118   6.179   4.068   2.099 -0.3294  0.9413 -0.8066
 9209TIP3    H249119   6.290   4.131   2.017  0.5525  0.4797  0.0149
 9210TIP3   OH249120   1.861   0.087  11.926 -0.1121  0.3483  0.2721
 9210TIP3    H149121   1.916   0.094  11.848 -0.2911 -1.1287 -0.0196
 9210TIP3    H249122   1.870   0.171  11.970  1.0841  0.7068 -0.6230
 9211TIP3   OH249123   1.074   2.939  11.910  0.2096  0.1632 -0.4652
 9211TIP3    H149124   1.144   2.991  11.950  0.0439 -0.0108  0.0681
 9211TIP3    H249125   1.090   2.944  11.816 -0.4045  2.0383 -0.5156
 9212TIP3   OH249126   2.293   1.456   3.277  0.0967  0.0086 -0.1597
 9212TIP3    H149127   2.224   1.394   3.299 -1.2272  1.1544 -0.9498
 9212TIP3    H249128   2.247   1.538   3.258  1.6986  0.9030 -0.3476
 9213TIP3   OH249129   3.111   2.941   3.473  0.1052 -0.4546  0.8374
 9213TIP3    H149130   3.087   3.029   3.444 -0.9138 -1.3749 -1.3347
 9213TIP3    H249131   3.078   2.935   3.562  0.1308  1.3311  0.9942
 9214TIP3   OH249132   2.056   2.992  12.724  0.2327 -0.2714 -0.1260
 9214TIP3    H149133   2.035   2.951  12.640 -0.7099  0.4686 -0.2678
 9214TIP3    H249134   2.151   2.983  12.731  0.3152 -0.4511 -1.2190
 9215TIP3   OH249135   2.807   2.296   2.595  0.2821 -0.1433  0.5322
 9215TIP3    H149136   2.731   2.327   2.546  0.1024 -0.9092  0.3110
 9215TIP3    H249137   2.878   2.354   2.569 -0.6247  1.8595  2.2214
 9216TIP3   OH249138   1.260   2.328  14.565  0.2071  0.5873  0.0372
 9216TIP3    H149139   1.282   2.401  14.623  0.4557  0.8816 -0.4175
 9216TIP3    H249140   1.165   2.320  14.572  0.2005  0.8329  0.2408
 9217TIP3   OH249141   5.792   2.439  11.236  0.9907 -0.4811  0.1006
 9217TIP3    H149142   5.849   2.489  11.294  0.0189  0.3801  0.3559
 9217TIP3    H249143   5.755   2.505  11.177 -0.5641 -0.8390  0.6370
 9218TIP3   OH249144   6.675   0.960  16.938  0.1423 -0.0264 -0.2067
 9218TIP3    H149145   6.637   0.936  17.022 -0.0106  0.1124 -0.2364
 9218TIP3    H249146   6.762   0.919  16.938 -0.7022 -1.9483 -0.9264
 9219TIP3   OH249147   1.361   3.795   3.677  0.4547  0.1207  0.4231
 9219TIP3    H149148   1.287   3.736   3.659 -1.2915  0.9144  4.1365
 9219TIP3    H249149   1.438   3.738   3.670 -0.4553 -0.9657 -2.5854
 9220TIP3   OH249150   4.613   4.698   0.289 -0.4354 -0.0233 -0.1469
 9220TIP3    H149151   4.578   4.621   0.244 -0.5855  0.4438 -0.8350
 9220TIP3    H249152   4.680   4.663   0.347 -2.1063 -0.9788  1.3265
 9221TIP3   OH249153   0.402   0.120   0.605 -0.6269  0.0774 -1.0687
 9221TIP3    H149154   0.382   0.170   0.526 -1.4990  1.9900  0.3000
 9221TIP3    H249155   0.435   0.184   0.667 -0.1544 -1.3505  0.2160
 9222TIP3   OH249156   3.596   3.730   2.601  0.0600  0.2329 -0.5563
 9222TIP3    H149157   3.553   3.803   2.557  2.0643  1.7817 -0.1105
 9222TIP3    H249158   3.630   3.767   2.682  1.8519 -0.9698 -0.7001
 9223TIP3   OH249159   4.435   2.400  14.965  0.1706  0.1576  0.0586
 9223TIP3    H149160   4.444   2.475  14.907 -0.4731  0.9432  0.9461
 9223TIP3    H249161   4.377   2.340  14.918 -0.4084  0.8195 -0.0873
 9224TIP3   OH249162   5.902   1.517   3.702 -0.0144  0.1390 -0.3126
 9224TIP3    H149163   5.878   1.605   3.730  1.6248  1.6297 -3.1590
 9224TIP3    H249164   5.990   1.504   3.737 -1.6136 -2.1668  3.4957
 9225TIP3   OH249165   4.313   0.855   2.317 -0.2603  0.2983 -0.1006
 9225TIP3    H149166   4.406   0.842   2.334 -0.1062  0.6619 -0.6023
 9225TIP3    H249167   4.270   0.838   2.400  0.1994 -0.4169  0.0019
 9226TIP3   OH249168   2.224   0.274  15.306  0.5072 -0.0993 -0.0476
 9226TIP3    H149169   2.182   0.353  15.272  0.1348 -1.2347 -2.4196
 9226TIP3    H249170   2.153   0.210  15.312  0.9843 -0.5601  0.8896
 9227TIP3   OH249171   6.020   3.250  16.434 -0.0009 -0.1491 -0.6814
 9227TIP3    H149172   5.941   3.258  16.487  1.0410 -0.3130  0.9493
 9227TIP3    H249173   6.021   3.329  16.380 -2.1202 -0.9304 -1.9866
 9228TIP3   OH249174   0.152   1.353  11.290 -0.3020 -0.0156  0.0749
 9228TIP3    H149175   0.146   1.437  11.335 -0.3512  0.8562 -1.4912
 9228TIP3    H249176   0.246   1.340  11.276 -0.2321 -0.6292  0.9958
 9229TIP3   OH249177   3.795   4.035   0.017 -0.0592 -0.7238  0.2888
 9229TIP3    H149178   3.720   4.041   0.077  1.3493 -0.0054  2.0716
 9229TIP3    H249179   3.838   3.953   0.043  1.8411  0.7133  1.9077
 9230TIP3   OH249180   6.350   0.733  11.977  0.2814 -0.5147 -0.4879
 9230TIP3    H149181   6.397   0.652  12.001  0.9445 -0.5244 -1.7671
 9230TIP3    H249182   6.318   0.717  11.889 -0.7203  0.1387 -0.2514
 9231TIP3   OH249183   1.057   3.214   2.573 -0.2323 -0.3020  0.4482
 9231TIP3    H149184   1.030   3.137   2.623 -2.7791  1.2347  1.6740
 9231TIP3    H249185   1.049   3.287   2.635 -1.3935  1.3969 -1.5634
 9232TIP3   OH249186   3.934   3.339  11.609  0.5412  0.1469 -0.5294
 9232TIP3    H149187   3.874   3.353  11.537 -0.1321 -1.0807 -0.2406
 9232TIP3    H249188   3.988   3.418  11.612 -0.9660  1.2205 -0.8768
 9233TIP3   OH249189   4.568   5.625   4.426 -0.3964  0.2284  0.8101
 9233TIP3    H149190   4.545   5.566   4.354  1.4450 -0.1218  0.4478
 9233TIP3    H249191   4.557   5.712   4.390 -1.1682  0.0817  0.6789
 9234TIP3   OH249192   5.916   0.402  14.530 -0.0850 -0.0029  0.7518
 9234TIP3    H149193   5.833   0.372  14.493  0.0435 -2.4122  2.1758
 9234TIP3    H249194   5.896   0.489  14.566 -1.1373  0.7778 -1.5560
 9235TIP3   OH249195   4.425   5.858   3.568 -0.4543 -0.2703 -0.1877
 9235TIP3    H149196   4.419   5.833   3.476 -1.2256  0.2550 -0.2800
 9235TIP3    H249197   4.374   5.792   3.615 -2.1251  0.8314 -0.3892
 9236TIP3   OH249198   3.338   0.116  14.029 -0.2832  0.3730 -0.5410
 9236TIP3    H149199   3.364   0.161  13.948  0.5513 -1.0558 -1.1215
 9236TIP3    H249200   3.298   0.034  13.999 -2.2534  0.9043  0.4600
 9237TIP3   OH249201   4.140   5.311  14.088 -0.3469 -0.2789  0.0507
 9237TIP3    H149202   4.143   5.304  13.993  0.7322 -0.5363  0.0920
 9237TIP3    H249203   4.189   5.235  14.119 -0.1282  0.1563  0.7968
 9238TIP3   OH249204   1.936   4.688   4.811 -0.2096  1.2088 -0.0162
 9238TIP3    H149205   1.890   4.606   4.828  1.0321  0.5696  0.3578
 9238TIP3    H249206   1.867   4.750   4.789 -1.1111 -0.2017 -1.3933
 9239TIP3   OH249207   0.271   4.382   2.235  0.5303  0.2273 -0.0684
 9239TIP3    H149208   0.301   4.463   2.275  1.0202  0.2718 -0.5151
 9239TIP3    H249209   0.196   4.408   2.182  0.3914  0.3036  0.1617
 9240TIP3   OH249210   6.337   0.257   4.243  0.8985  0.5111  0.4418
 9240TIP3    H149211   6.428   0.265   4.215  0.9035 -1.1138 -0.0828
 9240TIP3    H249212   6.293   0.331   4.201  1.7443  0.6104 -0.3047
 9241TIP3   OH249213   3.566   5.931   2.202 -0.0781 -0.2783 -0.2205
 9241TIP3    H149214   3.552   5.919   2.295  0.3429 -0.4113 -0.1674
 9241TIP3    H249215   3.493   5.886   2.160  0.8707 -2.1695  0.0087
 9242TIP3   OH249216   4.643   1.591  12.050  0.0490  0.3613  0.1674
 9242TIP3    H149217   4.722   1.552  12.088 -0.3332  1.1277  1.8838
 9242TIP3    H249218   4.676   1.657  11.989  0.7596  0.6991  0.8922
 9243TIP3   OH249219   0.246   5.321  11.474 -0.2639  0.4436 -0.1790
 9243TIP3    H149220   0.171   5.267  11.449  0.3486 -0.4826 -0.0553
 9243TIP3    H249221   0.312   5.303  11.407  0.2851  0.3165  0.3915
 9244TIP3   OH249222   6.771   3.256  16.791  0.4328  0.3505 -0.3393
 9244TIP3    H149223   6.768   3.346  16.759  1.4741  1.0160  1.3045
 9244TIP3    H249224   6.828   3.210  16.729  0.2658  0.9270 -0.9302
 9245TIP3   OH249225   6.657   1.815   4.931  0.0475  0.0554 -0.2338
 9245TIP3    H149226   6.701   1.789   5.013 -0.5672 -1.0991 -0.2483
 9245TIP3    H249227   6.662   1.737   4.876  0.7214  0.9259 -1.4271
 9246TIP3   OH249228   3.420   5.192  14.431  0.4309  0.0046  0.2965
 9246TIP3    H149229   3.331   5.170  14.406  1.1657 -5.2064  1.0485
 9246TIP3    H249230   3.416   5.283  14.461 -4.0343  0.7137 -1.6925
 9247TIP3   OH249231   3.387   4.194  11.255 -0.4810 -0.5935 -0.1065
 9247TIP3    H149232   3.394   4.100  11.238  0.2265 -0.4696 -0.5301
 9247TIP3    H249233   3.443   4.235  11.189 -1.2535  0.1689 -0.3182
 9248TIP3   OH249234   5.964   4.698  16.590  0.5142 -0.8979 -0.3568
 9248TIP3    H149235   5.917   4.657  16.518  1.1931 -3.6228  0.6477
 9248TIP3    H249236   6.056   4.677  16.574  0.9118  0.3530  0.1639
 9249TIP3   OH249237   5.686   4.683  15.478 -0.5139  0.1013 -0.5136
 9249TIP3    H149238   5.717   4.596  15.454 -1.0056  0.3323 -2.0530
 9249TIP3    H249239   5.601   4.669  15.520  0.3343 -0.2977  1.1707
 9250TIP3   OH249240   6.647   0.246  15.432 -0.0992 -0.1868  0.3264
 9250TIP3    H149241   6.606   0.286  15.508  0.4030  0.5781  0.2020
 9250TIP3    H249242   6.695   0.317  15.389 -0.4441 -0.5832 -0.7587
 9251TIP3   OH249243   4.318   6.168  14.430  0.4173 -0.5140  0.2790
 9251TIP3    H149244   4.402   6.209  14.409  0.9599 -0.9448  1.5489
 9251TIP3    H249245   4.336   6.074  14.427 -0.1445 -0.6181  0.0954
 9252TIP3   OH249246   6.128   1.356   0.664 -0.6787 -0.0382 -0.0910
 9252TIP3    H149247   6.110   1.323   0.576  2.1607  0.4379 -0.9695
 9252TIP3    H249248   6.169   1.282   0.710  2.2459  0.9473 -0.8497
 9253TIP3   OH249249   1.418   5.028   5.255 -0.2567  0.0441  0.0155
 9253TIP3    H149250   1.492   5.074   5.293 -1.1473  1.0640  0.5781
 9253TIP3    H249251   1.453   4.984   5.178  0.6404  1.6169 -0.5141
 9254TIP3   OH249252   5.826   0.315   4.947 -0.6712 -0.3488  0.1141
 9254TIP3    H149253   5.731   0.311   4.941 -0.6248  0.0024 -0.9313
 9254TIP3    H249254   5.856   0.320   4.856  0.2948  0.6271  0.4756
 9255TIP3   OH249255   0.711   6.251  11.449 -0.4586  0.5725 -0.1656
 9255TIP3    H149256   0.733   6.305  11.525 -1.1467 -0.3973  0.7692
 9255TIP3    H249257   0.640   6.298  11.405 -0.2481  1.0050 -0.0382
 9256TIP3   OH249258   3.014   5.846  13.296  0.1813 -0.7291  0.5640
 9256TIP3    H149259   2.978   5.767  13.254  0.9273 -0.3934 -0.7651
 9256TIP3    H249260   2.947   5.913  13.284  0.5503 -0.5306 -0.4803
 9257TIP3   OH249261   6.113   2.168   2.138  0.3163  0.1010  0.1336
 9257TIP3    H149262   6.061   2.109   2.193 -0.1077 -0.0889 -0.4601
 9257TIP3    H249263   6.066   2.252   2.144 -0.1430 -0.1032 -0.5047
 9258TIP3   OH249264   2.515   5.356   4.372  0.5763 -0.5996  0.6718
 9258TIP3    H149265   2.452   5.428   4.365  0.2453 -0.8348  1.1526
 9258TIP3    H249266   2.467   5.287   4.417  0.4168 -1.6785 -1.0918
 9259TIP3   OH249267   2.914   5.415  15.322  0.1245  0.4052  0.3240
 9259TIP3    H149268   2.914   5.432  15.416 -1.4769  2.0166  0.0859
 9259TIP3    H249269   2.870   5.491  15.284  0.5780 -0.2946 -1.7212
 9260TIP3   OH249270   5.475   0.562   4.013  0.5580  0.2810 -0.3302
 9260TIP3    H149271   5.445   0.513   3.936  0.4218 -0.7882  0.3738
 9260TIP3    H249272   5.399   0.564   4.071  1.3061 -0.9572  0.7498
 9261TIP3   OH249273   3.416   2.583  16.643 -0.4799 -0.0104 -0.1140
 9261TIP3    H149274   3.416   2.659  16.585  2.2328 -0.9602 -1.5173
 9261TIP3    H249275   3.438   2.618  16.729 -2.4315  1.1435 -0.0333
 9262TIP3   OH249276   4.866   5.857   1.161 -0.5573  0.2760  0.5435
 9262TIP3    H149277   4.786   5.807   1.176 -0.9313  1.0821  1.3348
 9262TIP3    H249278   4.870   5.869   1.066 -0.1230 -1.7456  0.2586
 9263TIP3   OH249279   3.722   1.298  16.682 -0.0716  0.4407  0.2416
 9263TIP3    H149280   3.652   1.343  16.730 -1.1282  0.7203 -1.4503
 9263TIP3    H249281   3.764   1.243  16.747 -0.4321  1.9139  1.8228
 9264TIP3   OH249282   3.012   6.379   1.427  0.4850  0.1608 -0.5112
 9264TIP3    H149283   3.090   6.333   1.394 -0.4828 -1.1583 -1.0588
 9264TIP3    H249284   2.997   6.449   1.363  0.4382 -0.4433 -1.1748
 9265TIP3   OH249285   2.380   4.010  11.521 -0.1935  0.1799  0.3372
 9265TIP3    H149286   2.375   4.104  11.533 -0.3110  0.1908  0.2016
 9265TIP3    H249287   2.442   3.997  11.450 -0.6509  0.1864 -0.0702
 9266TIP3   OH249288   1.433   1.629   2.077  0.1556 -0.0680 -0.3785
 9266TIP3    H149289   1.413   1.641   2.170  0.1977  0.4522 -0.4377
 9266TIP3    H249290   1.350   1.646   2.032  0.4470  1.0067 -0.5377
 9267TIP3   OH249291   4.250   6.778  14.486  0.1003 -0.1595  0.8133
 9267TIP3    H149292   4.265   6.782  14.581  1.0597 -1.6155  0.7395
 9267TIP3    H249293   4.267   6.867  14.456  0.2088  0.2252  1.9478
 9268TIP3   OH249294   0.158   4.454  13.399  0.2172 -0.4773  0.2375
 9268TIP3    H149295   0.147   4.529  13.341  4.0858  1.7726  2.0568
 9268TIP3    H249296   0.137   4.487  13.486 -0.4054 -2.2699  0.8133
 9269TIP3   OH249297   6.419   0.414  11.803 -0.2010  0.2844 -0.0226
 9269TIP3    H149298   6.325   0.427  11.793 -0.1238  0.1995 -0.8794
 9269TIP3    H249299   6.457   0.445  11.721  0.3334 -1.7154 -0.5609
 9270TIP3   OH249300   2.329   0.445   3.537 -0.3070 -0.1751  0.1992
 9270TIP3    H149301   2.417   0.482   3.541 -0.1565 -0.4852 -0.1947
 9270TIP3    H249302   2.273   0.520   3.515  0.1945 -0.4004 -2.1662
 9271TIP3   OH249303   4.613   1.282   5.646  0.1210 -0.2300  0.5374
 9271TIP3    H149304   4.687   1.295   5.706 -1.0652  3.5073  1.4055
 9271TIP3    H249305   4.648   1.303   5.560  0.1137  1.8259  0.9820
 9272TIP3   OH249306   1.054   0.575  14.125  0.2950 -0.0947  0.3238
 9272TIP3    H149307   1.094   0.661  14.138  2.3911 -1.0777  0.7649
 9272TIP3    H249308   1.031   0.546  14.213  1.3766 -0.7539  0.4152
 9273TIP3   OH249309   1.809   4.982  17.173 -0.0639 -0.2128 -0.0060
 9273TIP3    H149310   1.733   4.938  17.210 -2.2785  1.8399 -1.7683
 9273TIP3    H249311   1.794   5.075  17.189  1.8421  0.2991 -0.8399
 9274TIP3   OH249312   3.164   6.789   2.581  0.0872  0.6169 -0.2898
 9274TIP3    H149313   3.217   6.842   2.522 -0.9800 -0.3792 -2.2369
 9274TIP3    H249314   3.228   6.732   2.626  0.8161  0.4502 -1.4972
 9275TIP3   OH249315   2.780   3.242  16.973 -0.3499  0.7469 -0.0435
 9275TIP3    H149316   2.853   3.203  16.925  0.0835  2.2018 -0.6379
 9275TIP3    H249317   2.822   3.306  17.032 -1.1606  2.4627 -1.2403
 9276TIP3   OH249318   0.361   2.729   0.427 -0.1790 -0.1473  0.1426
 9276TIP3    H149319   0.294   2.797   0.421  0.7714  0.7909 -0.1937
 9276TIP3    H249320   0.354   2.696   0.517 -1.3108 -0.3237  0.0032
 9277TIP3   OH249321   2.683   6.220   3.994 -0.3296  0.0218  0.5259
 9277TIP3    H149322   2.593   6.193   3.976 -0.2197 -0.9571  1.3288
 9277TIP3    H249323   2.688   6.226   4.090  0.4011  0.2384  0.4846
 9278TIP3   OH249324   2.497   4.147   5.881  0.2654  0.0947  0.0352
 9278TIP3    H149325   2.526   4.062   5.914 -0.4900 -0.1665  0.0641
 9278TIP3    H249326   2.403   4.149   5.901  0.4319  1.2873  0.7733
 9279TIP3   OH249327   3.751   5.403   3.460 -0.3870  0.0116 -0.0480
 9279TIP3    H149328   3.752   5.493   3.494  0.9182 -0.4766  1.3647
 9279TIP3    H249329   3.834   5.395   3.412  0.8422 -1.1539  2.0889
 9280TIP3   OH249330   3.216   1.980   6.113 -0.0138 -0.0726  0.6327
 9280TIP3    H149331   3.200   1.998   6.206 -0.0969  0.6788  0.4832
 9280TIP3    H249332   3.256   1.893   6.112 -0.4743 -0.3064  1.3323
 9281TIP3   OH249333   4.943   0.950  14.309 -0.5624 -0.0088 -0.5316
 9281TIP3    H149334   4.869   0.949  14.247 -2.4150  0.2051  1.5498
 9281TIP3    H249335   4.953   1.041  14.334 -0.0348 -0.1334 -0.2703
 9282TIP3   OH249336   5.870   4.454  14.665  0.2683  0.0743  0.2205
 9282TIP3    H149337   5.864   4.359  14.655  0.5372  0.2126 -1.7967
 9282TIP3    H249338   5.783   4.481  14.693 -0.4392 -0.5919 -1.2065
 9283TIP3   OH249339   0.327   5.277   5.061 -0.0049  0.2022 -0.0481
 9283TIP3    H149340   0.419   5.278   5.036  0.3658 -3.2603  0.6103
 9283TIP3    H249341   0.322   5.330   5.140  1.9199 -1.1544  1.0704
 9284TIP3   OH249342   0.986   1.887   5.636 -0.1494 -0.3571  0.2763
 9284TIP3    H149343   0.980   1.820   5.568  0.9659 -0.1488 -0.0523
 9284TIP3    H249344   0.897   1.923   5.643 -0.1321  0.1922 -1.6722
 9285TIP3   OH249345   0.334   0.522   5.071 -0.2821 -0.3761  0.7298
 9285TIP3    H149346   0.407   0.583   5.079  0.3369 -1.1331  0.9372
 9285TIP3    H249347   0.315   0.518   4.977 -1.1561  1.0818  0.8178
 9286TIP3   OH249348   2.482   0.986  13.136 -0.3716 -0.1417  0.0348
 9286TIP3    H149349   2.397   0.988  13.093 -0.5717  0.4248  0.4391
 9286TIP3    H249350   2.465   1.018  13.225  0.5117  1.6223 -0.3750
 9287TIP3   OH249351   6.625   0.406  14.317 -0.0010 -0.0833  0.7598
 9287TIP3    H149352   6.545   0.361  14.289  0.5922  0.1921 -1.5275
 9287TIP3    H249353   6.601   0.498  14.319  0.4246  0.0705 -0.6309
 9288TIP3   OH249354   0.007   6.319   1.011  0.3997 -0.1556 -0.2169
 9288TIP3    H149355  -0.007   6.237   1.058 -0.8245  0.8030  1.1384
 9288TIP3    H249356  -0.077   6.363   1.013  0.9614  1.0295 -1.1889
 9289TIP3   OH249357   1.466   3.583  16.217 -0.0002  0.2596  0.3063
 9289TIP3    H149358   1.473   3.497  16.176  0.4721  0.1526  0.6068
 9289TIP3    H249359   1.433   3.640  16.147  0.4273  0.0021 -0.1154
 9290TIP3   OH249360   4.812   1.907   2.126 -0.3859 -0.1628  0.4491
 9290TIP3    H149361   4.907   1.892   2.121 -0.5933 -1.4218  0.1976
 9290TIP3    H249362   4.798   1.983   2.069  0.2787 -0.8511 -0.6651
 9291TIP3   OH249363   3.732   6.754   5.772 -0.2828 -0.0964 -0.4024
 9291TIP3    H149364   3.663   6.818   5.757  0.3324  0.7065  0.1292
 9291TIP3    H249365   3.766   6.774   5.860  2.0922  0.9711 -1.4636
 9292TIP3   OH249366   1.605   1.520   0.583 -0.3896  0.3937 -0.3345
 9292TIP3    H149367   1.532   1.462   0.603 -0.8810  0.9612 -0.4786
 9292TIP3    H249368   1.641   1.485   0.502  1.0350 -1.3612  0.9440
 9293TIP3   OH249369   4.027   5.808  16.150  0.4361 -0.6696  0.4349
 9293TIP3    H149370   4.039   5.896  16.114 -1.5591  0.1121  1.5477
 9293TIP3    H249371   4.096   5.756  16.108  1.8196  1.4422 -0.0888
 9294TIP3   OH249372   4.408   0.353  16.870  0.1495 -0.4652  0.5005
 9294TIP3    H149373   4.441   0.268  16.843  2.4711  0.3774  0.4805
 9294TIP3    H249374   4.448   0.369  16.956  0.9529  1.1917 -0.1303
 9295TIP3   OH249375   5.841   4.675   3.802 -0.2102 -0.0498 -0.3858
 9295TIP3    H149376   5.862   4.764   3.833 -0.7687 -0.5881  1.7284
 9295TIP3    H249377   5.918   4.649   3.751  0.9149  0.9012  0.7359
 9296TIP3   OH249378   6.643   3.491  13.061  0.1310  0.3913  0.1709
 9296TIP3    H149379   6.618   3.399  13.070 -0.5853  0.5163 -0.4612
 9296TIP3    H249380   6.589   3.524  12.989  0.1849  1.3729  0.5603
 9297TIP3   OH249381   0.259   1.913  10.869  0.7268  0.0471  0.3621
 9297TIP3    H149382   0.183   1.970  10.852  0.0820 -1.1521 -1.0687
 9297TIP3    H249383   0.335   1.968  10.850  0.1614  0.7939  0.2228
 9298TIP3   OH249384   5.777   1.202   1.658  0.1327  0.3965  0.4139
 9298TIP3    H149385   5.790   1.253   1.738  2.1249 -1.4137  1.3668
 9298TIP3    H249386   5.831   1.245   1.592  0.0125  0.7948  0.5753
 9299TIP3   OH249387   4.006   3.119   0.190 -0.0611  0.2249 -0.6580
 9299TIP3    H149388   4.027   3.120   0.097  1.8816 -0.3684 -0.2725
 9299TIP3    H249389   4.011   3.211   0.217 -0.8696  0.4286 -1.1668
 9300TIP3   OH249390   3.026   6.274  14.479 -0.4240 -0.9497 -0.6231
 9300TIP3    H149391   2.932   6.259  14.472 -0.4057 -0.7158 -1.5016
 9300TIP3    H249392   3.065   6.187  14.481 -0.6797 -1.0584  0.2915
 9301TIP3   OH249393   1.298   2.864  16.507 -0.1320  0.2009 -1.0785
 9301TIP3    H149394   1.222   2.908  16.469 -1.2626 -0.3297  0.4564
 9301TIP3    H249395   1.296   2.889  16.600  2.3793  1.2728 -1.2336
 9302TIP3   OH249396   4.911   1.799   3.080 -0.5918  0.0164  0.2640
 9302TIP3    H149397   4.862   1.845   3.011 -1.4397  0.1181  0.9201
 9302TIP3    H249398   4.852   1.798   3.155  0.3482 -0.0139  1.0312
 9303TIP3   OH249399   3.143   0.209  16.734 -0.4284 -0.2183  0.1915
 9303TIP3    H149400   3.156   0.260  16.654 -0.0150 -0.9220 -0.1962
 9303TIP3    H249401   3.114   0.274  16.799 -0.9127  0.3316 -0.5563
 9304TIP3   OH249402   6.591   3.278  11.606  0.0229 -0.0601 -0.7141
 9304TIP3    H149403   6.562   3.203  11.658  1.6060  0.7617  1.5353
 9304TIP3    H249404   6.510   3.322  11.579 -0.9039 -2.0689 -1.3753
 9305TIP3   OH249405   3.735   2.652   2.494  0.1887 -0.7515  0.7734
 9305TIP3    H149406   3.711   2.729   2.545  0.7878 -1.2704  1.8912
 9305TIP3    H249407   3.744   2.684   2.404  0.1730  0.4203  1.1729
 9306TIP3   OH249408   1.966   6.189  11.334 -0.2201  0.3326  0.2793
 9306TIP3    H149409   2.033   6.123  11.317 -0.6567 -0.4552  1.4569
 9306TIP3    H249410   2.005   6.246  11.401 -0.5226  0.1632  0.6056
 9307TIP3   OH249411   5.082   4.693   0.976 -0.0231  0.3277 -0.0290
 9307TIP3    H149412   5.014   4.659   1.034  0.4176 -2.4423 -1.0127
 9307TIP3    H249413   5.035   4.735   0.905 -0.7380 -1.2508 -0.5227
 9308TIP3   OH249414   2.392   1.049   5.179  1.0389 -0.3410 -0.2257
 9308TIP3    H149415   2.388   1.131   5.131  0.2137 -0.5361 -0.4913
 9308TIP3    H249416   2.334   1.062   5.254 -1.9795 -1.8576 -2.1031
 9309TIP3   OH249417   0.220   2.294   0.288  0.1487  0.8888  0.4097
 9309TIP3    H149418   0.185   2.207   0.268 -1.6769  1.5413  0.5760
 9309TIP3    H249419   0.182   2.316   0.373  1.5476  1.3807  0.9369
 9310TIP3   OH249420   2.069   4.394  13.348  0.4652  0.0045 -0.2288
 9310TIP3    H149421   2.028   4.377  13.264 -1.5605  0.2270  0.6701
 9310TIP3    H249422   2.103   4.483  13.340 -1.4628  0.7848 -0.1856
 9311TIP3   OH249423   1.427   4.424  13.748 -0.2347  0.0978 -0.8550
 9311TIP3    H149424   1.356   4.453  13.692 -0.2343 -0.2532 -1.0410
 9311TIP3    H249425   1.384   4.374  13.817 -0.1339 -0.5096 -1.2251
 9312TIP3   OH249426   4.187   5.838   0.201  0.3728  0.4459 -0.4538
 9312TIP3    H149427   4.191   5.775   0.272 -0.5091  1.6376  0.6990
 9312TIP3    H249428   4.109   5.890   0.219 -0.2551  0.3746 -2.6714
 9313TIP3   OH249429   5.558   0.367   5.487 -0.6329  0.5220  0.2114
 9313TIP3    H149430   5.599   0.410   5.562 -1.1368 -1.1611  1.5023
 9313TIP3    H249431   5.464   0.386   5.496 -0.7365  0.0175  0.1891
 9314TIP3   OH249432   1.634   6.502   1.258 -0.1179 -0.3781  0.2700
 9314TIP3    H149433   1.701   6.547   1.206  1.3739 -0.5494  1.9454
 9314TIP3    H249434   1.680   6.428   1.298 -1.5222 -0.9778  0.8526
 9315TIP3   OH249435   4.066   5.535  16.924 -0.2030  0.2381 -0.8809
 9315TIP3    H149436   4.001   5.604  16.915  1.8952  2.3619 -0.6170
 9315TIP3    H249437   4.095   5.542  17.015 -0.3823 -1.4340 -0.6667
 9316TIP3   OH249438   4.890   2.924  16.979 -0.4110 -0.4261  0.4167
 9316TIP3    H149439   4.968   2.920  16.923  0.2537 -0.4601  1.3201
 9316TIP3    H249440   4.856   3.012  16.967  0.8229  0.2172  1.3685
 9317TIP3   OH249441   4.620   5.495  12.384  0.3871 -0.8579 -0.1815
 9317TIP3    H149442   4.615   5.557  12.457 -1.3012 -2.2057  0.9463
 9317TIP3    H249443   4.706   5.509  12.346  0.5382  1.2934  0.8014
 9318TIP3   OH249444   1.743   2.367  14.428 -0.0577 -0.5786  0.0573
 9318TIP3    H149445   1.742   2.364  14.524  1.2981  2.2125  0.2531
 9318TIP3    H249446   1.744   2.275  14.402  1.0729 -1.4457  2.7596
 9319TIP3   OH249447   1.929   3.360   2.444  0.0920 -0.2459  0.4883
 9319TIP3    H149448   1.941   3.329   2.354 -0.2893  1.7874 -0.3153
 9319TIP3    H249449   1.954   3.452   2.441 -2.0473  0.4616  1.9469
 9320TIP3   OH249450   3.124   2.875  13.116 -0.3128 -0.1748  0.1579
 9320TIP3    H149451   3.130   2.961  13.157  0.2116  0.6356 -1.4816
 9320TIP3    H249452   3.195   2.875  13.051  0.5206 -2.3481  0.9546
 9321TIP3   OH249453   6.811   4.196  14.032  0.4514 -0.1644 -0.0159
 9321TIP3    H149454   6.759   4.179  14.110 -1.9705 -2.7947 -1.9848
 9321TIP3    H249455   6.773   4.276  13.995 -1.1460 -1.0801 -0.4781
 9322TIP3   OH249456   1.405   0.893   3.117  0.1945 -0.2065  0.2425
 9322TIP3    H149457   1.380   0.915   3.028  0.1533  0.6785  0.4610
 9322TIP3    H249458   1.500   0.880   3.112  0.3481  0.8232  0.2451
 9323TIP3   OH249459   2.396   0.396   5.830  0.1263 -0.4764  0.5715
 9323TIP3    H149460   2.370   0.327   5.768 -0.7032  0.2490  0.0925
 9323TIP3    H249461   2.478   0.364   5.868  1.7720 -0.0814 -2.3505
 9324TIP3   OH249462   6.285   6.076   5.207 -0.2626 -0.2363 -0.0301
 9324TIP3    H149463   6.357   6.139   5.207  0.5440 -1.1278  1.0986
 9324TIP3    H249464   6.310   6.009   5.270 -2.7141  0.1102  1.4563
 9325TIP3   OH249465   5.224   3.354   0.346  0.3813  0.2124  0.2608
 9325TIP3    H149466   5.193   3.422   0.286  0.4227  0.5724  0.6425
 9325TIP3    H249467   5.144   3.319   0.385  0.2234 -1.1324 -1.1607
 9326TIP3   OH249468   0.544   0.037  12.496  0.1285  0.3712  0.0205
 9326TIP3    H149469   0.475   0.083  12.450 -2.0699 -0.1949  2.5200
 9326TIP3    H249470   0.561  -0.042  12.444  0.5267  1.5755 -1.7530
 9327TIP3   OH249471   5.822   0.680  17.179  0.7909  0.1315 -0.5309
 9327TIP3    H149472   5.802   0.682  17.085  1.2192 -0.8166 -0.6470
 9327TIP3    H249473   5.913   0.711  17.184  1.5972 -2.0890 -0.6829
 9328TIP3   OH249474   4.147   2.192  13.360  0.4833  0.1237 -0.0891
 9328TIP3    H149475   4.205   2.125  13.325  0.8763  0.5271 -0.2285
 9328TIP3    H249476   4.174   2.273  13.316 -1.4134  0.0144 -1.5819
 9329TIP3   OH249477   4.456   5.572  16.964  0.1122  0.4716 -0.2545
 9329TIP3    H149478   4.496   5.651  16.999  1.0058 -0.2058  0.3120
 9329TIP3    H249479   4.428   5.523  17.042 -0.7408  0.3777 -0.6088
 9330TIP3   OH249480   4.968   0.504  13.935 -0.0268  0.0792 -0.4226
 9330TIP3    H149481   4.947   0.590  13.972 -0.1579 -0.4478  0.7743
 9330TIP3    H249482   4.982   0.448  14.011  2.3945 -0.4225 -1.1589
 9331TIP3   OH249483   5.206   3.951  13.296 -0.1077 -0.0547  0.6066
 9331TIP3    H149484   5.238   3.865  13.324 -2.1089 -2.0018 -2.4357
 9331TIP3    H249485   5.140   3.974  13.362  0.0586 -1.1336  1.1772
 9332TIP3   OH249486   1.671   6.578   3.379 -0.3060 -0.1748 -0.0243
 9332TIP3    H149487   1.705   6.550   3.294  0.9379  1.5763 -0.1494
 9332TIP3    H249488   1.710   6.516   3.441  0.7352 -0.0219 -0.4930
 9333TIP3   OH249489   5.816   0.172   1.577 -0.6682  0.4892  0.8793
 9333TIP3    H149490   5.816   0.076   1.571  0.4241  0.5355 -0.2393
 9333TIP3    H249491   5.801   0.202   1.488 -0.5910  1.3645  1.1480
 9334TIP3   OH249492   4.842   3.629  17.006  0.3309  0.0991  0.1187
 9334TIP3    H149493   4.790   3.688  16.953  0.1316  3.1818  3.3622
 9334TIP3    H249494   4.841   3.546  16.959 -2.5635  1.6249 -2.8450
 9335TIP3   OH249495   0.649   3.440  16.679 -0.3683 -0.4911 -0.1391
 9335TIP3    H149496   0.563   3.400  16.689 -0.2599 -0.4487  1.1188
 9335TIP3    H249497   0.700   3.376  16.629 -0.8240 -0.9648 -0.0045
 9336TIP3   OH249498   0.924   0.766  11.560 -0.3219 -0.4957 -0.4601
 9336TIP3    H149499   0.946   0.674  11.570  1.1686 -0.1870 -0.7160
 9336TIP3    H249500   1.008   0.811  11.552 -1.0612  0.7012 -2.0165
 9337TIP3   OH249501   4.958   6.690  11.606 -0.4873  0.0599 -0.2138
 9337TIP3    H149502   5.006   6.634  11.667  1.7336  0.6516 -1.3089
 9337TIP3    H249503   4.956   6.776  11.648  1.0467  0.4688 -0.8900
 9338TIP3   OH249504   1.802   2.726  10.712 -0.6823  0.0273  0.3881
 9338TIP3    H149505   1.777   2.804  10.662 -1.2064  0.1008  0.7511
 9338TIP3    H249506   1.742   2.658  10.681  0.9198 -0.7326 -1.2205
 9339TIP3   OH249507   4.865   0.480   6.539  0.0525  0.3135  0.1509
 9339TIP3    H149508   4.917   0.542   6.591 -1.1591  2.6729 -1.2561
 9339TIP3    H249509   4.928   0.433   6.486  0.9571  1.3510  0.2740
 9340TIP3   OH249510   5.094   6.130  14.410 -0.1356 -0.2697 -0.2489
 9340TIP3    H149511   5.092   6.037  14.434  0.3011 -0.1227  0.3934
 9340TIP3    H249512   5.033   6.138  14.337  0.0420 -1.1168 -0.4973
 9341TIP3   OH249513   4.848   0.581   2.604 -0.1898 -0.3226  0.0311
 9341TIP3    H149514   4.827   0.506   2.548 -0.7990 -0.1798  0.0618
 9341TIP3    H249515   4.782   0.647   2.582 -1.1493 -0.6650  1.6780
 9342TIP3   OH249516   4.135   4.846  11.720  0.5059 -0.4767 -0.6624
 9342TIP3    H149517   4.156   4.753  11.706  0.3820 -0.8100  1.1724
 9342TIP3    H249518   4.219   4.887  11.738  0.4757 -0.3818 -0.7412
 9343TIP3   OH249519   3.336   0.940   3.751 -0.7242 -0.1598 -0.2596
 9343TIP3    H149520   3.359   0.939   3.844 -1.2567 -2.8824 -0.0623
 9343TIP3    H249521   3.243   0.964   3.750 -0.7272 -0.1624 -0.0781
 9344TIP3   OH249522   2.080   2.458   5.530  0.1249 -1.1703 -0.2311
 9344TIP3    H149523   2.152   2.401   5.559 -0.5179 -1.5373  0.7054
 9344TIP3    H249524   2.118   2.512   5.461  1.5872 -0.6574  0.9208
 9345TIP3   OH249525   1.740   5.767   2.139  0.0151 -0.0413 -0.3437
 9345TIP3    H149526   1.681   5.713   2.087  0.7783 -0.3690 -0.9020
 9345TIP3    H249527   1.723   5.857   2.110 -1.7831  0.1450  1.1150
 9346TIP3   OH249528   0.279   5.990   0.276 -0.0187 -0.0298  0.3455
 9346TIP3    H149529   0.245   6.072   0.239  1.6884  0.3591 -0.4323
 9346TIP3    H249530   0.346   6.019   0.339 -1.5061 -0.7510  2.3848
 9347TIP3   OH249531   1.541   0.187  16.910 -0.0000  0.3045  0.4734
 9347TIP3    H149532   1.546   0.236  16.828  4.2527 -0.5919 -0.0434
 9347TIP3    H249533   1.449   0.162  16.918 -1.3180  3.7126 -1.9479
 9348TIP3   OH249534   2.612   5.784   0.390  0.0850 -0.3152 -0.2458
 9348TIP3    H149535   2.613   5.770   0.484 -1.6766 -0.5056 -0.2280
 9348TIP3    H249536   2.672   5.858   0.376 -0.7938  0.7177  1.2022
 9349TIP3   OH249537   4.173   3.131   1.268  0.4659  0.0779  0.6420
 9349TIP3    H149538   4.154   3.195   1.337 -2.6666 -1.1029  1.0426
 9349TIP3    H249539   4.103   3.067   1.275  1.1827 -1.2148 -2.3606
 9350TIP3   OH249540   5.965   3.005  12.506 -0.0930 -0.5600  0.4319
 9350TIP3    H149541   6.031   3.074  12.516  0.2658 -0.5909 -1.4530
 9350TIP3    H249542   5.921   3.003  12.591  2.8390 -1.1009  2.0721
 9351TIP3   OH249543   4.255   5.858   5.550  0.4208  0.0798  0.8693
 9351TIP3    H149544   4.332   5.809   5.522 -0.2440 -2.6649  3.3715
 9351TIP3    H249545   4.182   5.815   5.506  0.0816  1.4571  0.0048
 9352TIP3   OH249546   6.207   2.623  15.876 -0.1117 -0.1457  0.2674
 9352TIP3    H149547   6.234   2.705  15.833  1.2048 -1.5603 -1.8180
 9352TIP3    H249548   6.207   2.558  15.805 -0.8931 -2.0187  1.8904
 9353TIP3   OH249549   0.700   0.458   5.094 -0.0778 -0.0254 -0.4196
 9353TIP3    H149550   0.750   0.390   5.048 -2.4207 -2.4196  0.3456
 9353TIP3    H249551   0.655   0.412   5.164 -3.6214  1.8448 -1.2346
 9354TIP3   OH249552   2.546   4.723   1.516 -0.2817 -0.0935  0.2739
 9354TIP3    H149553   2.564   4.656   1.583  0.9534 -0.6703 -0.5839
 9354TIP3    H249554   2.615   4.788   1.529 -0.7567  0.4028  0.3243
 9355TIP3   OH249555   6.227   1.852  12.154  0.6894  0.5018 -0.1192
 9355TIP3    H149556   6.241   1.834  12.247 -2.7136 -0.7523  0.2526
 9355TIP3    H249557   6.133   1.843  12.141  0.9511  1.3960 -3.5720
 9356TIP3   OH249558   2.226   3.247  12.017  0.2802 -0.4787  0.2464
 9356TIP3    H149559   2.192   3.337  12.025 -0.3291 -0.6399 -0.3968
 9356TIP3    H249560   2.243   3.220  12.107  0.8269  0.4147  0.4292
 9357TIP3   OH249561   5.762   4.119   1.594  0.2313  0.1753  0.5894
 9357TIP3    H149562   5.698   4.062   1.551  1.1433  0.3422 -1.0510
 9357TIP3    H249563   5.731   4.124   1.685 -2.7526  1.1787 -0.3400
 9358TIP3   OH249564   4.634   6.061   2.368  0.0415 -0.1397 -0.1700
 9358TIP3    H149565   4.611   6.153   2.354  1.1275  0.1607 -0.0969
 9358TIP3    H249566   4.620   6.048   2.462 -1.2648 -0.4070 -0.3778
 9359TIP3   OH249567   2.524   5.732   0.126 -0.8266 -0.7506 -0.3422
 9359TIP3    H149568   2.513   5.820   0.163 -0.5854 -0.6225 -0.5697
 9359TIP3    H249569   2.577   5.685   0.191  0.3443 -0.2577 -0.9116
 9360TIP3   OH249570   5.189   0.763  16.239 -0.0749 -0.0727 -0.0671
 9360TIP3    H149571   5.125   0.738  16.172  0.7015  0.9096 -1.2210
 9360TIP3    H249572   5.273   0.735  16.203  0.2039 -1.1553  1.3355
 9361TIP3   OH249573   6.821   2.112  12.722  0.1774 -0.6239 -0.5893
 9361TIP3    H149574   6.896   2.172  12.720  0.2558 -0.7423 -1.4682
 9361TIP3    H249575   6.811   2.091  12.815  1.1539 -0.5057 -0.4416
 9362TIP3   OH249576   2.441   5.985   0.202  0.5559 -0.4351  0.3374
 9362TIP3    H149577   2.364   6.040   0.216 -0.8348 -1.5857 -2.1259
 9362TIP3    H249578   2.506   6.043   0.163 -0.4865 -0.2165 -1.1724
 9363TIP3   OH249579   1.359   2.978   4.952  0.2457  0.1818 -0.0702
 9363TIP3    H149580   1.313   3.061   4.964  0.6733  0.2172  1.5768
 9363TIP3    H249581   1.295   2.911   4.976  0.0939  0.0381 -0.8222
 9364TIP3   OH249582   5.366   1.577   5.354  0.1132 -0.0932 -0.3999
 9364TIP3    H149583   5.380   1.504   5.414  1.2325  0.5140  0.1240
 9364TIP3    H249584   5.438   1.638   5.373 -0.0700  0.5712 -1.6870
 9365TIP3   OH249585   4.719   2.291   2.267 -0.5977  0.5696  0.6349
 9365TIP3    H149586   4.667   2.214   2.243 -1.2859  0.6649  1.7167
 9365TIP3    H249587   4.803   2.255   2.294 -1.4276 -0.0400  2.6939
 9366TIP3   OH249588   0.579   2.628  15.610 -0.2611  0.5739  0.2273
 9366TIP3    H149589   0.556   2.575  15.534 -1.1649  0.3898  0.6105
 9366TIP3    H249590   0.531   2.588  15.683  0.8751  0.5099  0.9805
 9367TIP3   OH249591   0.570   0.482  14.005 -0.3866 -0.6449  0.0378
 9367TIP3    H149592   0.528   0.435  13.933 -1.7995 -1.0824  1.0981
 9367TIP3    H249593   0.614   0.556  13.964 -0.5984 -1.2559 -1.3373
 9368TIP3   OH249594   0.396   6.784  14.456 -0.4049  0.5867 -0.0045
 9368TIP3    H149595   0.441   6.866  14.434 -0.9920  0.2833 -2.6802
 9368TIP3    H249596   0.303   6.804  14.446 -0.6961  0.1328  1.5133
 9369TIP3   OH249597   2.520   6.360  14.857  0.2108 -0.3454 -0.0598
 9369TIP3    H149598   2.616   6.364  14.853  0.1340  0.9981 -1.3123
 9369TIP3    H249599   2.497   6.284  14.803  0.5398 -0.0041 -0.6941
 9370TIP3   OH249600   5.726   2.359   4.672  0.0470  0.3567  0.1135
 9370TIP3    H149601   5.731   2.443   4.718  3.1844  0.3389  0.0283
 9370TIP3    H249602   5.752   2.295   4.737  0.2410 -0.2066 -0.5080
 9371TIP3   OH249603   6.094   2.904   3.611  0.0185  0.3375 -0.9517
 9371TIP3    H149604   6.117   2.980   3.557 -0.1349  0.5697 -0.6945
 9371TIP3    H249605   6.176   2.880   3.655  0.1973 -0.0029 -1.4743
 9372TIP3   OH249606   4.457   3.418   4.645 -0.7498  0.7382 -0.2899
 9372TIP3    H149607   4.394   3.355   4.610 -0.4653 -0.4236  1.1848
 9372TIP3    H249608   4.539   3.399   4.599 -0.1061 -1.4808  1.5980
 9373TIP3   OH249609   0.305   6.424   4.641  0.9838  0.9688 -0.1321
 9373TIP3    H149610   0.261   6.483   4.579  0.4112 -2.2357 -3.0930
 9373TIP3    H249611   0.391   6.463   4.655  1.6316  1.3180 -4.0657
 9374TIP3   OH249612   6.324   1.351   5.888  0.2011 -0.2897  0.2008
 9374TIP3    H149613   6.247   1.407   5.877 -1.8681 -3.0199 -0.3597
 9374TIP3    H249614   6.392   1.410   5.919 -2.2704  2.1966  1.3590
 9375TIP3   OH249615   5.705   6.118   2.224 -0.0687  0.5451  1.2210
 9375TIP3    H149616   5.630   6.070   2.190  1.0138  0.1360 -0.7804
 9375TIP3    H249617   5.675   6.209   2.230 -1.2514  0.1185  2.2697
 9376TIP3   OH249618   3.498   2.795  15.736 -0.0028  0.2472 -0.5690
 9376TIP3    H149619   3.527   2.885  15.724 -0.6964  0.3522 -1.5830
 9376TIP3    H249620   3.524   2.750  15.656  0.9229 -0.6390  0.1859
 9377TIP3   OH249621   3.664   2.417   0.745 -0.2729 -0.4667  0.2470
 9377TIP3    H149622   3.660   2.499   0.794  0.3517 -1.1451  1.4729
 9377TIP3    H249623   3.607   2.357   0.793  0.0355 -1.0293 -0.0712
 9378TIP3   OH249624   3.555   5.228   1.528  0.5270  0.3071 -0.1948
 9378TIP3    H149625   3.593   5.288   1.464 -0.6217  1.9575  0.6098
 9378TIP3    H249626   3.545   5.146   1.480  1.4884  0.9306 -1.5399
 9379TIP3   OH249627   5.207   5.392  14.374  0.1605  0.2575 -0.2769
 9379TIP3    H149628   5.189   5.330  14.445  0.1808 -1.8747 -2.0464
 9379TIP3    H249629   5.198   5.478  14.415 -0.9246 -0.8694  2.0307
 9380TIP3   OH249630   6.433   3.522   3.641 -0.2282 -0.5698  0.3035
 9380TIP3    H149631   6.458   3.547   3.552 -1.3185  0.0858  0.1709
 9380TIP3    H249632   6.338   3.528   3.643 -0.1331  1.6837  2.1413
 9381TIP3   OH249633   4.981   6.582   3.720 -0.4187  1.2784 -0.3146
 9381TIP3    H149634   4.998   6.488   3.734  1.9078  1.8495  1.3600
 9381TIP3    H249635   4.898   6.598   3.766 -0.3274  0.2141  0.2648
 9382TIP3   OH249636   4.562   3.224  12.541  0.3318  0.1781  0.2166
 9382TIP3    H149637   4.627   3.258  12.479 -1.3947  2.6948 -0.3784
 9382TIP3    H249638   4.479   3.226  12.492 -0.6484 -0.2822  1.8029
 9383TIP3   OH249639   4.858   0.261   4.119 -0.5615  0.1031  0.1058
 9383TIP3    H149640   4.771   0.228   4.143 -0.8314 -0.9661 -2.1127
 9383TIP3    H249641   4.914   0.183   4.118 -0.5083  0.0964 -2.2062
 9384TIP3   OH249642   1.518   6.156   6.239  0.1394 -0.3269  0.3031
 9384TIP3    H149643   1.548   6.128   6.326 -0.2713 -2.6294 -0.2333
 9384TIP3    H249644   1.442   6.102   6.221  0.6142 -0.3940 -1.7776
 9385TIP3   OH249645   1.371   4.858   3.088 -0.0463  0.1633 -0.1435
 9385TIP3    H149646   1.440   4.866   3.022 -0.8345  2.9695 -0.7643
 9385TIP3    H249647   1.298   4.909   3.052 -1.3369 -0.1659  1.8744
 9386TIP3   OH249648   3.318   4.276  16.482 -0.2865 -0.5893 -0.1851
 9386TIP3    H149649   3.337   4.183  16.494 -0.2378 -0.5271  0.2404
 9386TIP3    H249650   3.393   4.309  16.432  0.2844 -0.5389  0.6755
 9387TIP3   OH249651   0.749   1.990  16.049 -0.2896  0.2749 -0.3024
 9387TIP3    H149652   0.741   2.078  16.013 -0.8039  0.0976 -0.6265
 9387TIP3    H249653   0.841   1.967  16.036  0.4981  1.7348  2.0824
 9388TIP3   OH249654   0.927   2.358   6.449 -0.4695  0.0504  0.3425
 9388TIP3    H149655   0.858   2.297   6.426 -0.2154 -0.3664  0.6720
 9388TIP3    H249656   0.887   2.445   6.441 -0.8741 -0.1656  0.0268
 9389TIP3   OH249657   2.803   2.453   1.852  0.2148  0.1386 -0.3852
 9389TIP3    H149658   2.741   2.489   1.789  0.9920  1.1334 -0.6128
 9389TIP3    H249659   2.748   2.415   1.921 -0.6389 -0.2657 -1.2671
 9390TIP3   OH249660   3.326   4.551  15.884  0.8619  0.2185  0.3668
 9390TIP3    H149661   3.317   4.474  15.940  2.0334 -1.4819 -1.6234
 9390TIP3    H249662   3.377   4.520  15.809 -0.8843  2.2312 -1.8294
 9391TIP3   OH249663   2.116   3.342   3.264 -0.2484 -0.1962 -0.0694
 9391TIP3    H149664   2.048   3.407   3.244  0.5876  0.6431 -0.2635
 9391TIP3    H249665   2.099   3.270   3.202  0.4950  1.0730 -1.8385
 9392TIP3   OH249666   6.692   1.409  12.624  1.0473  0.2019  0.6815
 9392TIP3    H149667   6.782   1.377  12.617  1.3730  1.2753 -0.2861
 9392TIP3    H249668   6.639   1.339  12.586  1.6696  0.4243 -0.6401
 9393TIP3   OH249669   4.668   0.053  11.443  0.3558  0.7295 -0.1358
 9393TIP3    H149670   4.722   0.132  11.436  0.9222  0.2366 -1.7750
 9393TIP3    H249671   4.726  -0.013  11.481  0.8169  0.3273 -1.4731
 9394TIP3   OH249672   2.386   3.545   3.617  0.0211  0.0443  0.3202
 9394TIP3    H149673   2.443   3.533   3.541  0.5507  0.2358  0.6769
 9394TIP3    H249674   2.381   3.640   3.628 -1.7394  0.0995 -0.7102
 9395TIP3   OH249675   1.566   5.393  13.956  0.2313  0.2519  0.2503
 9395TIP3    H149676   1.559   5.326  14.023  1.0017  1.1196  1.2431
 9395TIP3    H249677   1.508   5.463  13.986 -0.4457  0.1112 -0.6941
 9396TIP3   OH249678   1.447   4.173  13.458 -0.4555  0.3236  0.0830
 9396TIP3    H149679   1.453   4.133  13.371 -1.3343 -0.2478  0.2687
 9396TIP3    H249680   1.486   4.260  13.448 -0.4721  0.2291 -0.8611
 9397TIP3   OH249681   0.566   3.487  14.272 -0.5937  0.1648  0.2213
 9397TIP3    H149682   0.643   3.459  14.322 -0.1372  1.3053  0.1817
 9397TIP3    H249683   0.499   3.423  14.294  0.7646 -1.7504 -0.8759
 9398TIP3   OH249684   5.104   3.678  11.954 -0.4910  0.4384 -0.0184
 9398TIP3    H149685   5.153   3.706  12.030  0.2088 -1.5063  0.3111
 9398TIP3    H249686   5.103   3.754  11.896  0.7905  1.2846  1.0230
 9399TIP3   OH249687   4.852   2.365  16.990 -0.4655 -0.1746 -0.0143
 9399TIP3    H149688   4.788   2.432  16.963  0.3251  0.3934 -0.5324
 9399TIP3    H249689   4.850   2.368  17.086  0.9739  2.0546  0.0359
 9400TIP3   OH249690   6.652   6.150   0.154  0.0171 -0.1037 -0.1168
 9400TIP3    H149691   6.684   6.111   0.072 -0.5337 -0.7776 -0.0114
 9400TIP3    H249692   6.557   6.153   0.144 -0.0694 -0.3799  0.5810
 9401TIP3   OH249693   6.554   3.878   3.375  0.2849 -0.2303 -0.2327
 9401TIP3    H149694   6.617   3.912   3.311  1.7091 -2.5010 -0.1318
 9401TIP3    H249695   6.601   3.880   3.458 -0.1334 -1.0623  0.0264
 9402TIP3   OH249696   5.760   3.206  13.769 -0.2419 -0.1663 -0.1546
 9402TIP3    H149697   5.714   3.263  13.831  0.5515 -0.7615  1.0163
 9402TIP3    H249698   5.852   3.230  13.780 -0.1905  0.8629 -2.3102
 9403TIP3   OH249699   1.138   6.330   1.423  0.6988 -0.3003  0.8264
 9403TIP3    H149700   1.192   6.408   1.434 -1.2529  1.1358  0.7031
 9403TIP3    H249701   1.109   6.308   1.512 -1.9803  1.6205  0.5682
 9404TIP3   OH249702   1.661   5.407   3.236 -0.4730 -0.2596 -0.5134
 9404TIP3    H149703   1.657   5.410   3.332 -1.0458 -0.1510 -0.5365
 9404TIP3    H249704   1.735   5.464   3.214 -2.5563  2.7755 -0.2661
 9405TIP3   OH249705   5.641   3.551   6.029  0.2946 -0.2386  0.1684
 9405TIP3    H149706   5.578   3.623   6.035 -0.5206 -0.8550 -0.7558
 9405TIP3    H249707   5.700   3.566   6.103 -0.6229  0.6501  0.7601
 9406TIP3   OH249708   1.022   3.400  15.170 -0.2333 -0.1217  0.4997
 9406TIP3    H149709   0.983   3.482  15.138  0.7770  0.7958  1.5283
 9406TIP3    H249710   1.067   3.364  15.094 -3.9821 -1.9175 -1.1679
 9407TIP3   OH249711   5.568   3.933  16.260 -0.0963 -0.0730  0.4214
 9407TIP3    H149712   5.527   3.849  16.240 -0.5163  0.8163 -3.1601
 9407TIP3    H249713   5.617   3.955  16.181  2.0027  2.0024  2.1345
 9408TIP3   OH249714   5.857   4.537  16.821  0.1405 -0.1034  0.2470
 9408TIP3    H149715   5.826   4.458  16.777  0.8998 -0.5857  0.5525
 9408TIP3    H249716   5.901   4.587  16.753 -0.2207 -0.0036  0.0828
 9409TIP3   OH249717   2.268   3.900  13.350 -0.2474  0.0796  0.3032
 9409TIP3    H149718   2.194   3.860  13.306 -1.9825  3.2786  0.0364
 9409TIP3    H249719   2.253   3.884  13.443  0.7060 -2.2788  0.1226
 9410TIP3   OH249720   4.360   3.843  12.308  0.2645  0.2971 -0.1297
 9410TIP3    H149721   4.451   3.860  12.330 -0.1532  0.9702  1.2193
 9410TIP3    H249722   4.316   3.838  12.393 -1.0623  0.6223 -0.7752
 9411TIP3   OH249723   2.546   3.936   0.605  0.3347 -0.2229 -0.1725
 9411TIP3    H149724   2.490   4.013   0.615 -0.0216 -0.1417 -2.3651
 9411TIP3    H249725   2.635   3.970   0.618  0.0548 -0.0154  1.5410
 9412TIP3   OH249726   6.371   6.747   4.282  0.1276 -0.5429  0.0708
 9412TIP3    H149727   6.419   6.776   4.359  2.9660 -0.8071 -1.4460
 9412TIP3    H249728   6.427   6.773   4.208 -1.9383 -1.2343 -1.8593
 9413TIP3   OH249729   3.664   2.293   5.233  0.7627 -0.2940 -0.1019
 9413TIP3    H149730   3.635   2.377   5.198 -2.4028 -0.9872  0.5493
 9413TIP3    H249731   3.639   2.228   5.167 -1.1555 -1.1225  1.3062
 9414TIP3   OH249732   4.751   6.805   5.074  0.1419  0.1771 -0.4914
 9414TIP3    H149733   4.722   6.733   5.130 -2.6754  0.3465 -1.5574
 9414TIP3    H249734   4.800   6.863   5.133 -1.0433 -0.5953  1.3480
 9415TIP3   OH249735   0.532   4.347  11.441  0.0171  0.3075 -0.3674
 9415TIP3    H149736   0.562   4.436  11.424 -0.1866  0.6444  0.9752
 9415TIP3    H249737   0.473   4.355  11.516 -0.0480 -0.9469 -0.2655
 9416TIP3   OH249738   5.487   5.930   1.291  0.7221  0.2084 -0.4721
 9416TIP3    H149739   5.539   5.992   1.240 -2.4892  0.6897 -3.5525
 9416TIP3    H249740   5.488   5.850   1.239  0.2184 -0.4824  0.5510
 9417TIP3   OH249741   1.776   2.650   1.613 -0.1201 -0.0787  0.3482
 9417TIP3    H149742   1.781   2.577   1.551 -0.7678  0.2076 -0.0536
 9417TIP3    H249743   1.730   2.719   1.565  0.3090  0.5316  0.7856
 9418TIP3   OH249744   5.435   2.936   3.805 -0.0160 -0.4203  0.1826
 9418TIP3    H149745   5.405   2.982   3.884 -1.3714 -0.9350 -0.0028
 9418TIP3    H249746   5.481   2.859   3.839  1.6061  0.6333  0.4802
 9419TIP3   OH249747   4.885   5.176  13.699 -0.2463  0.3084 -0.3766
 9419TIP3    H149748   4.932   5.107  13.746 -1.4716 -0.9370 -0.8923
 9419TIP3    H249749   4.805   5.133  13.668 -0.6879  1.7763 -1.3758
 9420TIP3   OH249750   2.675   3.964  15.311  0.2893  0.2733 -0.8287
 9420TIP3    H149751   2.648   3.966  15.403 -0.3697  0.2578 -1.0189
 9420TIP3    H249752   2.770   3.973  15.314  0.2859  0.1525 -0.1383
 9421TIP3   OH249753   0.563   3.404  15.567 -0.0921  0.0655 -0.1004
 9421TIP3    H149754   0.590   3.475  15.508 -2.1454  0.2769 -0.8667
 9421TIP3    H249755   0.609   3.327  15.535  1.1189  0.7679 -0.1059
 9422TIP3   OH249756   1.190   1.830  17.001 -0.7895  0.3100  0.1478
 9422TIP3    H149757   1.207   1.914  17.042  0.2087  0.5877 -0.7867
 9422TIP3    H249758   1.276   1.800  16.972 -1.2955 -0.4853 -0.5673
 9423TIP3   OH249759   3.337   5.341   3.541  0.2851 -1.0029  0.5193
 9423TIP3    H149760   3.375   5.408   3.597  1.0183 -0.6410 -0.3952
 9423TIP3    H249761   3.245   5.336   3.569  0.8045 -1.4402  2.3249
 9424TIP3   OH249762   5.023   1.930   3.785 -0.4801 -0.2328  0.7673
 9424TIP3    H149763   4.980   1.983   3.718  1.7936  0.1873 -0.4750
 9424TIP3    H249764   5.015   1.981   3.865 -2.7066 -0.4523  0.7523
 9425TIP3   OH249765   2.443   5.398  13.478 -0.1715 -0.2258 -0.0246
 9425TIP3    H149766   2.406   5.478  13.515 -1.2124 -1.0239  0.7314
 9425TIP3    H249767   2.513   5.374  13.538  1.3456  1.0255 -1.1974
 9426TIP3   OH249768   5.901   0.745   2.764  0.4347  0.0236  0.3706
 9426TIP3    H149769   5.857   0.684   2.823  0.5348 -1.8921 -1.4301
 9426TIP3    H249770   5.932   0.815   2.821 -1.2233 -0.7087  2.2730
 9427TIP3   OH249771   1.606   3.393   0.033 -0.2857 -0.3384  0.1181
 9427TIP3    H149772   1.605   3.381  -0.062 -3.0847  1.5230 -0.1721
 9427TIP3    H249773   1.619   3.304   0.068  1.2460 -0.9931 -1.9386
 9428TIP3   OH249774   6.521   0.867   0.189 -0.3812  0.3546  0.0086
 9428TIP3    H149775   6.503   0.810   0.264  1.3050  0.9964  0.9511
 9428TIP3    H249776   6.488   0.953   0.214  1.7976  1.0260  0.8736
 9429TIP3   OH249777   0.881   0.933   4.904  0.1694  0.1322 -0.3173
 9429TIP3    H149778   0.896   1.010   4.958 -0.6178  0.5758 -0.6997
 9429TIP3    H249779   0.786   0.928   4.896  0.1721 -1.2536  0.2154
 9430TIP3   OH249780   6.306   5.846  17.093 -0.7113  0.1638  0.3529
 9430TIP3    H149781   6.400   5.832  17.110 -0.1689  1.9559 -0.8462
 9430TIP3    H249782   6.290   5.802  17.009 -1.2352 -1.0158  1.0376
 9431TIP3   OH249783   4.357   1.978   2.023 -0.4621 -0.4260  0.8727
 9431TIP3    H149784   4.396   1.994   2.109  1.2828 -0.3805  0.1077
 9431TIP3    H249785   4.391   1.893   1.996 -0.3947 -0.0978 -0.1019
 9432TIP3   OH249786   6.091   3.366  10.532 -0.4281  0.1623  0.2622
 9432TIP3    H149787   6.126   3.436  10.476 -1.2245  0.6537  0.3744
 9432TIP3    H249788   6.000   3.390  10.548 -0.7417 -0.9426  0.2436
 9433TIP3   OH249789   2.994   2.830  15.551 -0.2254  0.0139  0.2328
 9433TIP3    H149790   2.999   2.833  15.646  1.5556 -0.4201  0.1811
 9433TIP3    H249791   3.064   2.771  15.525  2.3960  3.5520 -1.5654
 9434TIP3   OH249792   5.314   1.068  12.619  0.7792 -0.1246  0.5035
 9434TIP3    H149793   5.407   1.046  12.611  0.1914 -2.7414 -0.4429
 9434TIP3    H249794   5.296   1.125  12.544  1.7291  1.0328  1.1227
 9435TIP3   OH249795   5.270   3.302   3.755  0.2780 -0.3384 -0.0391
 9435TIP3    H149796   5.209   3.373   3.775  0.5071 -0.3637  0.8086
 9435TIP3    H249797   5.355   3.334   3.786  0.5384 -0.6498 -0.4188
 9436TIP3   OH249798   0.692   4.695  15.478  0.5682  0.1890  0.0625
 9436TIP3    H149799   0.642   4.717  15.557  1.9399  2.6790  0.3347
 9436TIP3    H249800   0.750   4.624  15.506 -0.4883 -0.4784  0.6383
 9437TIP3   OH249801   2.076   4.217   5.095 -0.1334 -1.4163  0.3644
 9437TIP3    H149802   1.987   4.246   5.117 -0.7106 -1.5387 -1.6193
 9437TIP3    H249803   2.118   4.204   5.179 -1.1138  1.3002  1.3914
 9438TIP3   OH249804   0.944   0.872  15.382 -0.2327  0.1623 -0.4086
 9438TIP3    H149805   0.992   0.893  15.462  0.9447 -2.1808 -0.4186
 9438TIP3    H249806   1.007   0.887  15.311  0.3395 -2.2228 -0.4778
 9439TIP3   OH249807   5.697   2.317  12.981 -0.7674 -0.6959  0.3182
 9439TIP3    H149808   5.685   2.387  12.918 -0.5955  0.1194  1.1718
 9439TIP3    H249809   5.789   2.322  13.006 -1.1023 -0.2275  1.5185
 9440TIP3   OH249810   3.948   2.787  15.800 -0.6040  0.7306 -0.4602
 9440TIP3    H149811   3.874   2.846  15.809  0.3698  1.8130  0.7726
 9440TIP3    H249812   3.955   2.771  15.706 -3.2444 -0.5733 -0.5205
 9441TIP3   OH249813   3.432   2.710  13.682 -0.1966 -0.1810 -0.0780
 9441TIP3    H149814   3.461   2.692  13.592 -0.3294 -0.1243 -0.1325
 9441TIP3    H249815   3.368   2.780  13.672 -0.0220  0.0041  0.0868
 9442TIP3   OH249816   3.287   4.390   3.453 -0.5788 -0.5255  0.6416
 9442TIP3    H149817   3.297   4.330   3.527 -1.1242 -2.0246 -0.4396
 9442TIP3    H249818   3.375   4.424   3.437 -0.3292 -0.7405  1.5360
 9443TIP3   OH249819   6.123   2.876  17.032 -0.4030 -0.6543  0.1311
 9443TIP3    H149820   6.140   2.970  17.023 -0.3458 -0.5438  1.2013
 9443TIP3    H249821   6.197   2.843  17.082  0.5783 -1.6606 -1.8811
 9444TIP3   OH249822   3.250   1.288  17.006  0.0316  0.6356  0.3061
 9444TIP3    H149823   3.315   1.237  17.055  0.3110  0.4708 -0.2263
 9444TIP3    H249824   3.235   1.236  16.926  0.7574  1.6648 -0.5236
 9445TIP3   OH249825   5.220   1.056  15.953 -0.4856  0.2338  0.0322
 9445TIP3    H149826   5.127   1.032  15.950 -0.5153  0.3238  0.2115
 9445TIP3    H249827   5.262   0.981  15.996 -0.7898  1.1131  1.9416
 9446TIP3   OH249828   1.893   4.482  11.133  0.0297  0.5720  0.5761
 9446TIP3    H149829   1.809   4.505  11.172 -0.0811 -0.0954  0.7408
 9446TIP3    H249830   1.884   4.390  11.109  1.4677 -0.1431  2.5917
 9447TIP3   OH249831   1.647   5.057   6.108 -0.4614 -0.3198 -0.1648
 9447TIP3    H149832   1.553   5.072   6.098 -0.5397 -1.3367 -1.1030
 9447TIP3    H249833   1.658   4.963   6.095  0.5876 -0.3475  0.7860
 9448TIP3   OH249834   2.591   3.650   0.635  0.4931  0.0381 -0.4579
 9448TIP3    H149835   2.600   3.741   0.607 -0.5418 -0.3012 -2.0434
 9448TIP3    H249836   2.498   3.641   0.656  0.6067 -0.6335 -0.2342
 9449TIP3   OH249837   1.695   3.792  15.004 -0.3998 -0.2547 -0.5653
 9449TIP3    H149838   1.624   3.838  15.050  0.3994 -1.0248  1.5643
 9449TIP3    H249839   1.656   3.710  14.974 -0.5936 -0.3772  0.0101
 9450TIP3   OH249840   2.729   1.703   0.309  0.1025  0.4777 -0.3078
 9450TIP3    H149841   2.729   1.608   0.311 -0.2764  0.4682 -0.7129
 9450TIP3    H249842   2.779   1.726   0.231  2.2431  0.6589  1.0247
 9451TIP3   OH249843   1.280   3.645   1.857 -0.0067  0.1481  0.2207
 9451TIP3    H149844   1.186   3.643   1.878 -0.0716  0.0974 -0.0645
 9451TIP3    H249845   1.283   3.627   1.763  0.2827  0.2766  0.2064
 9452TIP3   OH249846   3.692   1.784   1.461  0.3047  0.3869  0.7135
 9452TIP3    H149847   3.667   1.695   1.484  3.7801 -0.6729  0.9175
 9452TIP3    H249848   3.752   1.811   1.530  1.3357  1.8581 -0.6817
 9453TIP3   OH249849   5.449   1.076  14.642  0.8038 -0.0567 -0.0981
 9453TIP3    H149850   5.422   1.051  14.731  0.4314  2.3629  0.5250
 9453TIP3    H249851   5.370   1.068  14.590 -0.0241  2.2393  0.6788
 9454TIP3   OH249852   5.890   3.661  11.211 -0.0125  0.0767 -0.0616
 9454TIP3    H149853   5.936   3.577  11.208  0.3799  0.2199  1.2114
 9454TIP3    H249854   5.870   3.674  11.304 -0.1744  1.3355 -0.2519
 9455TIP3   OH249855   0.896   4.087   6.102 -0.0507 -0.2717 -0.5273
 9455TIP3    H149856   0.984   4.125   6.115  0.2704 -1.0062 -0.5273
 9455TIP3    H249857   0.880   4.038   6.183  0.7214 -2.4479 -1.6151
 9456TIP3   OH249858   1.406   2.719   1.975 -0.2373  0.4441 -0.0888
 9456TIP3    H149859   1.406   2.718   1.879 -2.0784 -0.1595 -0.1312
 9456TIP3    H249860   1.325   2.766   1.998  0.3710  0.9047  1.1740
 9457TIP3   OH249861   1.377   6.318   5.500 -0.2437  0.7290 -0.0840
 9457TIP3    H149862   1.390   6.273   5.417 -1.3211 -1.0550  0.6549
 9457TIP3    H249863   1.396   6.251   5.567 -2.2071  1.2434  1.0624
 9458TIP3   OH249864   4.152   1.723   3.817 -0.4180  0.4913  0.4540
 9458TIP3    H149865   4.154   1.759   3.906  0.3671 -0.9981  1.0802
 9458TIP3    H249866   4.126   1.632   3.829  0.5447  0.0384 -0.7551
 9459TIP3   OH249867   4.254   2.244  12.833 -0.7066 -0.1208 -0.9370
 9459TIP3    H149868   4.294   2.328  12.810 -1.6012  0.3542 -0.8101
 9459TIP3    H249869   4.164   2.266  12.857 -0.5212 -0.9191  0.6183
 9460TIP3   OH249870   0.350   3.959   3.986 -0.3214 -0.3334  0.5768
 9460TIP3    H149871   0.268   3.911   3.973  1.1547 -2.8962  0.0187
 9460TIP3    H249872   0.399   3.906   4.049  1.0095  1.0253  0.7370
 9461TIP3   OH249873   5.864   4.728  15.164 -0.0099  1.0160  0.0954
 9461TIP3    H149874   5.811   4.793  15.118 -3.0257 -1.0155  0.4226
 9461TIP3    H249875   5.801   4.662  15.194  2.7177 -1.5540  0.6675
 9462TIP3   OH249876   3.264   5.429   4.874  0.6512 -0.2109  0.2472
 9462TIP3    H149877   3.331   5.462   4.933  0.2214  0.3333  0.4389
 9462TIP3    H249878   3.197   5.498   4.873  1.3151  0.4959 -2.0177
 9463TIP3   OH249879   2.449   0.830   3.688 -0.4512  0.0918 -0.2850
 9463TIP3    H149880   2.500   0.892   3.636  1.1684 -1.0940 -0.1797
 9463TIP3    H249881   2.512   0.790   3.747 -1.8780 -0.0879  1.1861
 9464TIP3   OH249882   5.614   2.649   2.934  0.0988 -0.2564  0.2705
 9464TIP3    H149883   5.525   2.627   2.907 -0.9583  3.0792  0.5360
 9464TIP3    H249884   5.628   2.599   3.014 -2.0190  0.0124  0.8592
 9465TIP3   OH249885   0.895   3.281  16.916  0.9644 -0.5223  0.4966
 9465TIP3    H149886   0.806   3.261  16.946  0.6241 -1.3370 -0.9935
 9465TIP3    H249887   0.890   3.374  16.891  0.8185 -0.2882  1.3417
 9466TIP3   OH249888   2.943   4.053   2.455 -1.0943 -0.4627 -0.6748
 9466TIP3    H149889   2.959   4.106   2.533  0.6957 -1.6900 -0.1381
 9466TIP3    H249890   3.031   4.036   2.420 -1.7905 -0.9733 -2.2683
 9467TIP3   OH249891   2.518   3.070  13.847 -0.0229  0.0058 -0.4836
 9467TIP3    H149892   2.582   3.085  13.777 -0.4607  0.8280 -0.7234
 9467TIP3    H249893   2.571   3.060  13.926  0.4240  0.3371 -0.7346
 9468TIP3   OH249894   4.456   4.207  15.875 -0.9117  0.7223  0.3035
 9468TIP3    H149895   4.446   4.302  15.867 -3.9976  0.5547  1.0789
 9468TIP3    H249896   4.405   4.171  15.803 -0.1295 -0.3727  0.2805
 9469TIP3   OH249897   1.430   4.978  15.667  0.3962  0.9090 -0.1012
 9469TIP3    H149898   1.405   5.068  15.649 -0.3711  0.4515 -1.4413
 9469TIP3    H249899   1.384   4.926  15.601  2.5028 -0.2552 -0.7435
 9470TIP3   OH249900   5.910   5.183   0.905 -0.9465  0.8084  0.3617
 9470TIP3    H149901   5.907   5.203   0.811  0.7782 -0.2541  0.0447
 9470TIP3    H249902   5.981   5.237   0.939 -1.4407  1.0500  1.0349
 9471TIP3   OH249903   5.216   1.781  15.589 -0.1447  0.2047  0.2909
 9471TIP3    H149904   5.277   1.739  15.528  0.0902  1.1994 -0.1738
 9471TIP3    H249905   5.157   1.710  15.617  1.4142 -0.8649  1.0261
 9472TIP3   OH249906   0.035   2.239   4.028 -0.8025  0.1027  0.2645
 9472TIP3    H149907   0.087   2.231   4.108 -1.2161 -0.2027  0.5073
 9472TIP3    H249908   0.019   2.149   4.000 -1.7629  0.1654  0.5651
 9473TIP3   OH249909   0.741   5.218  14.396 -0.6824 -0.4360  0.5847
 9473TIP3    H149910   0.692   5.296  14.424  0.1285  0.0060  0.8197
 9473TIP3    H249911   0.820   5.253  14.355 -2.2049 -1.0201 -3.2498
 9474TIP3   OH249912   5.681   3.277  14.243  0.2311 -0.0378 -0.1382
 9474TIP3    H149913   5.770   3.267  14.276  0.9652  1.3506 -1.5502
 9474TIP3    H249914   5.646   3.188  14.240  1.5910 -0.6196  0.3617
 9475TIP3   OH249915   2.417   6.339   3.939  0.1219  0.2697 -0.8025
 9475TIP3    H149916   2.344   6.363   3.882 -1.7820 -1.5547  0.6963
 9475TIP3    H249917   2.453   6.422   3.969 -2.0736  1.2472 -0.7342
 9476TIP3   OH249918   4.155   4.203   4.264 -0.0495 -0.0933 -0.1556
 9476TIP3    H149919   4.169   4.131   4.204  1.9846  0.6609 -0.6610
 9476TIP3    H249920   4.135   4.278   4.208 -2.1801 -0.1910  0.3611
 9477TIP3   OH249921   3.534   3.043   2.605  0.2145  0.4016  0.4582
 9477TIP3    H149922   3.576   2.966   2.644  3.0554  1.8248  0.5285
 9477TIP3    H249923   3.559   3.115   2.663 -0.4803  1.7034 -0.7941
 9478TIP3   OH249924   0.424   0.849  16.510  0.3035 -0.1712  0.2595
 9478TIP3    H149925   0.513   0.845  16.476  0.1832  0.3763 -0.1333
 9478TIP3    H249926   0.411   0.941  16.532  0.4010 -0.5225  1.8790
 9479TIP3   OH249927   0.064   5.700   4.621  0.4101  0.0090 -0.1026
 9479TIP3    H149928   0.068   5.605   4.627  0.3751  0.0233  0.1624
 9479TIP3    H249929   0.016   5.717   4.540  1.2767 -0.1924 -0.6724
 9480TIP3   OH249930   4.592   6.206  14.403  0.0155 -0.4179  0.1220
 9480TIP3    H149931   4.643   6.174  14.477  1.6767  2.7828  0.5602
 9480TIP3    H249932   4.624   6.156  14.328  1.6728 -0.6020  0.8949
 9481TIP3   OH249933   5.161   2.788  15.549 -0.1229  0.3511  0.1917
 9481TIP3    H149934   5.079   2.740  15.539 -1.9114  3.3604 -0.7946
 9481TIP3    H249935   5.168   2.840  15.469  2.9590 -0.0197  0.1083
 9482TIP3   OH249936   3.079   3.706  13.690  0.1129 -0.2858 -0.2033
 9482TIP3    H149937   3.105   3.672  13.604  0.7186 -1.4459  0.4149
 9482TIP3    H249938   3.138   3.663  13.751  1.0201  2.0086  0.6434
 9483TIP3   OH249939   3.729   5.284   2.253 -0.1552 -0.3513 -0.2415
 9483TIP3    H149940   3.649   5.241   2.225 -0.8807  0.9288 -0.1813
 9483TIP3    H249941   3.705   5.331   2.333  1.1819 -1.6037  0.9779
 9484TIP3   OH249942   3.349   2.724   3.700 -0.3325 -0.7930  0.1724
 9484TIP3    H149943   3.267   2.725   3.651  0.0900 -0.9113 -0.5446
 9484TIP3    H249944   3.403   2.792   3.658  0.2339 -1.2667  0.1171
 9485TIP3   OH249945   1.835   3.801   1.011 -0.2024  0.4857  0.1845
 9485TIP3    H149946   1.797   3.768   0.930 -0.7000  2.8494 -0.6329
 9485TIP3    H249947   1.926   3.771   1.009 -0.0023  1.0975 -1.6370
 9486TIP3   OH249948   0.343   6.537   5.159 -0.5653 -0.3724  0.0592
 9486TIP3    H149949   0.310   6.448   5.172 -1.4022 -0.0140  0.4518
 9486TIP3    H249950   0.318   6.560   5.070 -1.3508 -0.1214  0.3378
 9487TIP3   OH249951   2.877   1.204  12.836 -0.0298 -0.2634  0.3545
 9487TIP3    H149952   2.947   1.138  12.842 -0.0866 -0.4120 -0.5200
 9487TIP3    H249953   2.802   1.163  12.877 -0.2307 -0.9837 -0.7106
 9488TIP3   OH249954   0.708   3.276  15.893  0.6072  0.3376  0.2084
 9488TIP3    H149955   0.634   3.250  15.838  0.4262 -0.3073  0.7436
 9488TIP3    H249956   0.768   3.321  15.833  0.6790 -0.8545 -0.6575
 9489TIP3   OH249957   4.048   6.136  14.671 -0.4610 -0.7106 -0.5500
 9489TIP3    H149958   4.112   6.204  14.649 -0.2196 -0.6055  0.4388
 9489TIP3    H249959   4.003   6.119  14.589  0.5141 -0.4476 -1.1565
 9490TIP3   OH249960   1.095   2.339  14.980  0.1638 -0.8669  0.6609
 9490TIP3    H149961   1.095   2.291  15.063  0.8040 -1.6745  0.2072
 9490TIP3    H249962   1.184   2.330  14.946  0.9734  2.4001  1.5184
 9491TIP3   OH249963   5.183   1.389  14.595 -0.6061  0.1062  0.1971
 9491TIP3    H149964   5.118   1.454  14.623 -0.2264 -0.1091  1.6978
 9491TIP3    H249965   5.214   1.421  14.511 -3.5182 -0.4154 -1.2112
 9492TIP3   OH249966   3.708   6.128  16.999 -0.6321  0.4715  0.1389
 9492TIP3    H149967   3.650   6.160  17.068 -0.0054 -0.2370  1.0257
 9492TIP3    H249968   3.662   6.052  16.963 -1.6836  1.7545 -1.3237
 9493TIP3   OH249969   6.471   6.500  16.691 -0.3506  0.1187 -0.5595
 9493TIP3    H149970   6.383   6.481  16.722 -0.4174  2.0059  0.5801
 9493TIP3    H249971   6.465   6.586  16.651  0.8789  0.0764 -0.8896
 9494TIP3   OH249972   2.390   5.626   0.957  0.0014  0.4405  1.0669
 9494TIP3    H149973   2.468   5.589   0.999 -0.2433 -0.0114  1.1203
 9494TIP3    H249974   2.317   5.596   1.011 -0.6866 -2.9578 -1.4394
 9495TIP3   OH249975   5.025   0.858  15.316 -0.3377  0.2423 -0.2224
 9495TIP3    H149976   4.998   0.787  15.375 -2.2325  1.1426  0.0709
 9495TIP3    H249977   5.091   0.906  15.365 -0.2334 -0.3596  0.2392
 9496TIP3   OH249978   6.778   0.671   1.688 -0.3551  0.7144 -0.0730
 9496TIP3    H149979   6.700   0.691   1.636 -1.4717 -2.9909 -0.1147
 9496TIP3    H249980   6.745   0.652   1.776  0.7837  1.2100  0.4838
 9497TIP3   OH249981   0.683   4.164   0.211  0.1834 -0.1367 -0.0151
 9497TIP3    H149982   0.592   4.151   0.237 -0.1602 -2.3193 -1.9660
 9497TIP3    H249983   0.677   4.221   0.134  0.4547 -0.3169 -0.1714
 9498TIP3   OH249984   5.291   0.535   3.121  0.0055  0.1507 -0.3937
 9498TIP3    H149985   5.370   0.587   3.138 -0.0376  0.3795 -0.8728
 9498TIP3    H249986   5.320   0.444   3.130 -0.2721  0.2501  1.9912
 9499TIP3   OH249987   2.985   2.019  14.828  0.3041  0.0395  0.4292
 9499TIP3    H149988   2.893   2.021  14.856  0.2494  1.4189  0.2477
 9499TIP3    H249989   3.008   2.111  14.818  2.2578 -0.2021  2.1862
 9500TIP3   OH249990   4.793   4.065  11.216  0.7108  0.2620  0.0391
 9500TIP3    H149991   4.860   4.068  11.148  0.0015  1.5928 -0.6335
 9500TIP3    H249992   4.795   4.152  11.256 -0.8524  0.4869 -0.2755
 9501TIP3   OH249993   0.591   5.883   4.105  0.3671  0.3560  0.2068
 9501TIP3    H149994   0.596   5.979   4.105 -0.1008  0.3891 -0.4601
 9501TIP3    H249995   0.610   5.859   4.015 -1.0398 -0.0850  0.0115
 9502TIP3   OH249996   5.280   5.213  14.848 -0.2106  0.1862  0.4373
 9502TIP3    H149997   5.233   5.225  14.766  1.7031 -0.8211 -0.8717
 9502TIP3    H249998   5.362   5.262  14.836 -0.2785  0.7645  2.1066
 9503TIP3   OH249999   0.162   0.061  14.888 -0.0028 -0.2296 -0.1173
 9503TIP3    H150000   0.111   0.133  14.851 -0.0297 -0.1925 -0.0099
 9503TIP3    H250001   0.178   0.002  14.815  1.0045  0.4500 -0.4654
 9504TIP3   OH250002   6.491   5.634  12.870  0.2015 -0.2928 -0.7710
 9504TIP3    H150003   6.521   5.556  12.917  0.2759  0.3750  0.3296
 9504TIP3    H250004   6.571   5.670  12.831  0.2274 -0.5471 -0.9576
 9505TIP3   OH250005   5.066   0.359   4.298 -0.3365 -0.4594 -0.8315
 9505TIP3    H150006   5.003   0.311   4.244 -0.7817 -1.3300  0.4148
 9505TIP3    H250007   5.014   0.398   4.367  0.0218  1.8943 -1.8040
 9506TIP3   OH250008   6.617   0.056   3.272  0.6238  0.5194 -0.2505
 9506TIP3    H150009   6.630   0.105   3.353 -2.3539 -0.3782  0.8817
 9506TIP3    H250010   6.654  -0.030   3.291  3.3757  1.3342 -1.3031
 9507TIP3   OH250011   5.098   5.882  12.399 -0.7897 -0.1339 -0.3212
 9507TIP3    H150012   5.011   5.893  12.436  0.3031  0.4852  2.3515
 9507TIP3    H250013   5.128   5.797  12.432 -0.1321 -0.0145 -0.5979
 9508TIP3   OH250014   3.531   6.287   3.442  0.5567  0.0998 -0.4318
 9508TIP3    H150015   3.518   6.382   3.445  1.5635  0.2349  0.0783
 9508TIP3    H250016   3.450   6.253   3.404  0.2653  1.1782 -0.8196
 9509TIP3   OH250017   1.768   5.165   4.521 -0.7878 -0.3205  0.4069
 9509TIP3    H150018   1.831   5.209   4.463  0.1536 -0.3628  1.3656
 9509TIP3    H250019   1.700   5.230   4.535 -0.3570  0.1681  0.3024
 9510TIP3   OH250020   4.150   0.124  14.901  0.1508  0.1090 -0.3695
 9510TIP3    H150021   4.211   0.159  14.965 -0.5129  3.2695 -1.2795
 9510TIP3    H250022   4.097   0.060  14.949  2.3905 -0.7697  1.0626
 9511TIP3   OH250023   1.257   2.628   0.882 -0.1421 -0.3816  0.6083
 9511TIP3    H150024   1.315   2.690   0.924 -0.8440 -0.3513  1.5603
 9511TIP3    H250025   1.315   2.562   0.844  0.5807  0.5782  0.0161
 9512TIP3   OH250026   1.588   4.845  10.520  0.3054  0.1086 -0.3644
 9512TIP3    H150027   1.562   4.920  10.467 -0.0519  0.7144  0.6397
 9512TIP3    H250028   1.684   4.850  10.522  0.2314  1.6865  1.2570
 9513TIP3   OH250029   4.075   0.913  13.212  0.2185 -0.5910 -0.1167
 9513TIP3    H150030   4.037   0.996  13.241 -0.8580 -1.2158  0.3125
 9513TIP3    H250031   4.039   0.847  13.272  1.0522 -1.3775 -0.4507
 9514TIP3   OH250032   0.817   6.762  14.121 -0.2567  0.4635  0.2123
 9514TIP3    H150033   0.876   6.832  14.092 -0.2044 -0.3299 -1.7012
 9514TIP3    H250034   0.873   6.686  14.134 -0.8313 -0.3802 -1.9001
 9515TIP3   OH250035   5.570   4.234  12.504  0.1413 -0.6562 -0.4140
 9515TIP3    H150036   5.479   4.207  12.515  0.4379 -1.2363  0.7886
 9515TIP3    H250037   5.577   4.318  12.549  0.3409 -0.9228  0.0624
 9516TIP3   OH250038   5.829   1.361  15.111 -0.2967  0.2208  0.6850
 9516TIP3    H150039   5.896   1.416  15.071 -0.4802 -0.0712 -0.0376
 9516TIP3    H250040   5.868   1.332  15.194  0.9989 -0.9931 -0.3165
 9517TIP3   OH250041   2.320   0.187  14.934 -0.2176  0.0735 -0.2747
 9517TIP3    H150042   2.261   0.124  14.893  1.8774 -1.1706 -1.5550
 9517TIP3    H250043   2.311   0.266  14.881 -0.8817 -0.0028 -0.2939
 9518TIP3   OH250044   1.496   4.233  11.752  0.4877 -0.1004  0.1549
 9518TIP3    H150045   1.576   4.266  11.711  0.6771 -1.0694 -0.3005
 9518TIP3    H250046   1.519   4.145  11.782 -0.3125 -0.2682  0.3137
 9519TIP3   OH250047   1.061   0.999   1.233 -0.9401  0.1715  0.2685
 9519TIP3    H150048   0.992   1.042   1.182 -2.3373 -1.0306  1.0820
 9519TIP3    H250049   1.054   1.038   1.320 -1.3746 -0.7750  0.6641
 9520TIP3   OH250050   1.677   1.763   2.056 -0.5175  0.0200 -0.1262
 9520TIP3    H150051   1.672   1.859   2.057  1.4585  0.2228 -2.1235
 9520TIP3    H250052   1.589   1.734   2.083 -1.8001  2.4025 -1.4306
 9521TIP3   OH250053   5.951   2.764  11.237 -0.2382 -0.3194  0.3171
 9521TIP3    H150054   5.939   2.842  11.183  1.0791  0.7377  1.5104
 9521TIP3    H250055   6.041   2.736  11.220 -0.6668 -1.5550 -0.0358
 9522TIP3   OH250056   6.784   3.703  14.331 -0.3225 -0.5994 -0.2159
 9522TIP3    H150057   6.794   3.785  14.282 -1.4802 -1.4142 -1.9000
 9522TIP3    H250058   6.746   3.731  14.415 -0.6663  0.5977 -0.7424
 9523TIP3   OH250059   0.205   5.230   0.622  0.2907  0.2396  0.5299
 9523TIP3    H150060   0.238   5.315   0.593  0.3338  0.0786  0.0987
 9523TIP3    H250061   0.240   5.168   0.558  1.1644 -0.2522  1.4515
 9524TIP3   OH250062   1.459   4.701  13.860 -0.2223  0.1707  0.4344
 9524TIP3    H150063   1.550   4.717  13.887 -0.6791  0.6531  1.7497
 9524TIP3    H250064   1.461   4.614  13.821  0.8939  0.3613  0.0082
 9525TIP3   OH250065   2.094   3.876  12.087 -0.4076  0.0685  0.0422
 9525TIP3    H150066   2.188   3.888  12.075 -0.3164 -0.0380  0.6309
 9525TIP3    H250067   2.079   3.783  12.070 -0.4104  0.0849 -0.0490
 9526TIP3   OH250068   5.660   1.583  13.082 -0.2868  0.1695 -0.5692
 9526TIP3    H150069   5.741   1.621  13.114 -0.1301 -1.2325  0.8237
 9526TIP3    H250070   5.592   1.645  13.109  0.0320 -0.1256  0.9948
 9527TIP3   OH250071   5.056   1.269  16.779 -0.3272 -0.6204 -0.4609
 9527TIP3    H150072   4.990   1.278  16.847  1.0532 -0.6435  0.9374
 9527TIP3    H250073   5.007   1.239  16.702 -2.2556  1.4700 -0.1432
 9528TIP3   OH250074   4.363   4.817   4.515  0.2548  0.1493 -0.4195
 9528TIP3    H150075   4.307   4.845   4.588  1.7002 -1.1404  1.2702
 9528TIP3    H250076   4.450   4.850   4.538  0.8124 -0.6184 -1.3587
 9529TIP3   OH250077   5.273   2.016  15.414  0.0515  0.0421 -0.0297
 9529TIP3    H150078   5.193   2.029  15.363  0.6068 -1.8071 -1.5073
 9529TIP3    H250079   5.243   1.979  15.497 -0.7902  1.9849  0.5734
 9530TIP3   OH250080   1.003   3.529   0.098 -0.4686  0.0678  0.2053
 9530TIP3    H150081   0.959   3.446   0.077  1.9058 -0.7302 -2.1693
 9530TIP3    H250082   1.026   3.566   0.013  1.1791  1.6653  1.2869
 9531TIP3   OH250083   0.340   0.980  12.300  0.0987 -0.4779 -0.7199
 9531TIP3    H150084   0.263   0.936  12.264  0.2879 -1.9621  0.5673
 9531TIP3    H250085   0.375   1.031  12.227 -1.1738 -1.0439 -1.7732
 9532TIP3   OH250086   4.337   3.537  11.305  0.1157  0.1609  0.0451
 9532TIP3    H150087   4.376   3.521  11.390 -0.0488 -0.0147  0.0892
 9532TIP3    H250088   4.260   3.479  11.302  0.0970  0.1952 -0.2033
 9533TIP3   OH250089   4.036   1.324  14.079 -0.6353  0.1441 -0.3173
 9533TIP3    H150090   4.106   1.324  14.145 -0.2569 -1.7890 -0.6582
 9533TIP3    H250091   4.079   1.350  13.998 -0.6022  0.3138 -0.2446
 9534TIP3   OH250092   6.508   6.730  13.457 -0.0768  0.0819  0.2375
 9534TIP3    H150093   6.451   6.654  13.472 -0.3855  0.1623 -0.4906
 9534TIP3    H250094   6.597   6.694  13.460 -0.2527 -0.7344 -2.1967
 9535TIP3   OH250095   1.633   4.354   3.112  0.3416 -0.6257  0.3968
 9535TIP3    H150096   1.724   4.357   3.083  1.0204 -0.3091  2.3925
 9535TIP3    H250097   1.602   4.445   3.103  0.1995 -0.7473 -0.3455
 9536TIP3   OH250098   0.513   0.853   0.789  0.5308 -0.2768 -0.3489
 9536TIP3    H150099   0.442   0.917   0.791  2.3825  1.9038  2.2750
 9536TIP3    H250100   0.576   0.888   0.725  1.9639  1.1689  1.7350
 9537TIP3   OH250101   5.936   3.746   0.187 -0.4611 -0.3379 -0.3144
 9537TIP3    H150102   6.003   3.745   0.119 -1.7074  0.0995 -1.5805
 9537TIP3    H250103   5.967   3.812   0.249  0.2573 -0.1052 -0.9014
 9538TIP3   OH250104   4.600   3.887  12.452  0.1179  0.1291  0.0862
 9538TIP3    H150105   4.691   3.864  12.432  0.9057  1.9237  1.3582
 9538TIP3    H250106   4.600   3.982  12.457 -1.9712  0.1932 -0.3870
 9539TIP3   OH250107   6.815   5.238   5.615  0.3510  0.0275  0.0269
 9539TIP3    H150108   6.910   5.235   5.621  0.3798  1.0277  0.1718
 9539TIP3    H250109   6.791   5.324   5.647 -0.6054 -0.1817 -0.0833
 9540TIP3   OH250110   1.933   2.362  11.289 -0.3593  0.3744 -0.6669
 9540TIP3    H150111   1.941   2.270  11.314 -0.6277  0.3580 -0.6411
 9540TIP3    H250112   1.948   2.363  11.195  1.6249  0.5548 -0.3916
 9541TIP3   OH250113   0.450   5.312   3.890 -0.4779 -0.1652 -0.4212
 9541TIP3    H150114   0.520   5.374   3.909 -0.4026 -0.0473 -1.0472
 9541TIP3    H250115   0.495   5.234   3.857 -0.6391 -0.0648 -0.8874
 9542TIP3   OH250116   1.812   4.944  11.605 -0.0830  0.0199  0.2013
 9542TIP3    H150117   1.893   4.897  11.590  0.0132  0.2152  0.1008
 9542TIP3    H250118   1.800   4.943  11.700  1.1740  1.8513  0.4418
 9543TIP3   OH250119   4.833   4.830  15.382  0.3843  0.2293 -0.0314
 9543TIP3    H150120   4.921   4.794  15.374 -0.4553 -2.1229  0.4826
 9543TIP3    H250121   4.785   4.792  15.309 -1.0336 -1.4223  1.6446
 9544TIP3   OH250122   2.944   5.601  16.344  0.7405  0.5951 -0.7012
 9544TIP3    H150123   2.941   5.658  16.422  1.7771  2.4119 -1.9068
 9544TIP3    H250124   3.033   5.566  16.344  0.6007  0.2400 -0.8324
 9545TIP3   OH250125   0.621   3.256  13.837  0.3258 -0.4191 -0.2461
 9545TIP3    H150126   0.561   3.327  13.815 -1.3295 -1.5149  0.5755
 9545TIP3    H250127   0.702   3.279  13.791 -0.6962  1.0901 -1.4144
 9546TIP3   OH250128   1.826   0.068   3.086  0.9546 -0.0206  0.6673
 9546TIP3    H150129   1.918   0.089   3.101  1.2090  0.2741 -1.0319
 9546TIP3    H250130   1.828  -0.007   3.027  0.1329  0.4853 -0.0261
 9547TIP3   OH250131   1.542   0.001  14.237 -0.0018  0.9030 -0.4675
 9547TIP3    H150132   1.532  -0.015  14.143  0.1392 -0.3639 -0.2917
 9547TIP3    H250133   1.627  -0.039  14.258 -0.1476  0.9698  0.2437
 9548TIP3   OH250134   4.200   2.704   2.124  0.3565 -0.0629  0.0711
 9548TIP3    H150135   4.270   2.647   2.155  0.6629 -0.0236 -0.5234
 9548TIP3    H250136   4.120   2.651   2.134  0.1135  0.6825  2.8597
 9549TIP3   OH250137   1.024   5.271  12.136  0.8539 -0.0982  0.4787
 9549TIP3    H150138   0.960   5.201  12.123  0.8435  0.0193 -0.1832
 9549TIP3    H250139   1.102   5.241  12.088  1.4536 -0.4337  1.6246
 9550TIP3   OH250140   5.452   2.100   3.267  0.3075  0.3674  0.0490
 9550TIP3    H150141   5.501   2.064   3.193 -1.1896 -1.4457 -0.1388
 9550TIP3    H250142   5.392   2.163   3.227  0.0078 -0.0711 -0.2013
 9551TIP3   OH250143   0.846   2.091   0.165 -0.5150  0.7499 -0.1811
 9551TIP3    H150144   0.878   2.141   0.240 -1.0330  1.0911 -0.1844
 9551TIP3    H250145   0.900   2.120   0.092 -0.0122  0.4211  0.0545
 9552TIP3   OH250146   6.441   6.267  13.582  0.1794 -1.0036  0.5086
 9552TIP3    H150147   6.484   6.242  13.501  0.6982  1.5263 -0.1008
 9552TIP3    H250148   6.501   6.332  13.621 -2.7517  2.4904 -0.2366
 9553TIP3   OH250149   4.263   0.814   5.039 -0.1599 -0.2432 -0.3779
 9553TIP3    H150150   4.185   0.808   5.095  0.3771 -0.0640  0.4180
 9553TIP3    H250151   4.303   0.727   5.045 -1.2818 -0.9406 -2.3088
 9554TIP3   OH250152   1.061   6.788  11.195 -0.2580  0.9582 -0.6888
 9554TIP3    H150153   1.038   6.705  11.237 -0.6891  1.0055 -0.8185
 9554TIP3    H250154   1.087   6.764  11.106 -0.3139  0.9548 -0.7044
 9555TIP3   OH250155   2.982   4.591  16.638 -0.7623  0.0239  0.0685
 9555TIP3    H150156   2.901   4.621  16.596 -1.0137 -2.0225 -1.0571
 9555TIP3    H250157   3.052   4.628  16.583 -1.0084  0.0389 -0.2419
 9556TIP3   OH250158   3.512   0.743  15.924  0.1600  0.3698  0.6044
 9556TIP3    H150159   3.478   0.714  16.008  1.4310 -0.2906  0.9218
 9556TIP3    H250160   3.589   0.688  15.908  0.1817  0.7495 -0.8001
 9557TIP3   OH250161   0.487   4.273   0.669  0.0138  0.0879 -0.6225
 9557TIP3    H150162   0.568   4.306   0.630 -0.1124  0.0479 -0.9213
 9557TIP3    H250163   0.418   4.315   0.619 -0.1490 -0.3312 -0.7543
 9558TIP3   OH250164   0.507   1.322  15.523  0.2653  0.3836  0.1056
 9558TIP3    H150165   0.481   1.414  15.518  2.3783  1.1279  1.5806
 9558TIP3    H250166   0.453   1.287  15.594 -0.2582  0.5689 -0.1887
 9559TIP3   OH250167   5.268   2.969  16.110 -0.7684 -0.0798  0.5988
 9559TIP3    H150168   5.267   2.919  16.029  0.0105  0.7480  0.0652
 9559TIP3    H250169   5.189   3.023  16.105 -1.1269 -0.5775  0.7570
 9560TIP3   OH250170   2.836   4.926  11.198  0.0193 -0.7959 -0.7292
 9560TIP3    H150171   2.928   4.950  11.212  0.2313 -1.6997 -0.4884
 9560TIP3    H250172   2.839   4.832  11.182 -1.0778 -1.3229  1.6826
 9561TIP3   OH250173   0.058   0.395  12.168  0.1917  0.6271 -0.0490
 9561TIP3    H150174   0.093   0.423  12.083 -1.4683  1.7854 -0.3865
 9561TIP3    H250175   0.099   0.310  12.183  1.0215  0.6905 -1.7040
 9562TIP3   OH250176   4.275   6.165  16.907  0.4425 -0.1924  0.8017
 9562TIP3    H150177   4.241   6.185  16.994  0.4125 -2.4847  1.3755
 9562TIP3    H250178   4.370   6.176  16.915  0.3205  1.3885  0.5570
 9563TIP3   OH250179   4.416   3.715  15.913  0.7884  0.4196 -0.2246
 9563TIP3    H150180   4.506   3.683  15.920  0.1893 -0.9960  2.2961
 9563TIP3    H250181   4.373   3.652  15.854  0.7847 -0.7364  0.9460
 9564TIP3   OH250182   3.148   5.072  16.567 -0.0084 -0.7001  0.2360
 9564TIP3    H150183   3.202   5.119  16.505 -0.1136  0.5854  1.0863
 9564TIP3    H250184   3.069   5.049  16.518  0.4059 -0.7347 -0.4203
 9565TIP3   OH250185   3.313   6.621  10.476  0.3481  0.3802  1.0579
 9565TIP3    H150186   3.273   6.657  10.398 -1.1914  0.7420  1.9744
 9565TIP3    H250187   3.248   6.560  10.511  1.0758  0.0980  1.9794
 9566TIP3   OH250188   2.742   1.494  11.727 -0.7016 -0.4317  0.2202
 9566TIP3    H150189   2.735   1.492  11.822  1.5748 -0.7465  0.4339
 9566TIP3    H250190   2.778   1.408  11.703 -2.9443 -1.0685 -1.1392
 9567TIP3   OH250191   3.836   5.718  15.162  0.0655 -0.2210 -0.1215
 9567TIP3    H150192   3.813   5.791  15.219  0.5201 -0.7674  0.7947
 9567TIP3    H250193   3.918   5.685  15.197 -0.7650 -1.9704  0.3101
 9568TIP3   OH250194   6.473   2.187   1.675 -0.2246  0.4628  0.0033
 9568TIP3    H150195   6.386   2.203   1.714 -0.3356  2.5899 -0.9763
 9568TIP3    H250196   6.476   2.245   1.600  1.7192 -0.2942 -0.5476
 9569TIP3   OH250197   0.233   3.742   5.146  0.0514 -0.2638  0.0515
 9569TIP3    H150198   0.286   3.666   5.172 -0.1297 -0.1483  0.7767
 9569TIP3    H250199   0.255   3.756   5.053  1.4627 -0.0849  0.3833
 9570TIP3   OH250200   6.190   5.025   2.657  0.6223  0.2043 -0.3552
 9570TIP3    H150201   6.150   4.946   2.691  0.7465  1.0654  2.0018
 9570TIP3    H250202   6.284   5.013   2.672  0.5066  1.5045  1.8557
 9571TIP3   OH250203   0.374   6.016   3.450 -0.1967 -0.1003 -0.1513
 9571TIP3    H150204   0.400   5.927   3.474 -0.7454  0.0810  1.2092
 9571TIP3    H250205   0.309   6.004   3.381 -0.4570 -0.7765  0.2007
 9572TIP3   OH250206   5.035   0.052   0.947 -0.3425 -0.6722  0.4470
 9572TIP3    H150207   5.056   0.068   1.040  2.1838  0.6455 -0.2472
 9572TIP3    H250208   5.016  -0.041   0.943 -1.4687 -0.5999  2.4276
 9573TIP3   OH250209   4.349   2.118  14.796 -0.0670  0.3580  0.5102
 9573TIP3    H150210   4.395   2.168  14.728  0.6131 -0.6389  0.2093
 9573TIP3    H250211   4.261   2.106  14.761 -0.0786  0.8886  0.3458
 9574TIP3   OH250212   5.048   4.412  15.912  0.1899 -0.2510  0.0114
 9574TIP3    H150213   5.028   4.355  15.986  1.6902 -1.5859 -0.5393
 9574TIP3    H250214   4.992   4.489  15.924 -2.5264 -2.1456  0.3849
 9575TIP3   OH250215   5.326   2.694   4.513  0.3332  0.5169 -0.1489
 9575TIP3    H150216   5.270   2.675   4.438  1.3027  0.3032 -0.8384
 9575TIP3    H250217   5.309   2.622   4.574 -0.1300  0.4521 -0.3465
 9576TIP3   OH250218   4.825   4.909   4.739 -0.5928  0.4454  0.5344
 9576TIP3    H150219   4.872   4.987   4.770  2.1329 -1.8930  2.8707
 9576TIP3    H250220   4.876   4.835   4.773 -2.5663 -2.4286 -2.1997
 9577TIP3   OH250221   4.049   2.569  13.211 -0.4209 -0.0335 -0.2368
 9577TIP3    H150222   3.958   2.545  13.225 -0.4204 -0.0328 -0.2330
 9577TIP3    H250223   4.045   2.651  13.162 -0.4297  0.7967  1.1168
 9578TIP3   OH250224   2.652   4.464   1.644  0.1064 -0.3650  0.1024
 9578TIP3    H150225   2.659   4.445   1.738  0.1700 -0.0827  0.1546
 9578TIP3    H250226   2.741   4.453   1.611  0.7387  2.4300  0.6192
 9579TIP3   OH250227   0.826   5.221  10.934 -0.5082  0.3455  0.0510
 9579TIP3    H150228   0.902   5.265  10.971 -0.7642 -0.3836  1.5522
 9579TIP3    H250229   0.857   5.182  10.853  0.8748 -0.3446  0.8785
 9580TIP3   OH250230   3.455   4.681  13.831 -0.4290 -0.0814  0.5168
 9580TIP3    H150231   3.393   4.747  13.802 -1.8072 -1.8213 -0.7265
 9580TIP3    H250232   3.507   4.724  13.898  0.4735  3.0882 -1.9656
 9581TIP3   OH250233   2.703   4.800  12.649  0.3090 -0.3015 -0.0297
 9581TIP3    H150234   2.710   4.894  12.630  0.2620 -0.2227  0.3473
 9581TIP3    H250235   2.632   4.769  12.593  0.5403 -0.1749 -0.3940
 9582TIP3   OH250236   4.549   6.095  15.877 -0.6335  0.7065  0.0283
 9582TIP3    H150237   4.555   6.162  15.809 -0.2881  0.0262 -0.6204
 9582TIP3    H250238   4.484   6.130  15.939 -1.8925  0.7811 -1.2884
 9583TIP3   OH250239   3.357   4.730   5.227  0.1753  0.1747  0.2295
 9583TIP3    H150240   3.378   4.797   5.293 -0.5195 -0.2628  0.9112
 9583TIP3    H250241   3.384   4.647   5.267  1.7085  0.0840 -0.9041
 9584TIP3   OH250242   5.428   3.757   2.284 -0.3773  0.6957 -0.2489
 9584TIP3    H150243   5.519   3.737   2.307  0.4068  1.9939 -1.9866
 9584TIP3    H250244   5.430   3.769   2.190 -2.6988 -0.7807 -0.5562
 9585TIP3   OH250245   6.377   3.425  11.501  0.2983  0.3999  0.1447
 9585TIP3    H150246   6.310   3.404  11.437  1.0502 -0.8849 -0.2721
 9585TIP3    H250247   6.433   3.489  11.458  0.4613 -0.0150 -0.2729
 9586TIP3   OH250248   6.544   5.348  16.868  0.0227  0.0573 -0.4180
 9586TIP3    H150249   6.604   5.306  16.805 -1.7039 -0.2632 -1.9148
 9586TIP3    H250250   6.470   5.288  16.873  0.6750 -0.6468  3.0821
 9587TIP3   OH250251   3.808   5.490   0.695 -0.2569 -0.5107 -0.3672
 9587TIP3    H150252   3.870   5.458   0.630 -0.6102 -0.6488 -0.6458
 9587TIP3    H250253   3.820   5.433   0.771  0.4394 -0.0943 -0.1593
 9588TIP3   OH250254   6.087   5.545   6.564  0.2067 -0.2724 -0.6153
 9588TIP3    H150255   6.008   5.492   6.579 -0.6096  1.1628  0.3688
 9588TIP3    H250256   6.067   5.592   6.483  0.7067 -1.0233 -1.1905
 9589TIP3   OH250257   0.359   6.476   2.401 -0.0940  0.4023  0.1386
 9589TIP3    H150258   0.319   6.545   2.347 -1.0400 -0.6105 -0.5136
 9589TIP3    H250259   0.356   6.510   2.490 -0.2763  1.3265 -0.2092
 9590TIP3   OH250260   2.426   4.087  14.165  0.5370 -0.0101 -0.0498
 9590TIP3    H150261   2.424   4.145  14.089  0.2693 -0.0514 -0.0747
 9590TIP3    H250262   2.345   4.036  14.158  0.0013  0.6933  0.8159
 9591TIP3   OH250263   6.527   2.973  14.870 -0.3471 -0.1250 -0.0249
 9591TIP3    H150264   6.586   3.025  14.925 -0.2927 -0.1126 -0.0949
 9591TIP3    H250265   6.578   2.954  14.791 -1.3056  2.1954 -1.3290
 9592TIP3   OH250266   2.896   6.759  10.978  0.5245  0.5133 -0.1054
 9592TIP3    H150267   2.944   6.689  11.022  0.4301 -0.1036 -0.9664
 9592TIP3    H250268   2.818   6.717  10.943  1.6985  0.4494 -2.8523
 9593TIP3   OH250269   6.279   5.457   0.460  0.2661 -0.7521 -0.1533
 9593TIP3    H150270   6.368   5.428   0.440  0.9829  1.8299 -1.0644
 9593TIP3    H250271   6.250   5.501   0.381 -1.1194  0.0605  0.7782
 9594TIP3   OH250272   5.371   4.810  11.931  0.1149  0.4304 -0.0587
 9594TIP3    H150273   5.454   4.837  11.891 -0.6481  2.5679 -0.3652
 9594TIP3    H250274   5.385   4.823  12.025  1.0834 -2.2012  0.2451
 9595TIP3   OH250275   4.036   2.168  11.270 -0.0367 -0.0259 -0.1488
 9595TIP3    H150276   4.005   2.117  11.195 -1.3496 -0.2963  0.5522
 9595TIP3    H250277   4.045   2.104  11.340  2.6623 -0.0532 -0.4380
 9596TIP3   OH250278   3.070   0.612  16.312 -0.9555  0.6453  0.5989
 9596TIP3    H150279   2.985   0.654  16.326 -1.8124 -0.9867  0.5125
 9596TIP3    H250280   3.051   0.537  16.256  0.6864  0.7088 -0.0973
 9597TIP3   OH250281   2.801   0.009   0.960  0.2432  0.0514  0.0544
 9597TIP3    H150282   2.758   0.041   1.040 -0.1931 -1.1679  0.3317
 9597TIP3    H250283   2.814   0.087   0.907 -3.0826  0.4104 -0.4249
 9598TIP3   OH250284   3.084   3.455   1.311 -0.0698 -0.6589  0.5609
 9598TIP3    H150285   3.015   3.408   1.265  1.0335 -1.3438 -0.4578
 9598TIP3    H250286   3.162   3.441   1.258  1.5286 -2.3084  3.1207
 9599TIP3   OH250287   3.325   6.041   3.496  0.5437 -0.3414 -0.4445
 9599TIP3    H150288   3.250   6.099   3.484  0.0357 -0.5412  1.4813
 9599TIP3    H250289   3.343   6.006   3.408 -1.1674  0.2440 -1.0604
 9600TIP3   OH250290   4.329   4.513   1.960  0.2713 -0.2177 -0.6442
 9600TIP3    H150291   4.409   4.553   1.926  1.4886 -1.6166  0.4484
 9600TIP3    H250292   4.359   4.435   2.005 -1.6375 -0.2917  0.5948
 9601TIP3   OH250293   2.392   4.242   6.524 -0.0560 -0.6543  0.0069
 9601TIP3    H150294   2.312   4.295   6.517 -0.5068 -1.2227  0.6890
 9601TIP3    H250295   2.462   4.306   6.539 -0.7773 -0.2808  2.2056
 9602TIP3   OH250296   6.524   0.655   5.137 -0.4664  0.0973 -0.0307
 9602TIP3    H150297   6.523   0.662   5.233 -0.0994  1.6572 -0.1108
 9602TIP3    H250298   6.523   0.746   5.107 -0.2378 -0.3718 -1.5082
 9603TIP3   OH250299   1.030   5.213   0.327  0.0764 -0.0446 -0.6021
 9603TIP3    H150300   1.126   5.212   0.331  0.0486 -0.4539  2.6443
 9603TIP3    H250301   1.006   5.293   0.373 -1.1506 -0.8920  0.2803
 9604TIP3   OH250302   3.735   6.383  14.433 -0.5909 -0.5270  0.1768
 9604TIP3    H150303   3.742   6.416  14.343 -1.3028 -2.9193 -0.8213
 9604TIP3    H250304   3.818   6.409  14.474  1.1240 -2.0223 -2.1256
 9605TIP3   OH250305   2.478   5.310  16.809 -0.1035 -0.2701 -0.7635
 9605TIP3    H150306   2.522   5.272  16.885 -0.3589 -1.3256 -1.1255
 9605TIP3    H250307   2.546   5.313  16.742  0.3541  1.4473 -0.2763
 9606TIP3   OH250308   0.775   6.117   4.137  0.1996  0.2006 -0.5802
 9606TIP3    H150309   0.749   6.192   4.190  0.1390  0.1734 -0.5716
 9606TIP3    H250310   0.815   6.154   4.059 -0.8547  0.2534 -1.1025
 9607TIP3   OH250311   6.311   4.839  10.630  0.3202  0.3855  0.2777
 9607TIP3    H150312   6.275   4.888  10.556 -0.5512  1.7882  1.5734
 9607TIP3    H250313   6.289   4.748  10.611 -0.2628  0.7682 -0.9732
 9608TIP3   OH250314   6.656   6.018   5.452  0.0241  0.3198  0.2153
 9608TIP3    H150315   6.715   6.093   5.459  0.9379 -0.5236  2.3775
 9608TIP3    H250316   6.712   5.942   5.468 -1.1114 -0.7549 -0.7440
 9609TIP3   OH250317   4.911   6.429  12.738  0.3657 -0.3921  0.6307
 9609TIP3    H150318   4.979   6.485  12.776 -0.1266 -1.1102  2.7222
 9609TIP3    H250319   4.840   6.488  12.716  0.4005 -0.0036  1.5171
 9610TIP3   OH250320   4.154   3.536   4.024 -0.1782  0.6882 -0.4711
 9610TIP3    H150321   4.076   3.519   3.971  1.1227 -0.0025 -2.2800
 9610TIP3    H250322   4.218   3.472   3.993  1.4667  1.9600  0.1456
 9611TIP3   OH250323   1.311   6.124   1.396 -0.3647  0.7377  0.2566
 9611TIP3    H150324   1.387   6.171   1.430  0.2706  1.1733 -1.6465
 9611TIP3    H250325   1.237   6.179   1.419  0.1015  1.3163  0.4065
 9612TIP3   OH250326   4.841   4.751  13.719  0.5233 -0.3522 -0.8747
 9612TIP3    H150327   4.796   4.826  13.681  0.7120  0.2618  0.0798
 9612TIP3    H250328   4.873   4.701  13.644 -1.0258 -0.3653 -1.5576
 9613TIP3   OH250329   3.665   1.734  14.991 -0.3109  0.0833 -0.2741
 9613TIP3    H150330   3.643   1.645  15.018 -0.9918  0.3344  0.0132
 9613TIP3    H250331   3.611   1.749  14.913 -0.6180  0.4488  0.0102
 9614TIP3   OH250332   3.813   1.745   7.036  0.2190 -0.2387 -0.3372
 9614TIP3    H150333   3.725   1.756   7.071  0.0414  0.0305 -0.8747
 9614TIP3    H250334   3.834   1.653   7.052  0.1056 -0.1507  0.3915
 9615TIP3   OH250335   4.844   1.132  15.428 -1.0897  0.3060  0.0556
 9615TIP3    H150336   4.926   1.107  15.471 -0.5101 -1.4613 -1.8995
 9615TIP3    H250337   4.832   1.224  15.451  1.9281  0.9088 -0.3020
 9616TIP3   OH250338   6.470   2.074  16.398 -0.5406  0.0420 -0.4081
 9616TIP3    H150339   6.440   2.025  16.474 -0.4268 -1.9170 -1.5574
 9616TIP3    H250340   6.389   2.097  16.352 -0.5826  0.7552  0.0116
 9617TIP3   OH250341   2.140   0.013   5.282  0.4561  0.2752  0.1076
 9617TIP3    H150342   2.136   0.063   5.364 -2.9853  1.8355 -0.8071
 9617TIP3    H250343   2.175   0.074   5.218  1.2772 -0.2959 -0.0013
 9618TIP3   OH250344   1.350   6.581  11.174  0.1868  0.3770  0.6029
 9618TIP3    H150345   1.261   6.555  11.149 -0.2175  0.1182  2.2149
 9618TIP3    H250346   1.405   6.545  11.104 -1.0966  2.3350 -1.5606
 9619TIP3   OH250347   0.701   6.148   3.062  0.2459  0.0681  0.4668
 9619TIP3    H150348   0.785   6.186   3.036  1.6612 -1.3284  2.6383
 9619TIP3    H250349   0.672   6.203   3.135 -0.4918  0.2200  0.0710
 9620TIP3   OH250350   0.648   5.953  10.908  0.4279  0.0222 -0.1090
 9620TIP3    H150351   0.638   5.969  10.814  0.0502  0.1126 -0.0587
 9620TIP3    H250352   0.566   5.910  10.933  0.7987 -0.5940  0.0583
 9621TIP3   OH250353   4.039   0.333   4.090 -0.2107 -0.4541 -0.6603
 9621TIP3    H150354   3.992   0.272   4.032 -0.1729 -0.1106 -1.0636
 9621TIP3    H250355   4.130   0.328   4.061 -0.4622  1.0261 -1.8368
 9622TIP3   OH250356   5.872   1.718   1.912 -0.0178 -0.2105 -0.6094
 9622TIP3    H150357   5.897   1.810   1.925  1.0455 -0.2650 -1.9736
 9622TIP3    H250358   5.782   1.713   1.942  0.5012  0.8413  1.2438
 9623TIP3   OH250359   6.068   5.094   0.303  0.4291  0.4496  0.5307
 9623TIP3    H150360   6.076   5.151   0.380 -1.8517  2.5443 -0.6457
 9623TIP3    H250361   6.009   5.141   0.244 -0.6355 -2.6252 -1.0883
 9624TIP3   OH250362   6.069   5.714   4.269  0.0479 -0.2209 -0.1212
 9624TIP3    H150363   6.122   5.714   4.349 -0.4385  0.8674  0.2062
 9624TIP3    H250364   6.011   5.789   4.277 -2.4719 -2.0456  0.1198
 9625TIP3   OH250365   5.383   0.844   5.378 -0.1548  0.0910  0.6527
 9625TIP3    H150366   5.365   0.860   5.470 -0.5514  1.4774  0.3599
 9625TIP3    H250367   5.428   0.923   5.348 -0.7605  0.0163 -0.5237
 9626TIP3   OH250368   2.903   3.790  15.981 -0.1171 -0.6283 -0.0636
 9626TIP3    H150369   2.938   3.731  15.915  2.3593  1.9898 -1.2649
 9626TIP3    H250370   2.963   3.781  16.055  0.1546  0.1976 -0.1775
 9627TIP3   OH250371   0.928   4.577  16.403 -0.0553 -0.2385  0.1328
 9627TIP3    H150372   0.877   4.558  16.482  1.4718  0.6512  1.3821
 9627TIP3    H250373   0.873   4.637  16.353 -0.8568 -0.4711  0.7093
 9628TIP3   OH250374   1.464   1.995   3.064  0.3036  0.7789 -0.1938
 9628TIP3    H150375   1.510   2.079   3.064  0.2646  0.8549  2.3072
 9628TIP3    H250376   1.371   2.019   3.068  0.3031  0.6388  0.8198
 9629TIP3   OH250377   0.614   5.502  16.885  0.5346  0.1304  0.0963
 9629TIP3    H150378   0.697   5.543  16.860 -0.3888  1.3861 -1.1004
 9629TIP3    H250379   0.589   5.546  16.966  0.5322  0.5367 -0.1187
 9630TIP3   OH250380   6.718   4.798  14.166  0.3061 -0.2929 -0.0890
 9630TIP3    H150381   6.747   4.850  14.090  3.4235  3.7267  3.3256
 9630TIP3    H250382   6.771   4.718  14.161  0.6380 -0.0120 -1.9816
 9631TIP3   OH250383   1.528   4.957  14.331 -0.2674  0.3692 -0.1577
 9631TIP3    H150384   1.584   4.953  14.409 -0.9718 -1.9181  0.3132
 9631TIP3    H250385   1.454   4.900  14.351 -0.2214 -0.7219 -2.6684
 9632TIP3   OH250386   0.556   2.390  15.820  0.8122 -0.0940 -0.5071
 9632TIP3    H150387   0.478   2.336  15.813  2.0888 -2.6970  2.7773
 9632TIP3    H250388   0.602   2.377  15.736 -0.5970 -1.3288 -1.1280
 9633TIP3   OH250389   1.920   5.348   5.020  0.1477  0.1672  0.0010
 9633TIP3    H150390   1.886   5.414   5.081 -1.6646 -0.4705 -0.2396
 9633TIP3    H250391   1.871   5.269   5.042  2.6456 -1.2910  0.6316
 9634TIP3   OH250392   0.387   0.989   5.017 -0.0617 -0.3462  0.5081
 9634TIP3    H150393   0.297   1.020   5.023 -0.2367 -0.8856  0.7354
 9634TIP3    H250394   0.387   0.931   4.941  0.2236  0.0727  0.1841
 9635TIP3   OH250395   3.627   4.734   5.078  0.1790  0.3384  0.0410
 9635TIP3    H150396   3.539   4.755   5.109  0.1284  0.3404 -0.1027
 9635TIP3    H250397   3.683   4.751   5.153  0.2280  1.6768 -0.2751
 9636TIP3   OH250398   6.067   5.121  13.831  0.2711  0.6198  0.1101
 9636TIP3    H150399   6.149   5.074  13.816  0.8891  1.8042 -0.3594
 9636TIP3    H250400   5.998   5.059  13.807  1.0748  0.2162 -1.2416
 9637TIP3   OH250401   1.315   6.105  12.432 -0.2929 -0.2200  0.3103
 9637TIP3    H150402   1.400   6.122  12.471  0.0709 -2.7297  0.7584
 9637TIP3    H250403   1.254   6.158  12.484  0.7020 -0.2572  1.5575
 9638TIP3   OH250404   6.619   6.052   0.978 -0.6211  0.2533 -0.4858
 9638TIP3    H150405   6.685   6.044   0.909  0.9785  1.4679  0.8353
 9638TIP3    H250406   6.583   6.140   0.966 -1.4044 -0.0773 -0.6444
 9639TIP3   OH250407   4.656   4.697  15.105  0.4416 -0.4681 -0.0129
 9639TIP3    H150408   4.626   4.660  15.189  1.8400 -2.2496 -0.2533
 9639TIP3    H250409   4.731   4.643  15.080  0.4227  0.4059 -2.1444
 9640TIP3   OH250410   2.866   3.287   0.402 -0.1087 -0.0520  0.6554
 9640TIP3    H150411   2.820   3.327   0.328 -0.1601 -2.1034 -0.5168
 9640TIP3    H250412   2.867   3.354   0.470  0.7665  2.2624 -1.5203
 9641TIP3   OH250413   1.732   0.009   3.441  0.7375  0.4510 -0.2366
 9641TIP3    H150414   1.738   0.060   3.361 -0.4165  0.9818  0.0033
 9641TIP3    H250415   1.712  -0.080   3.412 -1.1343  0.9155 -0.5139
 9642TIP3   OH250416   2.900   1.168  13.534  0.0999  0.0147  0.6218
 9642TIP3    H150417   2.812   1.148  13.503  1.1081 -0.3855 -2.3561
 9642TIP3    H250418   2.934   1.086  13.568 -0.6299  0.1540  1.7088
 9643TIP3   OH250419   4.407   5.921   0.503  0.1976 -0.2454 -0.4474
 9643TIP3    H150420   4.390   6.000   0.555  0.0426 -0.8827  0.4793
 9643TIP3    H250421   4.375   5.943   0.415 -0.2001  0.5816 -0.0995
 9644TIP3   OH250422   6.103   1.022   1.336 -0.2918 -0.3549  0.2527
 9644TIP3    H150423   6.101   1.004   1.430 -0.3252 -0.0997  0.3024
 9644TIP3    H250424   6.097   0.936   1.295  2.4326 -0.7415  0.4899
 9645TIP3   OH250425   5.961   0.021   3.130  0.5217  0.3532 -0.3100
 9645TIP3    H150426   5.989   0.056   3.215 -0.7789  1.0738 -0.1447
 9645TIP3    H250427   5.943  -0.071   3.148 -0.1197  0.5874  0.3123
 9646TIP3   OH250428   1.014   3.434  11.493  0.3868 -0.0389  0.2733
 9646TIP3    H150429   0.998   3.528  11.484 -0.0931 -0.0532  0.9460
 9646TIP3    H250430   1.051   3.423  11.580  0.2922 -0.4969  0.2619
 9647TIP3   OH250431   0.632   3.660   2.568 -0.1932 -0.4892  0.5842
 9647TIP3    H150432   0.626   3.565   2.557  0.3073 -0.3037 -1.7712
 9647TIP3    H250433   0.605   3.695   2.483  1.3310  1.4158  0.8354
 9648TIP3   OH250434   5.068   6.315   3.203  0.0483  0.4729  0.2765
 9648TIP3    H150435   5.118   6.342   3.125 -0.3659  1.3813  0.3110
 9648TIP3    H250436   4.997   6.379   3.209 -1.0983 -0.7537  0.2631
 9649TIP3   OH250437   6.307   0.297  16.130 -0.2942  0.2279  0.1809
 9649TIP3    H150438   6.355   0.378  16.114  1.4975 -0.8210  0.0561
 9649TIP3    H250439   6.353   0.230  16.079 -1.0306 -1.1004  1.1882
 9650TIP3   OH250440   2.554   5.731   2.589  0.0776 -0.3413 -0.5313
 9650TIP3    H150441   2.611   5.658   2.564  0.4841 -0.0989 -0.3278
 9650TIP3    H250442   2.468   5.707   2.555  0.2396 -0.8456 -0.5972
 9651TIP3   OH250443   3.620   5.108  12.323 -0.1776  0.1831 -0.1613
 9651TIP3    H150444   3.605   5.029  12.374 -1.1092  1.5241  1.7823
 9651TIP3    H250445   3.674   5.163  12.380  0.4999  0.9322 -1.4887
 9652TIP3   OH250446   3.894   6.133  12.701  0.4049 -0.5274  0.9148
 9652TIP3    H150447   3.822   6.194  12.719  0.8755  1.1903 -2.3106
 9652TIP3    H250448   3.910   6.142  12.607  2.8617 -3.1067  0.9622
 9653TIP3   OH250449   1.373   5.795   5.821 -0.2665  0.1559 -0.1639
 9653TIP3    H150450   1.333   5.766   5.902  1.0775  0.6848  0.7235
 9653TIP3    H250451   1.359   5.890   5.819 -0.0984  0.1778 -0.4312
 9654TIP3   OH250452   3.372   2.268  11.101 -0.5835  0.2180  0.1690
 9654TIP3    H150453   3.301   2.310  11.149 -0.6410  0.9537 -0.5420
 9654TIP3    H250454   3.437   2.337  11.089 -0.1257 -0.2234  0.0624
 9655TIP3   OH250455   2.652   6.166  13.654  0.0118  0.1968  0.1671
 9655TIP3    H150456   2.688   6.252  13.677 -1.0234  0.4879  0.7561
 9655TIP3    H250457   2.718   6.128  13.597  0.6586  1.2393  0.1786
 9656TIP3   OH250458   3.982   3.775  12.111 -0.2604 -0.6430  0.2322
 9656TIP3    H150459   3.995   3.825  12.192 -1.1231  0.1126 -0.0848
 9656TIP3    H250460   3.960   3.686  12.142 -1.6347 -0.1147  0.8800
 9657TIP3   OH250461   1.905   2.345   4.166 -0.0766  0.0811 -0.3926
 9657TIP3    H150462   1.956   2.265   4.173 -1.0145 -0.4488  0.7249
 9657TIP3    H250463   1.815   2.315   4.155 -0.4636  0.9654  0.2488
 9658TIP3   OH250464   6.724   1.336   4.222 -0.0349 -0.4379 -0.3094
 9658TIP3    H150465   6.808   1.370   4.254 -0.0576 -0.0920 -0.6106
 9658TIP3    H250466   6.663   1.355   4.294 -0.1593  0.6655 -0.6844
 9659TIP3   OH250467   1.951   3.545  13.116 -0.9147 -0.0653 -0.3923
 9659TIP3    H150468   1.963   3.460  13.074 -1.2024 -0.6189  0.6215
 9659TIP3    H250469   1.873   3.535  13.169  1.5765 -0.7848  3.5891
 9660TIP3   OH250470   2.396   5.058  17.165 -0.9287 -0.2312  0.7904
 9660TIP3    H150471   2.460   4.987  17.160 -0.0905  0.5531 -0.1787
 9660TIP3    H250472   2.449   5.138  17.165 -1.9057  0.4657 -0.5772
 9661TIP3   OH250473   5.561   5.788  14.998 -0.1416  0.3404 -0.5541
 9661TIP3    H150474   5.642   5.820  14.959 -0.8596  0.8956 -1.6544
 9661TIP3    H250475   5.532   5.718  14.940 -0.0948 -0.3472  0.2278
 9662TIP3   OH250476   5.148   0.175   3.733 -1.0804 -0.7100 -0.1489
 9662TIP3    H150477   5.241   0.193   3.747 -1.1908  0.5771 -0.9299
 9662TIP3    H250478   5.107   0.185   3.819 -0.9744  1.9359 -0.3430
 9663TIP3   OH250479   2.268   5.999  14.477 -0.6602  0.7466 -0.1912
 9663TIP3    H150480   2.326   6.070  14.506 -1.4311  1.3829 -0.1940
 9663TIP3    H250481   2.327   5.938  14.433 -0.1808  2.1677 -1.6545
 9664TIP3   OH250482   3.312   5.375  14.146 -0.9065 -0.1437  0.2569
 9664TIP3    H150483   3.378   5.399  14.082  0.9389 -3.5253  0.6686
 9664TIP3    H250484   3.243   5.441  14.136  0.6454  1.1696 -3.0576
 9665TIP3   OH250485   6.262   2.261  11.182 -0.3752  0.5272 -0.0796
 9665TIP3    H150486   6.311   2.343  11.193  0.9657 -0.1917 -0.4746
 9665TIP3    H250487   6.225   2.243  11.268  0.0224  1.1195  0.2206
 9666TIP3   OH250488   1.829   4.270  13.149  0.1480  0.0303 -0.3368
 9666TIP3    H150489   1.907   4.259  13.094 -0.3165  0.4493 -1.1091
 9666TIP3    H250490   1.757   4.243  13.092 -0.3433  0.4366  0.0937
 9667TIP3   OH250491   4.795   5.600   2.201 -0.2130  0.1989  0.2172
 9667TIP3    H150492   4.701   5.590   2.215 -0.2338  0.6191  0.4081
 9667TIP3    H250493   4.811   5.694   2.215  0.2579  0.1030  0.3338
 9668TIP3   OH250494   4.158   3.375  12.762 -0.4809  0.3188  0.0806
 9668TIP3    H150495   4.246   3.346  12.784 -1.3599 -2.2797  0.5294
 9668TIP3    H250496   4.111   3.375  12.846 -1.7104 -1.5697 -0.5476
 9669TIP3   OH250497   1.153   2.977   0.311  0.2102 -0.5435 -0.2747
 9669TIP3    H150498   1.230   3.034   0.312  1.2644 -1.8691 -0.9799
 9669TIP3    H250499   1.126   2.976   0.219  2.2782 -3.6662 -1.0346
 9670TIP3   OH250500   4.226   3.006  11.554 -0.1587 -0.7812 -0.0377
 9670TIP3    H150501   4.220   3.102  11.558  2.7504 -0.5728  2.1221
 9670TIP3    H250502   4.141   2.979  11.518 -1.6580  2.4862  0.6372
 9671TIP3   OH250503   5.111   1.338   0.009 -0.2462  0.4299  0.0102
 9671TIP3    H150504   5.041   1.278   0.035  0.3352 -0.4924 -0.5057
 9671TIP3    H250505   5.152   1.296  -0.066 -0.5921  2.0729 -1.1458
 9672TIP3   OH250506   3.978   1.548  11.730  0.3096  0.0660 -0.1525
 9672TIP3    H150507   3.888   1.557  11.698  0.4974 -0.8100 -0.9817
 9672TIP3    H250508   3.975   1.581  11.819 -0.9397 -0.3235 -0.0309
 9673TIP3   OH250509   2.994   1.916  13.886 -0.0466 -0.6768  0.2495
 9673TIP3    H150510   3.037   1.895  13.968 -2.3136 -2.3930  1.0853
 9673TIP3    H250511   2.901   1.922  13.907 -0.4670  1.4662 -1.7264
 9674TIP3   OH250512   0.676   2.010   3.425 -0.0825  0.4436 -0.1890
 9674TIP3    H150513   0.729   2.054   3.490 -1.8527  0.7045  1.1571
 9674TIP3    H250514   0.647   1.929   3.468 -0.7140  0.2808 -0.8976
 9675TIP3   OH250515   6.826   3.900   4.924  0.4693  0.7043  0.4107
 9675TIP3    H150516   6.831   3.991   4.894  0.0495  0.9112  0.9470
 9675TIP3    H250517   6.829   3.905   5.019 -1.5155  0.3398  0.5541
 9676TIP3   OH250518   4.891   5.190   1.375 -0.2569 -0.4079 -0.2615
 9676TIP3    H150519   4.944   5.147   1.443  0.8229  0.9010 -0.2254
 9676TIP3    H250520   4.930   5.277   1.366  0.0487 -0.7482 -3.0303
 9677TIP3   OH250521   0.354   5.953  10.960 -0.3367 -0.2587  0.0246
 9677TIP3    H150522   0.273   5.903  10.943 -0.9049  0.8320 -0.5851
 9677TIP3    H250523   0.374   5.995  10.876  0.1195  0.5455  0.5223
 9678TIP3   OH250524   0.100   6.492  11.366  0.0303 -0.0977 -0.2634
 9678TIP3    H150525   0.126   6.401  11.354 -0.6892 -0.3980  0.3341
 9678TIP3    H250526   0.161   6.542  11.312  0.0327 -0.9772 -1.1099
 9679TIP3   OH250527   6.350   0.889  12.665  0.0759  0.0007 -0.6107
 9679TIP3    H150528   6.445   0.901  12.663 -0.0866  1.3968 -0.9104
 9679TIP3    H250529   6.338   0.795  12.680  1.5103  0.1322  1.9164
 9680TIP3   OH250530   2.919   2.883   1.377  0.8504 -0.0772  0.3098
 9680TIP3    H150531   2.973   2.941   1.431 -1.2798  0.9967  1.4013
 9680TIP3    H250532   2.851   2.853   1.437 -0.0839 -0.9583 -1.1598
 9681TIP3   OH250533   3.574   3.158  11.255  0.2921 -0.0125 -0.1248
 9681TIP3    H150534   3.613   3.218  11.319  1.0557 -1.4679  0.8191
 9681TIP3    H250535   3.498   3.121  11.300  1.0188 -1.2884  0.0956
 9682TIP3   OH250536   2.394   0.237  11.561  0.0322  0.3802  0.1773
 9682TIP3    H150537   2.441   0.258  11.481  0.0230  2.6649  0.7253
 9682TIP3    H250538   2.443   0.280  11.631  0.4737 -2.1682  1.5795
 9683TIP3   OH250539   0.411   6.746  13.600  0.4486  0.7195  0.2460
 9683TIP3    H150540   0.395   6.817  13.661 -1.4908 -0.1714  0.8526
 9683TIP3    H250541   0.398   6.786  13.513 -1.1525  1.0128  0.5936
 9684TIP3   OH250542   6.059   5.816  13.355  0.2470  0.2186 -0.0715
 9684TIP3    H150543   6.076   5.772  13.271 -0.5987 -0.4126  0.0844
 9684TIP3    H250544   6.139   5.801  13.406  0.2883 -0.4396 -0.3207
 9685TIP3   OH250545   6.792   1.964  14.396 -0.3486 -0.1338 -0.0915
 9685TIP3    H150546   6.833   1.883  14.368 -0.8356  0.2115 -1.9041
 9685TIP3    H250547   6.861   2.009  14.446  1.0418 -0.1841 -1.8734
 9686TIP3   OH250548   2.883   6.031   1.279  1.2477  0.2811  0.3595
 9686TIP3    H150549   2.969   6.068   1.261  2.0753 -0.9218  1.6846
 9686TIP3    H250550   2.832   6.105   1.313  1.6328  1.0661 -0.7099
 9687TIP3   OH250551   2.781   6.604   3.240 -0.6613 -0.5845 -0.5042
 9687TIP3    H150552   2.792   6.697   3.257  1.3373 -1.0349  0.9335
 9687TIP3    H250553   2.733   6.600   3.157 -1.7638  1.6962 -0.0335
 9688TIP3   OH250554   3.333   2.763   4.759  0.6988  0.3700 -0.0461
 9688TIP3    H150555   3.395   2.814   4.707  1.0071 -0.9936 -1.0894
 9688TIP3    H250556   3.375   2.754   4.845  1.1253  0.9457 -0.1903
 9689TIP3   OH250557   0.536   3.763  13.617  0.3083  0.4699 -0.5625
 9689TIP3    H150558   0.628   3.740  13.628  0.0965  0.0111  0.3515
 9689TIP3    H250559   0.502   3.769  13.707 -0.1236  2.4485 -0.8068
 9690TIP3   OH250560   5.308   2.363   4.373  0.6280  0.6821 -0.1162
 9690TIP3    H150561   5.315   2.395   4.283 -1.3083 -0.9415 -0.9154
 9690TIP3    H250562   5.235   2.301   4.371  0.1679  0.9933  2.7065
 9691TIP3   OH250563   2.867   6.401  16.153 -0.0508  0.4136 -0.2643
 9691TIP3    H150564   2.868   6.358  16.238 -2.2170 -0.6192 -0.7013
 9691TIP3    H250565   2.955   6.437  16.144 -0.2183  2.0685  3.1382
 9692TIP3   OH250566   0.873   4.956   4.393 -0.0048 -0.8527 -0.0359
 9692TIP3    H150567   0.854   5.035   4.443  1.2371 -1.4288  1.4405
 9692TIP3    H250568   0.813   4.891   4.428 -3.6492  0.1574 -3.7321
 9693TIP3   OH250569   2.040   1.783   1.804  0.2453  0.0444 -0.0229
 9693TIP3    H150570   1.982   1.728   1.752  1.6697 -2.0810  0.4761
 9693TIP3    H250571   2.128   1.751   1.784  1.1460  2.0379  0.4791
 9694TIP3   OH250572   1.967   2.758  17.075  0.3999 -0.4771  0.6244
 9694TIP3    H150573   2.008   2.822  17.017  1.4976  0.0606  1.9565
 9694TIP3    H250574   1.918   2.701  17.016  2.4481 -0.6927 -0.9902
 9695TIP3   OH250575   3.666   3.131  15.391  0.0944  0.0813  0.3633
 9695TIP3    H150576   3.736   3.174  15.341  0.6875  1.1014  1.9944
 9695TIP3    H250577   3.709   3.059  15.437 -0.3034 -0.4067 -0.0138
 9696TIP3   OH250578   1.600   6.293  14.126  0.2121  0.0710  0.3595
 9696TIP3    H150579   1.689   6.276  14.094  0.7098 -0.0771  1.7663
 9696TIP3    H250580   1.578   6.216  14.178  0.1171  1.0598  1.8238
 9697TIP3   OH250581   5.746   5.910  14.840  0.6610 -0.7694 -0.7581
 9697TIP3    H150582   5.834   5.944  14.821  1.1317 -1.8785 -0.6856
 9697TIP3    H250583   5.697   5.986  14.871  0.9928  0.3045 -2.6638
 9698TIP3   OH250584   6.502   5.778  13.139 -0.3488 -0.2721 -0.4201
 9698TIP3    H150585   6.485   5.720  13.065 -0.7963 -1.0629  0.2925
 9698TIP3    H250586   6.539   5.721  13.207 -2.2255 -0.0651  0.8556
 9699TIP3   OH250587   6.175   5.915   4.706  0.0961 -0.6663  0.2881
 9699TIP3    H150588   6.225   5.963   4.773  1.2238  0.2675 -1.1740
 9699TIP3    H250589   6.132   5.983   4.655 -0.2066 -1.3389 -0.3691
 9700TIP3   OH250590   3.502   5.267  10.144  0.4421 -0.2828  0.0600
 9700TIP3    H150591   3.515   5.217  10.064  0.7198 -0.0637 -0.0319
 9700TIP3    H250592   3.522   5.206  10.214 -0.3332 -0.6414 -0.0156
 9701TIP3   OH250593   6.347   3.763  17.188 -0.0727  0.1274  0.0531
 9701TIP3    H150594   6.409   3.767  17.115  0.7446  0.4511  0.7550
 9701TIP3    H250595   6.267   3.802  17.153  0.3268  0.3305 -0.6570
 9702TIP3   OH250596   6.248   0.653   5.347  0.2544 -0.2713 -0.0122
 9702TIP3    H150597   6.334   0.635   5.308  0.5948 -0.3167  0.7368
 9702TIP3    H250598   6.259   0.631   5.440 -0.2530  0.7392  0.3054
 9703TIP3   OH250599   6.519   5.198   3.166  0.7946  0.2023 -0.3831
 9703TIP3    H150600   6.495   5.286   3.137  1.8958  1.0017  0.9769
 9703TIP3    H250601   6.545   5.210   3.258  1.5664 -1.4288 -0.3615
 9704TIP3   OH250602   2.370   4.157   0.618  0.0718  0.3721 -0.3971
 9704TIP3    H150603   2.339   4.177   0.706  1.4952  0.4231  0.1031
 9704TIP3    H250604   2.317   4.214   0.561 -0.1857  1.0412  0.4910
 9705TIP3   OH250605   0.607   0.112   2.235  0.7604 -0.1157  0.0295
 9705TIP3    H150606   0.531   0.167   2.214  0.6915 -0.2834 -0.1697
 9705TIP3    H250607   0.659   0.165   2.295  0.6902  0.1667 -0.1543
 9706TIP3   OH250608   5.709   2.606   2.496 -0.1286 -0.3361 -0.1131
 9706TIP3    H150609   5.707   2.520   2.455  1.0532 -0.6495  0.4526
 9706TIP3    H250610   5.617   2.629   2.508 -0.4807 -2.1863  1.0851
 9707TIP3   OH250611   0.113   2.128   0.674  0.2912 -0.2913 -0.5361
 9707TIP3    H150612   0.123   2.197   0.608  2.5450 -1.9003 -2.0373
 9707TIP3    H250613   0.190   2.138   0.730 -1.3576  0.7564  1.6803
 9708TIP3   OH250614   1.994   4.823   3.416  0.3326  0.2108 -0.0070
 9708TIP3    H150615   2.013   4.903   3.367 -0.9342  0.6752  0.2242
 9708TIP3    H250616   1.900   4.828   3.434  0.0461 -1.7302 -0.7200
 9709TIP3   OH250617   0.849   4.841  15.089  0.0459 -0.1408 -0.4215
 9709TIP3    H150618   0.898   4.788  15.025  1.8252 -0.7368  1.3156
 9709TIP3    H250619   0.858   4.931  15.058  1.3633 -0.3628 -0.7519
 9710TIP3   OH250620   5.069   1.657   3.389  0.0804 -0.4694  0.0970
 9710TIP3    H150621   5.076   1.589   3.321 -1.3661  0.4842 -1.0881
 9710TIP3    H250622   5.093   1.738   3.345  2.0449 -0.1886  1.5683
 9711TIP3   OH250623   4.684   5.879  15.745  0.6700  0.1064 -0.2744
 9711TIP3    H150624   4.635   5.948  15.788  0.7294 -0.2095  0.3072
 9711TIP3    H250625   4.755   5.925  15.700 -0.4547  0.6320 -1.6080
 9712TIP3   OH250626   6.630   0.346   4.138  0.3312  0.1732 -0.6990
 9712TIP3    H150627   6.708   0.349   4.194  0.6712  0.1863 -1.1676
 9712TIP3    H250628   6.659   0.383   4.055 -0.6782  2.0114 -0.2979
 9713TIP3   OH250629   3.339   2.068  16.225  0.0327 -0.1175  0.1775
 9713TIP3    H150630   3.362   1.977  16.207  0.8076  0.4511 -2.0167
 9713TIP3    H250631   3.252   2.079  16.187  0.2024  0.1990 -0.1296
 9714TIP3   OH250632   2.630   1.786   3.033 -0.1625  0.1677 -0.0817
 9714TIP3    H150633   2.572   1.775   2.957  0.2878 -0.3485 -0.3568
 9714TIP3    H250634   2.717   1.802   2.994  0.3300 -1.4073  0.2967
 9715TIP3   OH250635   0.025   3.280  12.565 -0.1106  0.2925 -0.2792
 9715TIP3    H150636   0.112   3.278  12.525  0.3766 -1.1600  0.7908
 9715TIP3    H250637  -0.014   3.196  12.543 -1.3171  0.9656 -0.8386
 9716TIP3   OH250638   2.643   5.600   2.005  0.0857  0.4349  0.0588
 9716TIP3    H150639   2.567   5.574   1.953  0.1369 -0.5435  0.4377
 9716TIP3    H250640   2.608   5.613   2.093  0.1372  1.2965 -0.0375
 9717TIP3   OH250641   2.674   1.081   6.100 -0.0823  0.4521 -0.0396
 9717TIP3    H150642   2.659   0.986   6.105  0.0297  0.4785  1.7813
 9717TIP3    H250643   2.713   1.102   6.185  2.0549  1.7911 -1.2889
 9718TIP3   OH250644   5.924   4.911   1.641 -0.1436 -0.3782  0.3623
 9718TIP3    H150645   5.932   4.817   1.657 -0.5743 -0.5284 -0.2901
 9718TIP3    H250646   5.973   4.952   1.713 -0.2160 -1.0911  0.8221
 9719TIP3   OH250647   2.018   0.120  12.775 -0.3715 -0.0942 -0.1382
 9719TIP3    H150648   1.968   0.072  12.709  0.4218 -1.1758  0.0220
 9719TIP3    H250649   2.024   0.061  12.850  2.3290 -0.6445 -0.6581
 9720TIP3   OH250650   5.471   3.020  16.380  0.2946 -0.3307  0.5678
 9720TIP3    H150651   5.526   2.942  16.388  1.4617  0.4292  0.2259
 9720TIP3    H250652   5.531   3.088  16.348 -1.0275  0.3154 -0.6677
 9721TIP3   OH250653   3.828   2.692   0.681 -1.0490  0.6230 -0.2349
 9721TIP3    H150654   3.852   2.625   0.617 -0.8254  1.5266 -1.1136
 9721TIP3    H250655   3.912   2.722   0.717 -1.1814  0.0061  0.6122
 9722TIP3   OH250656   4.558   6.247  16.995  0.5722  0.2449  0.3439
 9722TIP3    H150657   4.594   6.244  16.906  0.7367 -2.0532  0.4512
 9722TIP3    H250658   4.634   6.270  17.050  1.2112 -1.3922  0.2026
 9723TIP3   OH250659   1.957   0.305  12.060  0.1651 -0.2830 -0.1344
 9723TIP3    H150660   2.051   0.319  12.072 -0.2119  0.9578  2.0627
 9723TIP3    H250661   1.922   0.392  12.042 -0.5659 -0.7511 -1.0587
 9724TIP3   OH250662   3.823   2.263   2.153 -0.6874  0.0835  0.2090
 9724TIP3    H150663   3.881   2.228   2.085 -1.4241 -2.5959  0.8562
 9724TIP3    H250664   3.738   2.272   2.109 -0.8591 -0.4071  0.4402
 9725TIP3   OH250665   6.472   3.988  12.152  0.4740  0.0222 -0.0258
 9725TIP3    H150666   6.483   4.034  12.235  0.4085 -0.9030  0.5105
 9725TIP3    H250667   6.544   4.019  12.098  0.5800  0.5558  0.4119
 9726TIP3   OH250668   4.576   2.247  14.071  0.1802 -0.4992  0.5313
 9726TIP3    H150669   4.487   2.218  14.090 -0.3850  0.9788  0.2704
 9726TIP3    H250670   4.569   2.291  13.986  1.4859 -1.7186 -0.2721
 9727TIP3   OH250671   4.971   1.816   4.294  0.2644 -0.4049 -0.7837
 9727TIP3    H150672   5.030   1.812   4.369  0.6898 -0.8527 -1.1332
 9727TIP3    H250673   4.975   1.906   4.264 -1.1945  0.2207  0.7389
 9728TIP3   OH250674   1.571   6.794  11.587  0.4208  0.2584 -0.5824
 9728TIP3    H150675   1.654   6.807  11.541  0.2005 -0.2315 -1.1255
 9728TIP3    H250676   1.571   6.702  11.611  1.0344  0.7399  1.4166
 9729TIP3   OH250677   1.322   3.319  11.801 -0.1801 -0.3244  0.1624
 9729TIP3    H150678   1.350   3.400  11.759 -1.6447 -0.5610 -1.3665
 9729TIP3    H250679   1.265   3.348  11.873  1.2285  0.0325  1.1862
 9730TIP3   OH250680   4.874   1.612   6.156  0.0402  0.4616  0.6875
 9730TIP3    H150681   4.934   1.647   6.090  0.8886  0.5215  1.4695
 9730TIP3    H250682   4.867   1.519   6.135  1.7076  0.1110  1.5423
 9731TIP3   OH250683   0.102   0.202  17.039 -0.1668 -0.2263 -0.3031
 9731TIP3    H150684   0.088   0.254  17.119 -0.4261  0.9244 -1.0714
 9731TIP3    H250685   0.194   0.177  17.043 -0.4203 -1.0503  0.8449
 9732TIP3   OH250686   4.996   5.605  11.904 -0.1766  0.2049 -0.5865
 9732TIP3    H150687   4.927   5.616  11.838 -2.0084  1.6610  1.4240
 9732TIP3    H250688   4.958   5.642  11.984  2.2647 -0.7023  1.0922
 9733TIP3   OH250689   3.222   0.467   5.593  0.6501  0.7566  0.7546
 9733TIP3    H150690   3.312   0.486   5.565  0.5913 -0.1663 -0.0834
 9733TIP3    H250691   3.227   0.466   5.689  1.9280 -1.0818  0.7109
 9734TIP3   OH250692   1.666   5.817   4.734  0.6204 -0.1654  0.5065
 9734TIP3    H150693   1.717   5.760   4.677 -1.6720 -0.5244 -1.3265
 9734TIP3    H250694   1.678   5.781   4.822  1.3284 -1.8501 -0.2594
 9735TIP3   OH250695   5.604   0.072   5.385  0.1240 -0.0178 -0.5941
 9735TIP3    H150696   5.610   0.166   5.372 -1.2323  0.2790  0.6640
 9735TIP3    H250697   5.578   0.062   5.477 -2.4267 -1.4836 -1.3817
 9736TIP3   OH250698   3.030   5.447   1.023 -0.2219 -0.3272 -0.0512
 9736TIP3    H150699   3.083   5.520   1.055 -0.2167  0.0371 -0.8643
 9736TIP3    H250700   3.061   5.432   0.933 -1.3321 -0.2626 -0.4643
 9737TIP3   OH250701   1.881   5.445   2.658 -0.0679 -0.4950  0.2449
 9737TIP3    H150702   1.841   5.361   2.638  2.1801 -1.0057 -2.9982
 9737TIP3    H250703   1.808   5.505   2.670 -1.7687 -2.2555 -0.7591
 9738TIP3   OH250704   1.994   0.899  13.727 -0.0401 -0.2968 -0.0655
 9738TIP3    H150705   1.957   0.929  13.810 -0.8530 -0.1270 -0.4756
 9738TIP3    H250706   1.992   0.976  13.670 -1.2782 -0.8584 -0.8311
 9739TIP3   OH250707   2.218   4.316  11.890  0.4648 -0.1902  0.2425
 9739TIP3    H150708   2.170   4.344  11.968  1.0558 -0.1417  0.5933
 9739TIP3    H250709   2.155   4.262  11.842 -0.7206  1.7451 -0.4833
 9740TIP3   OH250710   5.008   6.136  13.982 -0.8128  0.1236  0.5640
 9740TIP3    H150711   5.026   6.066  14.045  0.6391  0.4390  0.5268
 9740TIP3    H250712   5.092   6.181  13.971 -1.2644  0.6675 -0.8804
 9741TIP3   OH250713   5.201   0.422  11.304 -0.1274  0.3429  0.3528
 9741TIP3    H150714   5.148   0.409  11.382 -0.3588 -0.1486  0.1174
 9741TIP3    H250715   5.202   0.516  11.291  2.1302  0.7170  2.4865
 9742TIP3   OH250716   4.653   5.235  15.474  0.1834 -0.2393  0.4639
 9742TIP3    H150717   4.683   5.313  15.522 -0.4381 -0.6982  1.6443
 9742TIP3    H250718   4.568   5.215  15.512  0.8486 -2.1964  1.0455
 9743TIP3   OH250719   5.593   6.598  14.552 -0.2111 -0.1562  0.4256
 9743TIP3    H150720   5.526   6.613  14.485  1.0689 -0.9423 -1.1298
 9743TIP3    H250721   5.566   6.516  14.594  0.4390 -1.2449 -1.1612
 9744TIP3   OH250722   5.284   4.311   2.680  0.5228  0.4429 -0.3076
 9744TIP3    H150723   5.287   4.404   2.701  0.6093  0.6941 -1.3736
 9744TIP3    H250724   5.193   4.286   2.697  0.4897  0.7317 -0.0507
 9745TIP3   OH250725   5.707   1.732   1.377 -0.6413  0.0292 -0.2837
 9745TIP3    H150726   5.730   1.775   1.294 -1.8734  0.9986 -0.1514
 9745TIP3    H250727   5.645   1.664   1.352  0.6311 -1.1397 -0.3842
 9746TIP3   OH250728   5.599   4.756  13.234  0.4412 -0.1049  0.7610
 9746TIP3    H150729   5.565   4.670  13.212  0.6914 -0.0983  0.3336
 9746TIP3    H250730   5.521   4.809  13.252  0.1594  0.0968 -0.8803
 9747TIP3   OH250731   2.251   5.483  16.176 -0.5238 -0.0128  0.5291
 9747TIP3    H150732   2.250   5.390  16.153  0.5921  0.0691  0.0737
 9747TIP3    H250733   2.188   5.523  16.116  1.1700 -0.0448 -1.3898
 9748TIP3   OH250734   0.160   5.675  11.724  0.9552  0.7886  0.3003
 9748TIP3    H150735   0.237   5.624  11.699  1.8939  1.5308  1.5792
 9748TIP3    H250736   0.151   5.660  11.818 -0.8612  0.2195  0.0894
 9749TIP3   OH250737   0.657   1.189  15.358  0.3772  0.2083  0.3611
 9749TIP3    H150738   0.676   1.115  15.416  1.9079  1.1114  1.0653
 9749TIP3    H250739   0.609   1.251  15.414  0.4942  0.4217  0.2239
 9750TIP3   OH250740   5.917   5.843   4.796  0.2695 -0.4287  0.1323
 9750TIP3    H150741   5.995   5.853   4.741 -0.7853  1.3680 -1.1705
 9750TIP3    H250742   5.889   5.753   4.783  0.4373 -0.2376 -1.8136
 9751TIP3   OH250743   2.158   3.637  15.374  0.4852 -0.2124  0.3135
 9751TIP3    H150744   2.213   3.574  15.419  0.3494  0.2040  1.0842
 9751TIP3    H250745   2.134   3.701  15.441  0.0598  0.2821 -0.2872
 9752TIP3   OH250746   2.219   3.903  15.842 -0.0302 -0.2839 -0.3427
 9752TIP3    H150747   2.177   3.886  15.926  0.2914 -0.2095 -0.1676
 9752TIP3    H250748   2.287   3.968  15.861 -0.0661 -0.1423 -0.6883
 9753TIP3   OH250749   3.383   1.683   0.105 -0.2063  0.1163 -0.5678
 9753TIP3    H150750   3.382   1.777   0.120  1.1361  0.2325 -1.1217
 9753TIP3    H250751   3.291   1.657   0.111 -0.4339  1.1862  1.1682
 9754TIP3   OH250752   4.136   0.105  16.162  0.1751  0.5960 -0.0433
 9754TIP3    H150753   4.216   0.100  16.111 -0.2855 -0.7221 -0.6832
 9754TIP3    H250754   4.166   0.116  16.253  1.1462 -1.1200 -0.1084
 9755TIP3   OH250755   5.440   6.662   2.715 -0.4165  0.0382  0.6110
 9755TIP3    H150756   5.494   6.584   2.712  0.7235  0.8209 -0.5757
 9755TIP3    H250757   5.364   6.638   2.767 -1.0702 -2.4825 -1.3321
 9756TIP3   OH250758   0.922   3.210  11.928 -0.6997  0.1227  0.5311
 9756TIP3    H150759   0.952   3.121  11.947  2.2875  0.7391 -0.6060
 9756TIP3    H250760   0.889   3.206  11.839  1.2996  0.4185 -0.2933
 9757TIP3   OH250761   0.859   5.257  15.317  0.5117 -0.3479  0.5037
 9757TIP3    H150762   0.850   5.169  15.354  2.5087 -1.4758 -1.4157
 9757TIP3    H250763   0.869   5.242  15.223  0.2510  2.0000  0.0594
 9758TIP3   OH250764   2.785   3.945   3.909 -0.3792 -0.1422 -0.1492
 9758TIP3    H150765   2.748   3.983   3.830  0.9325  0.0644 -0.6862
 9758TIP3    H250766   2.710   3.912   3.958 -1.1947 -0.4049 -1.5476
 9759TIP3   OH250767   1.757   0.115  15.826 -0.2249 -0.1858 -0.3152
 9759TIP3    H150768   1.696   0.128  15.753  0.1353 -1.3718 -0.8440
 9759TIP3    H250769   1.841   0.095  15.785  0.5375  1.3777  0.4113
 9760TIP3   OH250770   4.441   4.575   0.619  0.0099  0.1714 -0.4867
 9760TIP3    H150771   4.411   4.511   0.555  0.1342 -0.2819 -0.0995
 9760TIP3    H250772   4.411   4.660   0.585 -2.0844 -0.2761  0.1079
 9761TIP3   OH250773   4.187   6.014   4.082  0.1113  0.0087  0.1943
 9761TIP3    H150774   4.143   6.027   4.166  3.0498  1.0052  1.7198
 9761TIP3    H250775   4.162   6.091   4.030 -1.2240 -0.2992  0.3344
 9762TIP3   OH250776   0.202   0.941   4.459  0.0451  0.0068  0.1595
 9762TIP3    H150777   0.294   0.956   4.437 -0.2566  0.7946 -0.5814
 9762TIP3    H250778   0.156   0.946   4.376 -0.8278  0.8906  0.6768
 9763TIP3   OH250779   6.809   2.392   1.991 -0.8520  0.2802  0.2757
 9763TIP3    H150780   6.727   2.368   2.035 -1.4119 -0.1549 -0.9617
 9763TIP3    H250781   6.803   2.351   1.905  0.7605  0.0892  0.2237
 9764TIP3   OH250782   4.853   1.434  11.804  0.3517  0.5828 -0.3904
 9764TIP3    H150783   4.894   1.358  11.844 -0.7574 -0.3844 -1.0416
 9764TIP3    H250784   4.800   1.399  11.733  1.1302  2.1325 -1.7991
 9765TIP3   OH250785   5.895   2.952  13.905  0.1953  0.4407  0.1314
 9765TIP3    H150786   5.852   2.867  13.899 -0.8331  0.9546 -0.0728
 9765TIP3    H250787   5.826   3.015  13.886  1.2312  1.2727 -1.0963
 9766TIP3   OH250788   0.027   5.813   0.956  0.0536 -0.1243 -0.9082
 9766TIP3    H150789  -0.013   5.756   0.890 -0.3541  1.7572 -2.3728
 9766TIP3    H250790   0.033   5.898   0.913 -0.4120  1.2372  1.5697
 9767TIP3   OH250791   2.153   5.474   0.718 -0.1163 -0.7150 -0.2735
 9767TIP3    H150792   2.145   5.566   0.691  0.1732 -0.9260 -1.0808
 9767TIP3    H250793   2.166   5.479   0.813 -2.0279 -0.0061  0.0158
 9768TIP3   OH250794   3.887   3.852   3.973 -0.3061 -0.2510  0.1016
 9768TIP3    H150795   3.820   3.824   3.911  0.5215 -2.3605  0.0742
 9768TIP3    H250796   3.941   3.914   3.925 -1.1018 -0.0069 -0.4884
 9769TIP3   OH250797   3.029   2.230  12.109  0.5931 -0.0503 -0.8767
 9769TIP3    H150798   3.076   2.251  12.190 -1.0304 -0.7891  0.3144
 9769TIP3    H250799   3.097   2.225  12.042  1.7124  3.4433 -0.2025
 9770TIP3   OH250800   2.151   1.172   4.284 -0.4941 -0.7149 -0.7545
 9770TIP3    H150801   2.122   1.190   4.194  0.2687  0.8709 -0.7195
 9770TIP3    H250802   2.166   1.259   4.322  0.6319 -1.3927  0.4252
 9771TIP3   OH250803   2.619   5.240   6.372 -0.0019 -0.1594 -0.4109
 9771TIP3    H150804   2.686   5.297   6.410 -0.3209 -1.0540  1.6057
 9771TIP3    H250805   2.630   5.251   6.277  2.1930  0.6176 -0.1285
 9772TIP3   OH250806   1.017   1.703   2.151 -0.4645  0.5038  0.8801
 9772TIP3    H150807   1.074   1.690   2.076 -1.3569  0.1809  0.2451
 9772TIP3    H250808   1.067   1.669   2.225  0.7574  1.5756  0.5863
 9773TIP3   OH250809   4.103   2.594  14.283 -0.3878 -0.7947  0.1304
 9773TIP3    H150810   4.096   2.686  14.255  0.8086 -0.9168 -0.6506
 9773TIP3    H250811   4.084   2.544  14.203 -0.5059 -1.2200  0.4250
 9774TIP3   OH250812   3.478   1.435  16.708 -0.6071  0.1090 -0.2583
 9774TIP3    H150813   3.443   1.484  16.633 -2.9236 -1.8671 -0.6053
 9774TIP3    H250814   3.475   1.498  16.781 -2.8410  0.7471 -0.8078
 9775TIP3   OH250815   4.558   4.142  12.489  0.6184 -0.4689 -0.0973
 9775TIP3    H150816   4.617   4.217  12.475  0.3084 -0.2008  0.0310
 9775TIP3    H250817   4.536   4.146  12.582  2.1588 -1.8648  0.3776
 9776TIP3   OH250818   4.696   0.169  13.204  0.1484 -0.6674 -0.3034
 9776TIP3    H150819   4.625   0.111  13.179 -0.7567 -0.4576  1.5732
 9776TIP3    H250820   4.671   0.201  13.291  0.5307  2.6048 -1.2542
 9777TIP3   OH250821   6.392   4.643  12.391 -0.1767  0.0883 -0.2364
 9777TIP3    H150822   6.433   4.703  12.454 -2.0520  0.6427  0.5106
 9777TIP3    H250823   6.362   4.699  12.321  0.2816 -0.3165 -0.7681
 9778TIP3   OH250824   4.496   6.531   3.487  0.3686  0.2989  0.2323
 9778TIP3    H150825   4.500   6.444   3.447  0.6332  0.5008 -0.1839
 9778TIP3    H250826   4.403   6.544   3.506  0.0666  0.7020 -1.4289
 9779TIP3   OH250827   3.879   2.342   1.719 -0.1783 -0.0464  0.6467
 9779TIP3    H150828   3.835   2.397   1.655  1.3733  1.8542  1.1155
 9779TIP3    H250829   3.904   2.263   1.670 -2.5112 -0.4472 -0.0178
 9780TIP3   OH250830   4.261   4.181  11.725  0.4466  0.3703 -0.4259
 9780TIP3    H150831   4.259   4.111  11.659  1.1152  1.9285 -2.1938
 9780TIP3    H250832   4.186   4.162  11.781 -2.1655  0.6470 -3.4999
 9781TIP3   OH250833   0.641   6.106  17.185  0.4094  0.2876  0.3683
 9781TIP3    H150834   0.647   6.095  17.090 -0.1760 -0.9546  0.4469
 9781TIP3    H250835   0.586   6.183  17.197 -0.6819 -0.3512 -0.3279
 9782TIP3   OH250836   6.120   6.040   3.794 -0.0823  0.1946 -0.1468
 9782TIP3    H150837   6.072   6.082   3.865  1.1986  0.1594  0.7975
 9782TIP3    H250838   6.210   6.072   3.804  0.4103 -0.8889 -0.9022
 9783TIP3   OH250839   5.775   5.906   5.866  0.0533  0.1351  0.1447
 9783TIP3    H150840   5.737   5.826   5.831  1.2408  0.6273 -2.5065
 9783TIP3    H250841   5.710   5.974   5.846 -0.6098  0.0083  1.7100
 9784TIP3   OH250842   2.818   2.628   2.203  0.3383 -0.1622  0.1260
 9784TIP3    H150843   2.776   2.555   2.156  0.8060 -2.4270  2.9024
 9784TIP3    H250844   2.903   2.637   2.162  0.9010 -2.3612  0.6636
 9785TIP3   OH250845   5.485   4.459  13.240  0.6039  0.0720 -0.2588
 9785TIP3    H150846   5.405   4.416  13.211  0.8133  0.8995 -2.2331
 9785TIP3    H250847   5.553   4.427  13.180  1.0209  2.0586 -0.9344
 9786TIP3   OH250848   5.997   2.951   1.640  0.2332 -0.5405 -0.2276
 9786TIP3    H150849   6.012   2.889   1.711  1.5064  1.3412  1.2870
 9786TIP3    H250850   6.025   2.906   1.561  0.9981 -1.9113  0.7972
 9787TIP3   OH250851   4.547   5.581  16.564 -0.4677  0.6117  0.1781
 9787TIP3    H150852   4.459   5.560  16.533 -0.2330  1.2544 -0.9865
 9787TIP3    H250853   4.592   5.614  16.487  1.3077 -1.1972  0.3597
 9788TIP3   OH250854   2.609   3.868  14.544  0.2153 -0.5126 -0.0493
 9788TIP3    H150855   2.519   3.876  14.513 -1.0964  1.1596  3.6079
 9788TIP3    H250856   2.652   3.947  14.513 -0.1799 -0.3101 -0.0903
 9789TIP3   OH250857   5.914   0.287  14.150 -0.5365 -0.4289 -0.2303
 9789TIP3    H150858   5.969   0.239  14.088 -1.5559 -0.8740 -0.8055
 9789TIP3    H250859   5.896   0.224  14.220  1.5485  0.4009  1.1717
 9790TIP3   OH250860   2.358   5.325   6.195  0.1393 -0.0164 -0.0876
 9790TIP3    H150861   2.292   5.367   6.140 -0.5445 -1.1240 -0.1341
 9790TIP3    H250862   2.389   5.395   6.252 -2.0311  0.2591  0.8413
 9791TIP3   OH250863   5.224   0.313   3.403 -0.4296 -0.0335  0.3021
 9791TIP3    H150864   5.241   0.315   3.497  0.5585 -0.5049  0.1524
 9791TIP3    H250865   5.164   0.240   3.391 -0.2990 -0.1843  0.5413
 9792TIP3   OH250866   2.513   2.529   6.016  0.8540  0.0060  0.0910
 9792TIP3    H150867   2.432   2.580   6.006  1.0893  0.4717  0.5377
 9792TIP3    H250868   2.548   2.556   6.100  1.6351  0.0229 -0.2341
 9793TIP3   OH250869   0.438   0.242   3.979 -0.6196  0.2173 -0.5938
 9793TIP3    H150870   0.479   0.160   4.008 -0.8358  0.8608  1.6956
 9793TIP3    H250871   0.461   0.306   4.046 -2.9870  1.3129 -0.7157
 9794TIP3   OH250872   6.637   6.712  13.750 -0.3459  0.3769  0.2579
 9794TIP3    H150873   6.705   6.731  13.686  1.9445 -1.0482  2.1163
 9794TIP3    H250874   6.663   6.760  13.828 -1.5462 -0.0937  0.9814
 9795TIP3   OH250875   3.058   2.213  11.040 -0.4771 -0.1917  0.0426
 9795TIP3    H150876   3.064   2.261  11.122 -1.8108 -0.0025  0.0605
 9795TIP3    H250877   3.111   2.135  11.053  0.8818  0.7413  0.3816
 9796TIP3   OH250878   5.664   3.060   5.863  0.0837  0.0074 -0.2573
 9796TIP3    H150879   5.608   2.988   5.834 -0.2777  0.6407 -1.1802
 9796TIP3    H250880   5.681   3.110   5.783  0.5550  0.7844  0.3231
 9797TIP3   OH250881   5.107   3.879   0.726  0.0805 -0.4443  0.6308
 9797TIP3    H150882   5.133   3.968   0.704 -0.2872 -0.6101 -0.5437
 9797TIP3    H250883   5.187   3.840   0.763  1.2855 -0.6008 -1.8850
 9798TIP3   OH250884   4.358   2.318   1.698 -0.2498  0.1485 -0.5748
 9798TIP3    H150885   4.409   2.371   1.637  0.0916  2.3474  1.4416
 9798TIP3    H250886   4.275   2.302   1.654  0.0682  1.4502 -1.6900
 9799TIP3   OH250887   5.499   4.839   1.570  0.1310  0.0768  0.1830
 9799TIP3    H150888   5.506   4.856   1.663 -0.0020 -2.9573  0.8393
 9799TIP3    H250889   5.588   4.824   1.540 -0.0548 -2.0504  0.5611
 9800TIP3   OH250890   2.993   0.836  16.630  0.1998 -0.1661 -0.4469
 9800TIP3    H150891   2.991   0.824  16.725  0.8602 -1.0332 -0.5275
 9800TIP3    H250892   2.903   0.858  16.606  0.0103 -0.0373  0.3688
 9801TIP3   OH250893   3.990   1.878  16.543  0.3009 -0.2479 -0.5206
 9801TIP3    H150894   4.076   1.894  16.505  0.7799 -3.0413 -0.8149
 9801TIP3    H250895   3.975   1.784  16.530 -2.3459 -0.0385  0.4492
 9802TIP3   OH250896   3.061   5.921   3.762 -0.0671  0.4577 -0.3187
 9802TIP3    H150897   3.005   5.996   3.783 -1.3114 -0.6864  0.6158
 9802TIP3    H250898   3.092   5.890   3.847 -0.5221 -0.7858 -0.5878
 9803TIP3   OH250899   6.561   2.756   0.263 -1.1550 -0.2724  0.3050
 9803TIP3    H150900   6.587   2.803   0.184 -0.8865  0.0380  0.5733
 9803TIP3    H250901   6.632   2.693   0.278 -0.7214  0.3253  0.8323
 9804TIP3   OH250902   0.672   3.699   5.243 -0.0852 -0.1142  0.1255
 9804TIP3    H150903   0.655   3.703   5.149  0.6666  1.2520  0.0204
 9804TIP3    H250904   0.639   3.783   5.277 -1.3350 -1.0282  1.2660
 9805TIP3   OH250905   4.300   4.564  13.499  0.0823  0.2473 -0.1439
 9805TIP3    H150906   4.274   4.587  13.410 -0.7317  0.0551  0.0337
 9805TIP3    H250907   4.306   4.468  13.498 -0.7803  0.1796  0.2200
 9806TIP3   OH250908   1.512   1.841   4.786  0.1355  0.7735 -0.7873
 9806TIP3    H150909   1.591   1.819   4.736  0.0550  0.7076 -0.8849
 9806TIP3    H250910   1.441   1.832   4.723 -0.2258 -1.4942 -0.1413
 9807TIP3   OH250911   4.836   2.518   2.141 -0.5170 -0.0322  0.4003
 9807TIP3    H150912   4.758   2.532   2.088 -1.1305  0.7060  1.4573
 9807TIP3    H250913   4.808   2.454   2.208 -0.6692  1.2989  1.6502
 9808TIP3   OH250914   3.354   5.136   6.445 -0.4622 -0.1661 -0.1750
 9808TIP3    H150915   3.370   5.093   6.529  0.7956  0.6199  0.0016
 9808TIP3    H250916   3.307   5.070   6.394 -0.2328 -1.0699  0.7413
 9809TIP3   OH250917   1.619   6.508  14.315 -0.4179 -0.6385  0.0874
 9809TIP3    H150918   1.649   6.583  14.264 -1.8992 -0.8889 -1.2439
 9809TIP3    H250919   1.611   6.437  14.251 -0.3230 -1.5638  1.0721
 9810TIP3   OH250920   5.478   1.274  11.549  0.2791  0.1344 -0.2223
 9810TIP3    H150921   5.441   1.330  11.618  0.6254 -1.9695  1.8271
 9810TIP3    H250922   5.570   1.299  11.545  0.9389 -1.5454  2.1951
 9811TIP3   OH250923   4.324   2.640  12.553 -0.2764 -0.2001 -0.4096
 9811TIP3    H150924   4.254   2.699  12.525  0.9048  0.6178 -1.7740
 9811TIP3    H250925   4.370   2.617  12.472  1.1126 -0.6201  0.4681
 9812TIP3   OH250926   3.249   0.932  14.469 -0.1463 -0.2796 -0.3747
 9812TIP3    H150927   3.155   0.943  14.484 -0.2022  0.8750 -1.4199
 9812TIP3    H250928   3.257   0.924  14.374  0.7733 -0.9525 -0.2497
 9813TIP3   OH250929   2.510   0.713  13.447 -0.3119  0.3252 -0.0728
 9813TIP3    H150930   2.486   0.620  13.450  2.3514 -0.4410  0.6894
 9813TIP3    H250931   2.445   0.753  13.390 -1.9456 -1.8679  0.1150
 9814TIP3   OH250932   3.284   2.897  15.610 -0.4697  0.8450  0.1355
 9814TIP3    H150933   3.243   2.820  15.571  0.8360  0.0036  0.3505
 9814TIP3    H250934   3.332   2.863  15.685 -1.5700  2.1973  1.5160
 9815TIP3   OH250935   0.406   4.631   4.012  0.7238 -0.3302  0.0345
 9815TIP3    H150936   0.428   4.720   3.987  0.7343  0.2408  1.9170
 9815TIP3    H250937   0.472   4.576   3.969  1.0145  0.6034 -0.7362
 9816TIP3   OH250938   1.758   6.123   3.053  0.0479  0.1001 -0.5705
 9816TIP3    H150939   1.711   6.181   2.994 -0.3581 -1.5134 -1.9002
 9816TIP3    H250940   1.850   6.149   3.042 -0.1384  0.6223 -0.9874
 9817TIP3   OH250941   4.096   6.463   2.231 -0.8214  0.1861  0.1120
 9817TIP3    H150942   4.058   6.461   2.143 -1.4027  0.3566  0.3532
 9817TIP3    H250943   4.081   6.552   2.262  0.3348  0.4396 -0.0182
 9818TIP3   OH250944   1.432   3.805  15.125  0.4526 -0.5767 -0.9232
 9818TIP3    H150945   1.361   3.863  15.097  0.5421  1.3489  2.3219
 9818TIP3    H250946   1.405   3.718  15.094 -2.7357  0.2547 -0.8763
 9819TIP3   OH250947   2.642   2.116  10.733  0.0695  1.2589 -0.0103
 9819TIP3    H150948   2.624   2.046  10.671 -0.1530  0.6466  0.7358
 9819TIP3    H250949   2.577   2.105  10.803  2.2037 -0.0235  1.9384
 9820TIP3   OH250950   3.736   1.595  15.834 -0.4888  0.3192  0.2026
 9820TIP3    H150951   3.771   1.538  15.766 -1.1533  0.8820 -0.6379
 9820TIP3    H250952   3.653   1.555  15.859 -0.7805  0.7127 -0.1251
 9821TIP3   OH250953   4.124   4.225  12.176 -0.1471  0.7085  0.0013
 9821TIP3    H150954   4.136   4.258  12.086 -0.4106  2.0589  0.4451
 9821TIP3    H250955   4.050   4.274  12.210 -0.5303 -0.3404  0.7279
 9822TIP3   OH250956   1.014   2.118  12.326  0.0394 -0.0310  0.2257
 9822TIP3    H150957   1.064   2.112  12.407 -0.6815 -1.0334  0.6104
 9822TIP3    H250958   1.056   2.188  12.277  1.3650 -0.3587  0.8569
 9823TIP3   OH250959   5.543   6.378  11.051  0.2402 -0.5836  0.2886
 9823TIP3    H150960   5.569   6.469  11.067  0.5123 -1.0927  3.2939
 9823TIP3    H250961   5.476   6.385  10.982  0.7340  1.7956 -0.0540
 9824TIP3   OH250962   0.102   3.884   2.774 -0.4655  0.5460  0.1395
 9824TIP3    H150963   0.042   3.898   2.847 -0.3855 -0.7138  0.4534
 9824TIP3    H250964   0.049   3.905   2.696 -0.6969  1.3959  0.5064
 9825TIP3   OH250965   6.273   3.774  11.918  0.5555  0.1637  0.0315
 9825TIP3    H150966   6.326   3.728  11.854 -1.2973 -0.2128 -1.3271
 9825TIP3    H250967   6.183   3.756  11.892 -0.2590  1.7766  1.4942
 9826TIP3   OH250968   1.174   5.984   5.141 -0.0134  0.3755 -0.4377
 9826TIP3    H150969   1.109   6.023   5.084  0.6186 -0.3905 -1.7168
 9826TIP3    H250970   1.230   5.932   5.083 -0.1173 -1.4950  1.0157
 9827TIP3   OH250971   0.160   4.369  12.492 -0.1413 -0.5016  0.2035
 9827TIP3    H150972   0.168   4.463  12.511  0.0353 -0.8122  1.7830
 9827TIP3    H250973   0.069   4.358  12.465 -0.6268 -0.1060  1.5837
 9828TIP3   OH250974   0.544   2.885   6.057 -0.3302  0.3244 -0.3430
 9828TIP3    H150975   0.523   2.865   6.148 -0.1709 -0.1678 -0.4073
 9828TIP3    H250976   0.608   2.956   6.061  2.8947 -2.3418  0.1526
 9829TIP3   OH250977   2.150   5.747   1.271  0.2983  0.0174 -0.3392
 9829TIP3    H150978   2.188   5.662   1.293 -1.7603 -0.4378  1.8893
 9829TIP3    H250979   2.144   5.793   1.355 -0.0742  1.7533 -1.2620
 9830TIP3   OH250980   5.520   4.052  12.829  0.2946 -0.2020 -0.5756
 9830TIP3    H150981   5.522   4.116  12.901 -1.0800 -2.3660  1.5594
 9830TIP3    H250982   5.597   4.072  12.777  1.2631  1.6366  1.3983
 9831TIP3   OH250983   4.366   2.263   2.174  0.1609  0.4535  0.0399
 9831TIP3    H150984   4.308   2.189   2.156  0.3266  0.7915 -2.1818
 9831TIP3    H250985   4.451   2.237   2.137  0.4570  1.3899  0.0226
 9832TIP3   OH250986   5.060   4.483   2.443  0.6071  0.6866 -0.1004
 9832TIP3    H150987   5.104   4.417   2.388 -0.5674 -0.6093  0.4493
 9832TIP3    H250988   5.076   4.566   2.398  0.9026 -0.1496 -1.6219
 9833TIP3   OH250989   5.746   6.433   1.617  0.2189  0.8921  0.5202
 9833TIP3    H150990   5.718   6.400   1.703  1.9829 -0.3210  0.6934
 9833TIP3    H250991   5.770   6.354   1.568  1.0716  1.6948 -0.4021
 9834TIP3   OH250992   6.387   6.821   0.221 -0.4688  0.0966  0.4029
 9834TIP3    H150993   6.405   6.776   0.304  0.6529 -0.3339 -0.0468
 9834TIP3    H250994   6.436   6.770   0.156 -1.0192  0.6580 -0.4621
 9835TIP3   OH250995   2.802   2.568  16.357  0.6229 -0.6449  0.0153
 9835TIP3    H150996   2.876   2.536  16.409  1.2560  0.4067 -0.2183
 9835TIP3    H250997   2.842   2.607  16.279 -0.1552  0.2452  0.0410
 9836TIP3   OH250998   6.739   4.667  12.572 -0.3335 -0.0658  0.2669
 9836TIP3    H150999   6.763   4.718  12.649  0.2153 -0.5422  0.4220
 9836TIP3    H251000   6.812   4.678  12.511 -0.2264 -0.6150  0.2832
 9837TIP3   OH251001   4.756   1.216   3.533 -0.1485 -0.8638  0.4605
 9837TIP3    H151002   4.804   1.138   3.507 -0.0837 -0.5385 -0.4689
 9837TIP3    H251003   4.804   1.251   3.608  0.5237 -1.0624  0.1328
 9838TIP3   OH251004   4.144   5.500  17.193  0.3249  0.0548 -0.4906
 9838TIP3    H151005   4.125   5.491  17.287  1.3302  1.1703 -0.1586
 9838TIP3    H251006   4.230   5.460  17.183  0.0824 -0.3434 -1.0151
 9839TIP3   OH251007   6.502   4.492   2.066  0.4059  0.4269  0.0203
 9839TIP3    H151008   6.512   4.402   2.097  2.4244  0.5261 -0.1797
 9839TIP3    H251009   6.410   4.500   2.044  0.0810 -1.4282  0.5438
 9840TIP3   OH251010   1.241   3.263   0.555 -0.4996  0.5238 -0.6062
 9840TIP3    H151011   1.332   3.263   0.585 -0.7295 -0.5319  0.1597
 9840TIP3    H251012   1.247   3.265   0.460  0.3268  0.4948 -0.5663
 9841TIP3   OH251013   6.732   6.227   1.648  0.3453 -0.1319 -0.4365
 9841TIP3    H151014   6.732   6.244   1.742  1.2355 -0.1817 -0.4214
 9841TIP3    H251015   6.676   6.295   1.611  0.1167 -0.0196  0.1073
 9842TIP3   OH251016   5.482   5.715   2.221  0.1990  0.3350 -0.0950
 9842TIP3    H151017   5.453   5.799   2.186 -0.4648  0.6318  1.1284
 9842TIP3    H251018   5.407   5.656   2.207 -0.1765  0.5267  1.0481
 9843TIP3   OH251019   0.571   5.112   3.792  0.1976  0.0754  0.0127
 9843TIP3    H151020   0.598   5.079   3.707 -1.0872  1.0130 -0.7998
 9843TIP3    H251021   0.640   5.083   3.853  2.6639  1.8398 -1.7751
 9844TIP3   OH251022   4.799   2.708  12.159 -0.0458  0.1968 -0.0442
 9844TIP3    H151023   4.723   2.714  12.102  0.4873  0.6147 -0.7372
 9844TIP3    H251024   4.773   2.754  12.239 -0.0171  1.7107 -0.8579
 9845TIP3   OH251025   3.639   2.581  11.771  0.3933  0.3230 -0.4755
 9845TIP3    H151026   3.556   2.563  11.726  0.7967  1.3639 -1.6968
 9845TIP3    H251027   3.705   2.572  11.703  1.0691  1.4755 -0.0029
 9846TIP3   OH251028   6.449   0.106  13.647 -0.4985 -0.3032 -0.2514
 9846TIP3    H151029   6.464   0.047  13.573  0.3898  0.6376 -0.8514
 9846TIP3    H251030   6.432   0.191  13.607  1.6952  0.6130  0.6082
 9847TIP3   OH251031   4.940   2.177  13.628  0.5448 -0.0634 -0.4222
 9847TIP3    H151032   4.875   2.171  13.557  0.0243  0.4803 -0.0046
 9847TIP3    H251033   4.971   2.267  13.625  0.5892 -0.0635 -0.0216
 9848TIP3   OH251034   5.183   5.152  16.840 -1.0762 -0.3066 -0.2179
 9848TIP3    H151035   5.090   5.157  16.862 -0.8766 -0.5833  0.7408
 9848TIP3    H251036   5.191   5.195  16.756 -2.0723 -0.2463 -0.2847
 9849TIP3   OH251037   2.027   2.140  17.080 -0.6230  0.5470 -0.2089
 9849TIP3    H151038   1.944   2.106  17.047 -1.1302  0.0804  1.4433
 9849TIP3    H251039   2.093   2.083  17.042 -1.0239  1.0221 -1.6708
 9850TIP3   OH251040   0.663   0.750  12.060  0.9337  0.1210 -0.2002
 9850TIP3    H151041   0.579   0.715  12.031  0.2424  2.4629 -1.2387
 9850TIP3    H251042   0.652   0.763  12.155  0.0720  0.4813 -0.3368
 9851TIP3   OH251043   4.768   1.252  11.599 -1.0953 -0.9068  0.0455
 9851TIP3    H151044   4.747   1.160  11.617  1.2296 -1.5273 -0.0240
 9851TIP3    H251045   4.683   1.294  11.584 -2.2083 -3.1139 -0.2660
 9852TIP3   OH251046   0.241   4.323   2.535  0.0866 -0.0268 -0.5324
 9852TIP3    H151047   0.233   4.339   2.441  0.7717  3.2323 -0.1513
 9852TIP3    H251048   0.311   4.258   2.542 -0.0541 -0.4104 -2.2548
 9853TIP3   OH251049   4.147   1.059  11.945 -0.1937  0.7431  0.2410
 9853TIP3    H151050   4.228   1.098  11.912  0.2175 -1.3192 -1.3337
 9853TIP3    H251051   4.167   0.966  11.956 -2.1538  0.2945  0.4188
 9854TIP3   OH251052   0.326   0.533   4.275 -0.7747 -0.3821  0.1000
 9854TIP3    H151053   0.380   0.607   4.305 -2.2830 -0.0186  2.1244
 9854TIP3    H251054   0.265   0.573   4.213 -1.6383  0.1210  1.2478
 9855TIP3   OH251055   6.244   4.201   0.052  0.2994 -0.5443  0.1671
 9855TIP3    H151056   6.321   4.252   0.026 -0.1455 -0.8582 -1.9323
 9855TIP3    H251057   6.279   4.119   0.086  0.9068 -0.5319 -0.4268
 9856TIP3   OH251058   5.396   2.457  13.133  0.0663 -0.3451 -0.0276
 9856TIP3    H151059   5.444   2.439  13.053 -0.3244 -1.5551 -0.0173
 9856TIP3    H251060   5.304   2.460  13.106  0.0243  0.5593  0.1736
 9857TIP3   OH251061   2.677   6.501  13.690  0.3271  0.4187 -0.0524
 9857TIP3    H151062   2.622   6.527  13.616 -1.4308 -1.1960  0.6055
 9857TIP3    H251063   2.729   6.579  13.710 -0.5552  1.4958 -1.7370
 9858TIP3   OH251064   2.419   4.983   3.731  0.2766  0.3550 -0.3245
 9858TIP3    H151065   2.366   4.904   3.724 -0.4639  0.9088 -1.1293
 9858TIP3    H251066   2.434   4.994   3.825 -1.9403  0.7795  0.0131
 9859TIP3   OH251067   1.075   4.199  15.863 -0.5740  0.1055 -0.7058
 9859TIP3    H151068   1.039   4.187  15.950 -1.1145 -0.3228 -0.9796
 9859TIP3    H251069   1.069   4.293  15.846 -0.5455  0.1771 -0.3226
 9860TIP3   OH251070   5.256   1.636  12.993  0.2331 -0.5098 -0.1197
 9860TIP3    H151071   5.276   1.672  12.907 -0.8343  2.2438  0.6848
 9860TIP3    H251072   5.277   1.543  12.985  2.0782  0.0071 -2.7135
 9861TIP3   OH251073   0.533   5.939  13.814 -0.2649  0.3507 -0.2042
 9861TIP3    H151074   0.514   5.854  13.853  1.4258  0.7167  1.5929
 9861TIP3    H251075   0.453   5.990  13.826 -0.5994 -0.3380  0.5635
 9862TIP3   OH251076   4.869   1.980   1.404 -0.1097  0.2335  0.0799
 9862TIP3    H151077   4.951   2.015   1.367 -0.1028 -1.4182 -1.6263
 9862TIP3    H251078   4.801   2.032   1.363  0.0284  1.0408  0.8437
 9863TIP3   OH251079   6.515   0.889  13.404 -0.3636  0.5676 -0.2037
 9863TIP3    H151080   6.596   0.939  13.409  0.2864 -0.4989  0.1688
 9863TIP3    H251081   6.526   0.818  13.468 -1.3155  0.0359 -0.6076
 9864TIP3   OH251082   2.985   4.187   2.710  0.7233  0.2630  0.0018
 9864TIP3    H151083   2.985   4.267   2.763  1.8088  0.0244  0.3954
 9864TIP3    H251084   2.912   4.136   2.744  0.8150  0.5346  0.6240
 9865TIP3   OH251085   5.159   4.611   1.778  0.4449  0.6505  0.2807
 9865TIP3    H151086   5.078   4.597   1.827  0.9384 -0.6123  0.7869
 9865TIP3    H251087   5.130   4.637   1.690 -0.4881  0.7176  0.5995
 9866TIP3   OH251088   2.860   1.886  15.914 -0.0968 -0.0426  0.2899
 9866TIP3    H151089   2.898   1.843  15.838 -0.5803  1.5724 -0.9390
 9866TIP3    H251090   2.818   1.965  15.878 -1.1235  0.3059  2.1114
 9867TIP3   OH251091   4.431   1.057  12.045  0.2459 -0.0275 -0.2337
 9867TIP3    H151092   4.398   0.979  12.001  0.5883  0.1217 -0.7648
 9867TIP3    H251093   4.370   1.072  12.117  0.3145 -0.9259  0.0170
 9868TIP3   OH251094   5.979   0.882  13.998 -0.0708  0.0363  0.2664
 9868TIP3    H151095   5.928   0.855  13.922  1.5521 -1.0458 -0.4818
 9868TIP3    H251096   5.915   0.888  14.069 -1.2897 -0.9163 -0.7117
 9869TIP3   OH251097   2.134   5.558  14.165  0.3871  0.3669  0.0866
 9869TIP3    H151098   2.097   5.540  14.251  0.7534 -0.6276  0.0486
 9869TIP3    H251099   2.107   5.484  14.111  0.8590  0.5638 -0.4360
 9870TIP3   OH251100   2.155   3.544  16.977 -0.1483  0.2163  0.8922
 9870TIP3    H151101   2.101   3.602  16.922  0.1700 -0.7575 -0.5148
 9870TIP3    H251102   2.245   3.571  16.957  0.0285 -1.1187 -0.2414
 9871TIP3   OH251103   4.046   0.607   6.441 -0.4883  0.2666 -0.1275
 9871TIP3    H151104   3.951   0.605   6.432 -0.4560 -0.9460 -0.3535
 9871TIP3    H251105   4.076   0.528   6.396  0.5163 -0.1400  1.1891
 9872TIP3   OH251106   6.409   0.060  14.000  0.2072 -0.2208 -0.2333
 9872TIP3    H151107   6.460   0.063  14.081 -1.3151 -1.3977  0.8142
 9872TIP3    H251108   6.388  -0.032  13.988 -1.4470  0.1943 -0.7687
 9873TIP3   OH251109   0.687   2.729  16.118 -0.3657 -0.1999  0.7600
 9873TIP3    H151110   0.645   2.759  16.199 -0.6243 -0.1476  0.6090
 9873TIP3    H251111   0.780   2.741  16.133 -0.4500  4.3136 -0.6183
 9874TIP3   OH251112   1.843   6.443   4.488  0.4877 -0.6032  0.2560
 9874TIP3    H151113   1.795   6.361   4.475 -3.0445  1.2117  0.5966
 9874TIP3    H251114   1.870   6.470   4.400  0.8914 -1.6351  0.0444
 9875TIP3   OH251115   0.524   5.260  14.180  0.0427 -0.0225  0.0674
 9875TIP3    H151116   0.491   5.215  14.258 -0.0414 -0.0615  0.0102
 9875TIP3    H251117   0.597   5.206  14.150 -0.1149 -0.1680 -0.0528
 9876TIP3   OH251118   2.579   2.850   4.260  0.1561 -0.5946 -0.2326
 9876TIP3    H151119   2.592   2.908   4.335  1.0536 -1.5449  0.3698
 9876TIP3    H251120   2.537   2.773   4.297 -0.8311 -0.4419 -0.9916
 9877TIP3   OH251121   6.670   1.035  12.216  0.6836 -0.1288  0.0270
 9877TIP3    H151122   6.659   1.036  12.121  1.1735  0.2669 -0.0336
 9877TIP3    H251123   6.686   0.944  12.238  2.6312  0.0158 -0.5434
 9878TIP3   OH251124   3.975   0.856  17.060  0.3043  0.0689  0.2443
 9878TIP3    H151125   3.983   0.841  16.966  0.6194 -0.1500  0.3049
 9878TIP3    H251126   3.897   0.911  17.069  0.3650  0.2219 -0.1576
 9879TIP3   OH251127   6.227   0.417  16.681  0.1851 -0.0871  0.6647
 9879TIP3    H151128   6.267   0.457  16.758  1.1072  1.3742 -0.5112
 9879TIP3    H251129   6.201   0.491  16.626 -2.0847 -1.0599  0.3355
 9880TIP3   OH251130   5.560   3.575  14.559 -0.2899  0.2239 -0.7478
 9880TIP3    H151131   5.641   3.558  14.512  0.3015 -1.3522  0.7341
 9880TIP3    H251132   5.586   3.581  14.651 -1.4031  3.0691 -0.5020
 9881TIP3   OH251133   1.355   2.292  16.154 -0.1791  0.2458 -0.4223
 9881TIP3    H151134   1.285   2.347  16.190 -0.7426 -0.4298 -0.4707
 9881TIP3    H251135   1.399   2.256  16.231  1.1390  1.9047 -0.3549
 9882TIP3   OH251136   1.429   6.806   1.446 -0.1363 -0.2791 -0.0177
 9882TIP3    H151137   1.350   6.764   1.414 -0.4940  1.1714 -1.1408
 9882TIP3    H251138   1.397   6.880   1.498  0.4721  0.4434 -0.6578
 9883TIP3   OH251139   2.660   5.073  11.380 -0.1310 -1.0037  0.7755
 9883TIP3    H151140   2.728   5.095  11.444  1.0275  1.0370 -1.0317
 9883TIP3    H251141   2.708   5.043  11.303 -1.2535  0.2609 -0.4683
 9884TIP3   OH251142   4.126   6.187  10.652 -0.4880 -0.3906  0.0244
 9884TIP3    H151143   4.095   6.112  10.602 -1.1907  0.0507 -0.2259
 9884TIP3    H251144   4.055   6.251  10.645  0.4401  0.6109 -0.4453
 9885TIP3   OH251145   3.104   2.695  11.430 -0.3821  0.6745  0.3884
 9885TIP3    H151146   3.075   2.629  11.494  0.1264 -0.7939 -0.8330
 9885TIP3    H251147   3.026   2.748  11.413 -1.1303 -0.3390  0.5462
 9886TIP3   OH251148   3.926   1.643  14.134  0.1688 -0.3243 -0.8216
 9886TIP3    H151149   3.920   1.584  14.059  0.5724 -1.2720 -0.1253
 9886TIP3    H251150   3.892   1.592  14.208  1.0075  0.1259 -0.1064
 9887TIP3   OH251151   4.058   6.162   1.915 -0.4996  0.0036  0.2614
 9887TIP3    H151152   4.152   6.162   1.932 -0.1092  1.4319 -1.6039
 9887TIP3    H251153   4.019   6.195   1.996  1.0299  3.9040 -0.3771
 9888TIP3   OH251154   1.451   2.405   6.082 -0.5881  0.1787  0.5431
 9888TIP3    H151155   1.509   2.369   6.149  0.6670  1.6861  0.3282
 9888TIP3    H251156   1.385   2.454   6.130 -1.6105 -1.3595  0.7796
 9889TIP3   OH251157   1.701   6.055   3.531 -0.4434  0.2548 -0.5908
 9889TIP3    H151158   1.661   6.136   3.562 -1.2914 -0.8042  1.2846
 9889TIP3    H251159   1.795   6.072   3.536 -0.5936  1.5880 -1.6649
 9890TIP3   OH251160   6.367   4.592  16.293  0.4277 -0.5354 -1.2862
 9890TIP3    H151161   6.442   4.610  16.238  1.3420 -0.8765 -0.1974
 9890TIP3    H251162   6.404   4.578  16.380 -0.7847 -1.7818 -0.9301
 9891TIP3   OH251163   2.912   1.971  13.203 -0.5028  0.0688 -0.2014
 9891TIP3    H151164   2.847   1.971  13.132 -0.9015  1.6724  0.1346
 9891TIP3    H251165   2.861   1.977  13.283 -0.0003 -0.5800  0.1812
 9892TIP3   OH251166   1.251   3.436   4.405 -0.7023 -0.3856  0.1569
 9892TIP3    H151167   1.232   3.441   4.499 -2.7283  0.4296 -0.2412
 9892TIP3    H251168   1.211   3.514   4.368  0.4755 -0.4451 -1.3556
 9893TIP3   OH251169   6.111   3.523   5.897  0.3228 -0.1918  0.0275
 9893TIP3    H151170   6.132   3.475   5.977 -1.5276 -1.5071 -0.1933
 9893TIP3    H251171   6.052   3.592   5.925 -0.3998 -0.7091 -0.1810
 9894TIP3   OH251172   0.081   3.634   3.045  0.0817  0.2322 -0.0066
 9894TIP3    H151173   0.147   3.669   2.986 -0.5222 -0.3055 -1.0365
 9894TIP3    H251174   0.092   3.683   3.126 -0.4965  2.5782 -1.2512
 9895TIP3   OH251175   6.054   5.504  13.387 -0.7593 -0.1787 -0.5956
 9895TIP3    H151176   6.017   5.559  13.318 -2.0452  0.7940  0.7919
 9895TIP3    H251177   6.029   5.415  13.362 -0.3948  0.0540 -1.8464
 9896TIP3   OH251178   4.743   5.390   6.226 -0.5955 -0.5475  0.1833
 9896TIP3    H151179   4.823   5.337   6.222  0.6082  1.2361 -1.0413
 9896TIP3    H251180   4.691   5.359   6.152 -0.5718 -1.0067  0.3523
 9897TIP3   OH251181   2.146   0.551  16.271  0.7029  0.1577  0.2071
 9897TIP3    H151182   2.127   0.599  16.190 -1.0825 -1.4687 -0.4051
 9897TIP3    H251183   2.238   0.573  16.290  0.4014  2.6475 -0.7639
 9898TIP3   OH251184   6.428   4.065  16.159 -0.0188  0.0036 -0.0948
 9898TIP3    H151185   6.426   4.077  16.254 -0.5990  0.3331 -0.1378
 9898TIP3    H251186   6.394   3.977  16.145  1.7169 -0.7226  0.0886
 9899TIP3   OH251187   4.274   1.147  15.376  0.0059  0.2993 -0.4189
 9899TIP3    H151188   4.285   1.056  15.405 -2.8978 -0.2247 -0.6442
 9899TIP3    H251189   4.235   1.140  15.289  0.4042  1.8102 -0.7507
 9900TIP3   OH251190   0.538   6.384   5.710  0.0136 -0.0266 -0.3740
 9900TIP3    H151191   0.520   6.386   5.616  0.7652 -0.5665 -0.5402
 9900TIP3    H251192   0.565   6.473   5.731 -0.1486  0.0936 -0.6704
 9901TIP3   OH251193   0.510   5.944  15.305 -0.2360 -0.2999 -0.1946
 9901TIP3    H151194   0.571   5.999  15.355  0.4681 -1.0376 -0.2261
 9901TIP3    H251195   0.560   5.866  15.283 -1.0235 -0.6718 -0.7220
 9902TIP3   OH251196   0.906   0.859   3.511 -0.1887  0.1419  0.2169
 9902TIP3    H151197   0.813   0.874   3.523 -0.3103  0.5571 -1.1041
 9902TIP3    H251198   0.930   0.912   3.435  0.7966 -1.1539 -0.4225
 9903TIP3   OH251199   5.226   3.860   3.698 -0.0054  0.3976  0.4004
 9903TIP3    H151200   5.292   3.823   3.638  0.3905  2.1274 -0.3078
 9903TIP3    H251201   5.156   3.891   3.640 -0.1052  1.1479  0.9094
 9904TIP3   OH251202   2.312   4.891  12.961  0.0160 -0.5237 -0.2614
 9904TIP3    H151203   2.326   4.979  12.927  1.4953 -0.9303 -0.7734
 9904TIP3    H251204   2.281   4.905  13.050  1.0147  0.5290 -0.0506
 9905TIP3   OH251205   1.758   6.216  10.587 -0.7273 -0.3409  0.4450
 9905TIP3    H151206   1.823   6.161  10.631  1.4203 -0.9356 -3.0944
 9905TIP3    H251207   1.681   6.159  10.578 -0.8907 -0.5100  2.3435
 9906TIP3   OH251208   1.286   5.586  14.908 -0.2594 -0.3021 -0.3280
 9906TIP3    H151209   1.223   5.570  14.837 -0.6623 -0.6974  0.1149
 9906TIP3    H251210   1.306   5.680  14.901 -0.0137 -0.4132 -1.1930
 9907TIP3   OH251211   3.434   2.203   6.029  0.6242  0.1665 -0.1377
 9907TIP3    H151212   3.421   2.281   6.083  0.7591  0.3833 -0.4111
 9907TIP3    H251213   3.408   2.130   6.084 -2.1866  0.5691 -0.7861
 9908TIP3   OH251214   0.989   2.282  14.573  0.4229  0.0225  0.1805
 9908TIP3    H151215   0.971   2.237  14.656  1.5443  0.5920  0.7598
 9908TIP3    H251216   0.922   2.351  14.569  0.2562 -0.1121  0.5311
 9909TIP3   OH251217   2.103   3.107  15.164  0.2399  0.4202  0.0159
 9909TIP3    H151218   2.035   3.174  15.167  0.9061  1.2333 -1.5690
 9909TIP3    H251219   2.184   3.156  15.149  0.8633 -0.6736 -0.2867
 9910TIP3   OH251220   6.136   6.707   0.183  0.2668 -0.1655  0.6285
 9910TIP3    H151221   6.209   6.768   0.190 -0.6672  0.9589  0.8872
 9910TIP3    H251222   6.058   6.762   0.188 -0.6452 -0.9842 -2.2180
 9911TIP3   OH251223   6.049   2.182   4.317 -0.7276 -0.0693  0.0142
 9911TIP3    H151224   5.994   2.134   4.256 -1.3431  1.8992 -1.0926
 9911TIP3    H251225   5.996   2.190   4.397 -1.3769  0.3440 -0.4464
 9912TIP3   OH251226   6.523   2.426  15.619 -0.4493  0.0543 -0.3105
 9912TIP3    H151227   6.501   2.333  15.614  1.3020 -0.5462  1.8427
 9912TIP3    H251228   6.606   2.433  15.573 -1.2290  0.8531 -1.6528
 9913TIP3   OH251229   5.331   1.083   4.428 -0.0042  0.1653 -0.5616
 9913TIP3    H151230   5.306   1.012   4.368  0.0330 -1.3030  1.0908
 9913TIP3    H251231   5.423   1.099   4.408  0.6631 -1.9185  0.6054
 9914TIP3   OH251232   3.283   6.154   4.601  0.0282  0.1039  0.2120
 9914TIP3    H151233   3.335   6.234   4.588  0.9344 -0.7180 -1.5976
 9914TIP3    H251234   3.323   6.090   4.542 -0.6292 -1.7316  1.6611
 9915TIP3   OH251235   5.520   0.093  17.092 -0.5772 -0.0081 -0.1492
 9915TIP3    H151236   5.512   0.076  16.998 -1.6439  0.3249 -0.1292
 9915TIP3    H251237   5.439   0.137  17.115 -0.0414  0.4964  0.8119
 9916TIP3   OH251238   6.522   2.176  14.670 -0.3408 -0.0483  0.3858
 9916TIP3    H151239   6.460   2.183  14.597 -0.1546 -3.7505 -0.2960
 9916TIP3    H251240   6.608   2.183  14.629 -0.2533 -1.2092  0.3450
 9917TIP3   OH251241   1.387   3.992  15.429 -0.3272  0.5416 -0.0444
 9917TIP3    H151242   1.480   4.011  15.427 -0.0923 -0.3886  1.4147
 9917TIP3    H251243   1.381   3.897  15.433 -1.3905  0.4961 -1.5738
 9918TIP3   OH251244   0.326   3.258  15.377 -0.3998  0.1787  0.0752
 9918TIP3    H151245   0.407   3.308  15.373 -0.4528  0.2114 -0.5969
 9918TIP3    H251246   0.311   3.245  15.471  1.6747 -1.9187  0.2109
 9919TIP3   OH251247   2.104   2.067  11.809  0.1232 -0.3798 -0.3906
 9919TIP3    H151248   2.034   2.132  11.809 -0.4324 -0.9222  1.0976
 9919TIP3    H251249   2.060   1.984  11.793  0.5183 -0.6450 -0.1295
 9920TIP3   OH251250   4.656   0.349  17.041 -0.3921 -0.2271 -0.2410
 9920TIP3    H151251   4.642   0.338  17.135  0.0332 -0.5051 -0.2058
 9920TIP3    H251252   4.720   0.280  17.019  0.2935  0.4935 -0.5392
 9921TIP3   OH251253   3.529   3.459  15.200 -0.1513 -0.1283  0.3484
 9921TIP3    H151254   3.470   3.475  15.126  0.5392  0.7490 -0.0342
 9921TIP3    H251255   3.617   3.460  15.162  0.1161 -1.8854  0.8312
 9922TIP3   OH251256   1.252   5.731   0.149 -0.2929  0.1049  0.5088
 9922TIP3    H151257   1.174   5.757   0.099  0.4233 -0.5669 -1.0263
 9922TIP3    H251258   1.227   5.649   0.192 -0.7246  0.3732  0.7784
 9923TIP3   OH251259   0.784   4.249  16.515  0.1335  0.0940  0.5015
 9923TIP3    H151260   0.832   4.210  16.442 -0.5845 -0.3079  0.2317
 9923TIP3    H251261   0.825   4.212  16.593 -0.6319 -1.3638  0.2504
 9924TIP3   OH251262   2.745   2.665   3.338 -0.1178  0.0548 -0.3777
 9924TIP3    H151263   2.695   2.586   3.357  0.2131  0.1167  0.8204
 9924TIP3    H251264   2.750   2.711   3.422  0.8231  0.6996 -0.7739
 9925TIP3   OH251265   4.879   2.130  15.934 -0.5714  0.3729  0.3037
 9925TIP3    H151266   4.796   2.130  15.983 -1.1165 -0.0576 -0.5829
 9925TIP3    H251267   4.910   2.040  15.941 -1.3623 -0.0678 -1.2472
 9926TIP3   OH251268   4.343   6.169  16.093  0.1436 -0.3505 -0.1721
 9926TIP3    H151269   4.397   6.244  16.065  0.1243 -0.7205 -1.2231
 9926TIP3    H251270   4.255   6.205  16.097 -0.0988 -0.6371 -2.0817
 9927TIP3   OH251271   0.177   4.285   5.487  0.0162 -0.0242 -0.0558
 9927TIP3    H151272   0.104   4.280   5.550 -0.8404 -0.2351 -1.0354
 9927TIP3    H251273   0.224   4.364   5.512  0.3020 -0.6352  1.4823
 9928TIP3   OH251274   1.665   4.973   2.218 -0.0876  0.3415  0.4494
 9928TIP3    H151275   1.662   5.058   2.261 -1.4295  0.2708  0.5502
 9928TIP3    H251276   1.670   4.910   2.291  2.2688  0.3277  0.3558
 9929TIP3   OH251277   3.423   0.795   0.025  0.1566 -0.2583 -0.4831
 9929TIP3    H151278   3.363   0.793   0.100 -0.1612  0.9291 -0.6884
 9929TIP3    H251279   3.371   0.762  -0.048  0.7992 -2.5147  0.0003
 9930TIP3   OH251280   3.971   1.725  12.886  0.0768 -0.5098  0.0320
 9930TIP3    H151281   3.883   1.749  12.858 -0.1224 -1.7613 -0.4771
 9930TIP3    H251282   3.971   1.629  12.888  1.1825 -0.5202  0.8291
 9931TIP3   OH251283   6.096   0.181   1.304  0.0722  0.3296 -0.0608
 9931TIP3    H151284   6.067   0.240   1.373 -0.3504  2.2452 -1.7691
 9931TIP3    H251285   6.019   0.171   1.248  0.4170 -1.1150 -0.3113
 9932TIP3   OH251286   5.337   3.069  15.823 -0.4091  0.1093  0.1233
 9932TIP3    H151287   5.413   3.011  15.817  0.6109  1.4261 -0.1287
 9932TIP3    H251288   5.262   3.013  15.802  0.8476 -0.3430 -4.1559
 9933TIP3   OH251289   3.545   4.442  14.789 -0.2066 -0.2231  0.4166
 9933TIP3    H151290   3.511   4.404  14.708  0.7532 -0.8700  0.3062
 9933TIP3    H251291   3.633   4.472  14.767 -0.6555  1.4051  0.7136
 9934TIP3   OH251292   1.601   3.010  12.148 -0.0801 -0.1895 -0.0164
 9934TIP3    H151293   1.587   3.070  12.075  1.9084 -0.2163 -0.4708
 9934TIP3    H251294   1.560   2.928  12.120  1.1129 -0.3653 -1.3814
 9935TIP3   OH251295   3.786   6.154  13.261  0.3696  0.0147 -0.2308
 9935TIP3    H151296   3.789   6.159  13.357 -1.5460  2.2374 -0.1969
 9935TIP3    H251297   3.823   6.068  13.241  2.6422  0.2481  2.3491
 9936TIP3   OH251298   4.649   0.147   2.125 -0.5672 -0.2181 -0.4050
 9936TIP3    H151299   4.713   0.080   2.100 -0.5145 -1.0260  1.6706
 9936TIP3    H251300   4.580   0.098   2.170 -0.1036  1.1745  1.9840
 9937TIP3   OH251301   2.554   0.086   0.010  0.2927  0.3662 -0.2609
 9937TIP3    H151302   2.628   0.147   0.018  0.2888  0.2082  1.2879
 9937TIP3    H251303   2.507   0.115  -0.069  0.3740  2.2773  0.3466
 9938TIP3   OH251304   6.751   0.466  16.041 -0.5672 -0.1735  0.2666
 9938TIP3    H151305   6.837   0.493  16.075 -0.4880  1.6002 -1.1889
 9938TIP3    H251306   6.691   0.535  16.069 -0.9369  0.1048 -1.1428
 9939TIP3   OH251307   5.186   6.048   1.220  0.3193 -0.3807  0.3245
 9939TIP3    H151308   5.237   5.977   1.260  0.4962  0.5966  1.8927
 9939TIP3    H251309   5.104   6.049   1.269  0.9200  1.4696  1.3912
 9940TIP3   OH251310   3.183   0.952   2.887 -0.0166 -0.2700  0.6387
 9940TIP3    H151311   3.143   1.025   2.934 -1.1913 -0.8987  0.6604
 9940TIP3    H251312   3.273   0.979   2.871 -0.7205  1.6674 -0.3495
 9941TIP3   OH251313   1.763   1.421  13.395 -0.2538  0.5680  0.3354
 9941TIP3    H151314   1.732   1.505  13.427  1.7487  0.1119  4.1135
 9941TIP3    H251315   1.697   1.358  13.425  0.0620  0.4766  0.8701
 9942TIP3   OH251316   4.004   1.727  15.978 -0.1157  0.2315  0.2608
 9942TIP3    H151317   3.924   1.678  15.960  0.0862  0.6824 -2.0637
 9942TIP3    H251318   3.977   1.819  15.975  0.5060  0.3892 -0.6855
 9943TIP3   OH251319   1.093   6.798   6.424  0.3914  0.4203  0.3093
 9943TIP3    H151320   1.143   6.750   6.358  1.4413  0.6368  0.9345
 9943TIP3    H251321   1.004   6.762   6.418  0.4397  0.5239 -1.2876
 9944TIP3   OH251322   4.493   3.070   0.115 -0.0666  0.3230 -0.1005
 9944TIP3    H151323   4.547   3.058   0.037  1.1861  0.8081  0.6536
 9944TIP3    H251324   4.555   3.064   0.188 -0.9672  1.3180  0.7790
 9945TIP3   OH251325   4.511   4.653   3.080  0.0419 -0.6243  1.5483
 9945TIP3    H151326   4.537   4.714   3.012 -2.3337 -1.7554 -0.5612
 9945TIP3    H251327   4.582   4.589   3.084  0.8178  0.1927  1.0838
 9946TIP3   OH251328   5.211   3.669  11.210  0.0840 -0.1361 -0.3161
 9946TIP3    H151329   5.244   3.626  11.132  2.5698  0.4955  0.2873
 9946TIP3    H251330   5.222   3.762  11.193 -0.0276  0.0397  0.5174
 9947TIP3   OH251331   3.302   3.024   5.049  0.6736 -0.6723 -0.0373
 9947TIP3    H151332   3.280   3.061   4.964 -1.2607  0.6385  0.9587
 9947TIP3    H251333   3.313   3.099   5.106 -1.4761 -1.5356  1.6298
 9948TIP3   OH251334   4.295   4.244  15.383  0.4061  0.4572 -0.7509
 9948TIP3    H151335   4.267   4.274  15.296 -2.0242 -3.1100 -1.4616
 9948TIP3    H251336   4.339   4.160  15.366  1.1732  0.3733  1.3768
 9949TIP3   OH251337   3.330   2.529  12.620  0.6343  0.7043  0.1265
 9949TIP3    H151338   3.305   2.539  12.712  3.2630 -0.1146  1.0082
 9949TIP3    H251339   3.349   2.618  12.591 -1.5928  1.1636 -0.1436
 9950TIP3   OH251340   0.328   5.062   5.584 -0.0640 -0.0685  0.1230
 9950TIP3    H151341   0.420   5.038   5.596 -0.1970  0.1795  1.8566
 9950TIP3    H251342   0.305   5.026   5.498  0.9591 -2.3860  0.7299
 9951TIP3   OH251343   2.234   5.040   1.959  0.2298 -0.9346 -0.1045
 9951TIP3    H151344   2.146   5.022   1.992  1.0264 -3.6678  0.7419
 9951TIP3    H251345   2.258   4.962   1.910  3.4644 -1.8282  2.5455
 9952TIP3   OH251346   5.821   2.130  16.650 -0.1507  0.2403 -0.2226
 9952TIP3    H151347   5.762   2.060  16.677  2.0119 -0.7531  2.4401
 9952TIP3    H251348   5.765   2.206  16.637 -2.2570 -1.2826 -0.5286
 9953TIP3   OH251349   4.137   4.153   5.335 -0.4613 -0.2231  0.1683
 9953TIP3    H151350   4.188   4.233   5.320  0.2167 -0.0570  2.8296
 9953TIP3    H251351   4.087   4.141   5.254  1.2532  1.4984 -1.2584
 9954TIP3   OH251352   3.186   2.765  16.866  0.4076  0.4257  0.2637
 9954TIP3    H151353   3.269   2.719  16.878 -0.1692 -1.0557 -1.0113
 9954TIP3    H251354   3.205   2.831  16.799  0.6488  0.3267  0.2328
 9955TIP3   OH251355   5.972   4.670   1.728 -0.6103  0.4428  0.1204
 9955TIP3    H151356   5.988   4.593   1.674  0.9673 -0.9720  2.4454
 9955TIP3    H251357   5.901   4.644   1.787  0.8438  0.1498  1.8485
 9956TIP3   OH251358   6.407   1.783  14.076  0.2912  0.1242  0.1304
 9956TIP3    H151359   6.421   1.690  14.096  0.3580  0.4089  1.5033
 9956TIP3    H251360   6.312   1.795  14.086  0.4733  0.5351  1.5720
 9957TIP3   OH251361   6.548   5.097   0.688  0.0221 -0.1344  0.6794
 9957TIP3    H151362   6.490   5.137   0.623 -0.6686  3.8103  3.3621
 9957TIP3    H251363   6.630   5.082   0.641 -0.4768  2.3946 -1.2216
 9958TIP3   OH251364   4.083   5.909  10.510 -0.2124 -0.6651  0.3979
 9958TIP3    H151365   3.991   5.896  10.533 -0.6104  0.3188 -0.5276
 9958TIP3    H251366   4.082   5.983  10.449  1.0449 -1.4910 -0.6783
 9959TIP3   OH251367   3.314   1.879  14.948 -0.1664  0.3765 -0.4025
 9959TIP3    H151368   3.331   1.813  15.016  1.3173  0.3820 -0.7351
 9959TIP3    H251369   3.393   1.880  14.895 -0.6967  1.4840 -1.2148
 9960TIP3   OH251370   0.294   4.546   1.358 -0.0684  0.5783 -0.0889
 9960TIP3    H151371   0.342   4.492   1.296  0.5944  2.3424 -1.1584
 9960TIP3    H251372   0.280   4.629   1.313 -2.2149  0.8867  1.0095
 9961TIP3   OH251373   1.555   4.155   2.287  0.1676  0.2019 -0.1804
 9961TIP3    H151374   1.504   4.226   2.248 -0.6172  0.0633  0.5619
 9961TIP3    H251375   1.581   4.189   2.373 -1.4232 -0.8970  0.7865
 9962TIP3   OH251376   2.458   6.328   0.168  0.1455  0.2207 -0.2842
 9962TIP3    H151377   2.422   6.352   0.254  2.1201 -0.1106  0.6835
 9962TIP3    H251378   2.464   6.411   0.121  0.5430  0.6621  0.5163
 9963TIP3   OH251379   3.908   5.500   2.640 -0.8726 -0.2409 -0.1124
 9963TIP3    H151380   3.938   5.585   2.671  0.8532 -1.2036  0.9804
 9963TIP3    H251381   3.817   5.495   2.670 -0.9081  1.0700  0.0742
 9964TIP3   OH251382   6.195   4.675  16.825  0.6474  0.3534  0.4491
 9964TIP3    H151383   6.123   4.727  16.859 -2.7135 -3.3509 -0.2148
 9964TIP3    H251384   6.263   4.681  16.892 -0.8395  2.8293  1.8883
 9965TIP3   OH251385   3.110   3.458  12.939  0.0122  0.2803  0.1868
 9965TIP3    H151386   3.062   3.511  12.875 -2.1868  0.0667  1.5535
 9965TIP3    H251387   3.193   3.438  12.896 -1.7779 -0.8695 -3.1117
 9966TIP3   OH251388   0.522   1.010   3.207  0.0335  0.2061  0.6025
 9966TIP3    H151389   0.510   1.060   3.127  1.2776  0.4851  0.5791
 9966TIP3    H251390   0.433   0.991   3.237 -0.4439  0.5529 -0.5495
 9967TIP3   OH251391   5.130   5.897   3.280  0.5998 -0.0185  0.0073
 9967TIP3    H151392   5.083   5.980   3.282  3.3414  1.8396 -3.3295
 9967TIP3    H251393   5.091   5.849   3.207 -0.7216 -1.6323  1.6866
 9968TIP3   OH251394   0.198   6.579   3.446 -0.5827  0.6706  0.3467
 9968TIP3    H151395   0.242   6.635   3.511 -0.0341 -0.2658  0.8105
 9968TIP3    H251396   0.124   6.542   3.494 -0.7553  0.7453  0.1365
 9969TIP3   OH251397   3.053   2.392  11.831 -0.4647  0.2139  0.0787
 9969TIP3    H151398   3.059   2.458  11.901 -2.4025  0.5500 -0.0385
 9969TIP3    H251399   3.124   2.331  11.852 -0.1142  1.0446  1.5456
 9970TIP3   OH251400   6.079   3.241  15.200  0.0999 -0.3644  0.8222
 9970TIP3    H151401   6.022   3.268  15.128  1.5858  2.6823  0.6152
 9970TIP3    H251402   6.050   3.152  15.222 -3.0827  0.1261 -0.7975
 9971TIP3   OH251403   2.807   1.988   6.597  0.1137  0.3932 -0.3219
 9971TIP3    H151404   2.860   1.910   6.613  0.5758  0.6128 -0.7842
 9971TIP3    H251405   2.827   2.046   6.671 -2.0608 -0.8516  1.4070
 9972TIP3   OH251406   0.976   1.476  12.454  0.4288  0.5558 -0.0378
 9972TIP3    H151407   0.978   1.554  12.398 -1.0927  0.0463 -0.8425
 9972TIP3    H251408   1.025   1.410  12.404  0.4266  0.5550 -0.0388
 9973TIP3   OH251409   0.648   6.434  11.670  0.4437  0.0043 -0.0316
 9973TIP3    H151410   0.608   6.430  11.583 -0.2659 -2.5643  0.3284
 9973TIP3    H251411   0.591   6.493  11.720 -1.8017 -1.9220 -0.1397
 9974TIP3   OH251412   0.924   4.321   5.684 -0.2122 -0.6270  0.3119
 9974TIP3    H151413   0.954   4.236   5.717 -0.3874 -1.4391 -1.4984
 9974TIP3    H251414   0.990   4.345   5.618 -1.3491 -0.4672 -0.8031
 9975TIP3   OH251415   2.345   2.982  12.377 -0.0703  0.3169 -0.5439
 9975TIP3    H151416   2.423   3.015  12.333  0.9400 -1.0052  0.1864
 9975TIP3    H251417   2.378   2.915  12.437 -1.6833  0.2878  0.3642
 9976TIP3   OH251418   6.689   2.621  13.291 -0.0548  0.1934  0.3459
 9976TIP3    H151419   6.707   2.713  13.272  2.0254 -0.2571 -0.1733
 9976TIP3    H251420   6.637   2.622  13.371 -1.5925  1.8600 -0.6076
 9977TIP3   OH251421   0.169   5.799   1.189  0.1114 -0.0847 -0.5787
 9977TIP3    H151422   0.187   5.890   1.214  0.5868  0.0449 -1.3833
 9977TIP3    H251423   0.113   5.806   1.112 -0.2521 -0.4865 -0.3581
 9978TIP3   OH251424   0.483   6.251   1.263 -0.2585 -0.1597 -0.2420
 9978TIP3    H151425   0.535   6.295   1.195  0.2032  0.3442  0.4133
 9978TIP3    H251426   0.412   6.312   1.281 -0.5050 -0.3926 -0.4249
 9979TIP3   OH251427   5.741   4.547   4.014 -0.1104 -0.4021  0.4538
 9979TIP3    H151428   5.784   4.586   3.938 -0.2455 -0.0170  0.5767
 9979TIP3    H251429   5.717   4.459   3.984 -1.6053  0.2911 -0.4955
 9980TIP3   OH251430   4.575   5.761   1.246  0.2699 -0.2374  0.2722
 9980TIP3    H151431   4.537   5.805   1.170  0.7563 -1.2278 -0.5889
 9980TIP3    H251432   4.527   5.679   1.253  0.8362 -0.5605  0.4650
 9981TIP3   OH251433   2.211   2.431  13.804 -0.0423 -0.2546  0.9189
 9981TIP3    H151434   2.147   2.501  13.817 -0.5613 -0.0740 -1.9455
 9981TIP3    H251435   2.277   2.470  13.745 -0.9638 -2.4068 -1.7483
 9982TIP3   OH251436   6.787   6.420   3.219  0.1593 -0.7253  0.2911
 9982TIP3    H151437   6.796   6.497   3.163  0.2542 -1.9049 -1.3885
 9982TIP3    H251438   6.742   6.452   3.297  0.0912  0.9934 -0.4115
 9983TIP3   OH251439   0.961   2.899   3.079  1.1381 -0.1912  0.2374
 9983TIP3    H151440   0.869   2.912   3.054  1.3777 -1.0807 -1.1549
 9983TIP3    H251441   0.979   2.972   3.139 -1.0492 -1.1201  2.1726
 9984TIP3   OH251442   1.332   4.362   1.683  0.0324 -0.4296  0.3149
 9984TIP3    H151443   1.307   4.439   1.633  1.2208  0.3488  0.8569
 9984TIP3    H251444   1.399   4.320   1.629  0.2958 -0.3696  0.5918
 9985TIP3   OH251445   6.727   4.161  12.006 -0.3016  0.0020 -0.6146
 9985TIP3    H151446   6.747   4.118  11.923  0.3479  0.3682 -0.6484
 9985TIP3    H251447   6.778   4.113  12.071 -0.5626 -0.0817 -0.4686
 9986TIP3   OH251448   5.334   0.660   5.822  0.1838 -0.3741 -0.2999
 9986TIP3    H151449   5.333   0.736   5.881  0.1759 -0.4860 -0.1576
 9986TIP3    H251450   5.341   0.584   5.879 -1.1485 -0.5590 -0.3614
 9987TIP3   OH251451   6.215   0.930   0.512 -0.0430 -0.0881  0.2420
 9987TIP3    H151452   6.182   0.974   0.590 -0.4726 -0.7258  0.4265
 9987TIP3    H251453   6.146   0.868   0.488  0.1545 -0.0077 -0.5512
 9988TIP3   OH251454   6.331   0.179  16.969  0.4005 -0.1210  0.0831
 9988TIP3    H151455   6.254   0.170  17.025  0.4672  0.8049  0.3513
 9988TIP3    H251456   6.401   0.207  17.028  0.3076  1.5279 -0.5210
 9989TIP3   OH251457   2.299   3.166   2.416 -0.2765  0.4362 -0.2313
 9989TIP3    H151458   2.219   3.114   2.405  0.4617 -0.9885  0.7625
 9989TIP3    H251459   2.342   3.128   2.493  0.3019  2.5899  0.5827
 9990TIP3   OH251460   1.741   6.283   5.388 -0.7792  0.3951 -0.2713
 9990TIP3    H151461   1.836   6.295   5.383 -0.9918  1.8865 -2.1521
 9990TIP3    H251462   1.725   6.204   5.336 -0.6307  0.7725 -0.9124
 9991TIP3   OH251463   5.969   6.433   4.491 -0.3918 -0.0466 -0.2184
 9991TIP3    H151464   5.968   6.525   4.519  1.6340  0.0733 -0.3730
 9991TIP3    H251465   5.887   6.397   4.526 -0.4563  1.3992  1.2952
 9992TIP3   OH251466   2.163   6.562   2.217  0.2218 -0.1943  0.3201
 9992TIP3    H151467   2.094   6.606   2.167 -0.9033 -2.8259 -0.5962
 9992TIP3    H251468   2.228   6.537   2.151  1.1866  0.6272  0.9246
 9993TIP3   OH251469   1.592   2.249   5.856  0.1042  0.8706  0.2975
 9993TIP3    H151470   1.553   2.310   5.794  0.0464  0.4476 -0.0866
 9993TIP3    H251471   1.518   2.200   5.892  0.1835  0.7909  0.3524
 9994TIP3   OH251472   4.920   5.262   3.211  0.1504  0.2607 -0.0013
 9994TIP3    H151473   5.005   5.240   3.250 -0.0203  0.1127  0.2845
 9994TIP3    H251474   4.943   5.306   3.129  0.5390  1.8434  0.9104
 9995TIP3   OH251475   1.602   4.518   4.662  0.5740 -0.1369 -0.1502
 9995TIP3    H151476   1.557   4.461   4.599  0.2735 -0.4428  0.3302
 9995TIP3    H251477   1.623   4.460   4.736  1.1976  0.1462 -0.0984
 9996TIP3   OH251478   2.239   2.384   5.197  0.9518 -0.2989 -0.4947
 9996TIP3    H151479   2.191   2.360   5.117  0.4000 -0.2542 -0.1825
 9996TIP3    H251480   2.212   2.474   5.215 -0.7337 -1.0604  1.0153
 9997TIP3   OH251481   5.697   0.003  16.343  0.2287 -0.2344 -0.0021
 9997TIP3    H151482   5.701  -0.065  16.276 -0.5109  1.4204 -1.8385
 9997TIP3    H251483   5.784   0.002  16.384  0.7811 -1.1575 -1.1469
 9998TIP3   OH251484   6.421   0.747  15.305 -0.0750 -0.1710  0.1611
 9998TIP3    H151485   6.455   0.820  15.357  0.8172 -0.0543 -0.5627
 9998TIP3    H251486   6.499   0.705  15.270 -0.6722 -0.1345 -1.2498
 9999TIP3   OH251487   0.394   0.332   3.516  0.0666  0.2069  0.4045
 9999TIP3    H151488   0.381   0.353   3.424 -0.5160 -1.7789 -0.0265
 9999TIP3    H251489   0.439   0.247   3.516 -1.2389 -0.5536  1.9067
10000TIP3   OH251490   6.406   5.387  14.993 -0.3088 -0.3843 -0.8422
10000TIP3    H151491   6.405   5.409  14.900 -0.0016  0.6409 -0.6084
10000TIP3    H251492   6.482   5.330  15.003  0.4612  0.6094 -0.9744
10001TIP3   OH251493   2.073   2.113  11.289  0.4880  0.0836 -0.5825
10001TIP3    H151494   2.117   2.134  11.371 -0.3693  2.0479 -0.5626
10001TIP3    H251495   1.999   2.058  11.315  0.3224  0.5462 -0.0575
10002TIP3   OH251496   0.274   2.454  12.324  0.2294  0.0107  0.3584
10002TIP3    H151497   0.256   2.478  12.415 -0.4472 -0.5750  0.3894
10002TIP3    H251498   0.365   2.423  12.326  1.5245  3.3494  0.1243
10003TIP3   OH251499   4.094   5.330  15.831  0.1417  0.0636 -0.2298
10003TIP3    H151500   4.131   5.407  15.789 -1.2372  2.2597  2.2920
10003TIP3    H251501   4.030   5.365  15.894 -1.4308 -3.1971  0.2078
10004TIP3   OH251502   1.192   4.382   3.790  0.6656 -0.5718  0.5400
10004TIP3    H151503   1.138   4.436   3.731  2.2997  0.3908 -0.1214
10004TIP3    H251504   1.142   4.380   3.872 -0.7115 -0.3111 -0.2469
10005TIP3   OH251505   5.147   1.422   0.739  0.1260  0.5330 -0.9312
10005TIP3    H151506   5.121   1.332   0.758 -1.0412  1.0646  0.1377
10005TIP3    H251507   5.101   1.444   0.658 -0.2414  0.4377 -0.7508
10006TIP3   OH251508   4.375   3.283  14.281  0.7564 -0.6113 -0.3174
10006TIP3    H151509   4.418   3.344  14.222 -1.4017  0.9842 -0.3818
10006TIP3    H251510   4.398   3.314  14.369  0.7352 -0.5180 -0.3448
10007TIP3   OH251511   3.047   2.668  12.708  0.4977 -0.5886  0.1484
10007TIP3    H151512   3.024   2.761  12.713  2.4032 -0.0554 -0.3367
10007TIP3    H251513   3.063   2.652  12.615 -0.9670 -1.7516  0.0469
10008TIP3   OH251514   6.652   3.530   0.331  0.0848  0.1722  0.0487
10008TIP3    H151515   6.585   3.586   0.292  1.7173  2.0306 -0.2721
10008TIP3    H251516   6.656   3.558   0.422  0.5462  0.2549  0.0088
10009TIP3   OH251517   6.308   5.752   1.938 -0.1063  0.7389 -0.1779
10009TIP3    H151518   6.337   5.797   2.016  0.8156  0.5785 -0.4157
10009TIP3    H251519   6.368   5.678   1.929  0.4184  1.2893 -1.5543
10010TIP3   OH251520   6.245   5.043  15.801 -0.0243 -0.3766 -0.2965
10010TIP3    H151521   6.269   5.003  15.884 -0.7462 -1.8443 -0.7634
10010TIP3    H251522   6.320   5.098  15.778  0.0520  0.2867  1.4538
10011TIP3   OH251523   6.407   0.458  12.084 -0.8045 -0.7740 -0.3482
10011TIP3    H151524   6.405   0.397  12.011  0.3605 -0.2084 -0.8822
10011TIP3    H251525   6.476   0.425  12.142 -1.3559 -0.9222  0.2442
10012TIP3   OH251526   2.803   4.611  12.813 -0.3109  0.0485  0.3619
10012TIP3    H151527   2.766   4.674  12.752 -1.3553 -0.7910  0.0817
10012TIP3    H251528   2.890   4.591  12.779  0.4779  2.1024  1.0480
10013TIP3   OH251529   0.750   2.614   1.882 -0.6888 -0.1825  0.5221
10013TIP3    H151530   0.803   2.553   1.933 -0.5638  0.1677  0.8125
10013TIP3    H251531   0.699   2.558   1.823 -2.3696 -0.7733  2.4143
10014TIP3   OH251532   1.289   0.090   5.117 -0.5246  0.5096  0.6815
10014TIP3    H151533   1.353   0.152   5.154  0.6949  0.1503 -0.7348
10014TIP3    H251534   1.337   0.045   5.048 -2.8318  1.5500 -1.7936
10015TIP3   OH251535   1.790   4.133  14.634  0.0387  0.5640 -0.2704
10015TIP3    H151536   1.768   4.215  14.679  2.9384  0.4995  1.4942
10015TIP3    H251537   1.854   4.159  14.568  0.1229 -0.1553 -0.4767
10016TIP3   OH251538   0.239   4.349  16.810 -0.3221  0.2389 -0.5757
10016TIP3    H151539   0.275   4.430  16.774 -0.3411 -0.0021 -1.1389
10016TIP3    H251540   0.230   4.367  16.904  0.5362  0.5691 -0.5487
10017TIP3   OH251541   4.809   4.364   5.062 -0.0095 -1.2706  0.2796
10017TIP3    H151542   4.750   4.309   5.114 -0.4088 -1.7695 -0.6776
10017TIP3    H251543   4.772   4.362   4.974  0.2650  0.1246  0.1076
10018TIP3   OH251544   6.398   3.192   3.035 -0.3411 -0.0254  0.4914
10018TIP3    H151545   6.400   3.236   3.120 -0.8055 -0.0283  0.5031
10018TIP3    H251546   6.362   3.106   3.052 -0.3578 -0.0563  0.3054
10019TIP3   OH251547   4.302   4.609  17.085 -0.9701  0.2792 -0.7970
10019TIP3    H151548   4.272   4.625  17.175  1.1526  0.3562 -0.0250
10019TIP3    H251549   4.277   4.687  17.037 -1.6637  0.4720 -0.1494
10020TIP3   OH251550   5.383   6.738  13.379 -0.7567  0.2944  0.1022
10020TIP3    H151551   5.328   6.666  13.347  1.1444 -0.8698 -0.7293
10020TIP3    H251552   5.447   6.696  13.435 -0.3426  1.5354  0.5885
10021TIP3   OH251553   2.388   0.418  15.492  0.2702 -0.7362 -0.1768
10021TIP3    H151554   2.417   0.488  15.434  2.4461 -1.4239 -0.0266
10021TIP3    H251555   2.319   0.373  15.443  1.3902 -0.7175 -1.8437
10022TIP3   OH251556   5.268   5.440   1.852 -0.3350  0.5286 -0.5229
10022TIP3    H151557   5.360   5.416   1.842  0.2378  2.7744 -1.2673
10022TIP3    H251558   5.228   5.421   1.767 -0.0468  1.5276 -0.8874
10023TIP3   OH251559   4.568   3.856   0.712  0.0091  0.0544  0.6811
10023TIP3    H151560   4.518   3.863   0.794  1.0946  0.2957  1.3486
10023TIP3    H251561   4.508   3.886   0.644 -1.2047 -0.9383  1.2646
10024TIP3   OH251562   4.271   5.777   5.841  0.1683  0.5120  0.1332
10024TIP3    H151563   4.232   5.841   5.781 -1.3924  0.7911  1.3843
10024TIP3    H251564   4.201   5.715   5.858  1.5600 -1.3953 -0.7985
10025TIP3   OH251565   5.482   4.630   4.085  0.0655 -0.7406  0.1766
10025TIP3    H151566   5.566   4.653   4.045  0.1600 -1.5147 -0.0901
10025TIP3    H251567   5.439   4.714   4.101  0.8092 -0.3458  0.1403
10026TIP3   OH251568   1.104   3.616  12.545 -0.2668 -0.0757 -0.4716
10026TIP3    H151569   1.128   3.699  12.504 -1.0219  0.9890  1.1138
10026TIP3    H251570   1.012   3.603  12.521 -0.2103 -0.3497 -0.5477
10027TIP3   OH251571   4.938   6.469   0.564 -0.4844 -0.1163  0.3829
10027TIP3    H151572   5.031   6.466   0.540 -0.6178 -0.8620 -0.0825
10027TIP3    H251573   4.924   6.559   0.594 -0.0957  0.6728 -1.5864
10028TIP3   OH251574   1.391   6.294   2.383  0.1210  0.5840  0.0342
10028TIP3    H151575   1.323   6.310   2.317 -0.8959 -0.1370  0.8618
10028TIP3    H251576   1.374   6.358   2.451  1.5563  1.7399 -0.6461
10029TIP3   OH251577   0.920   5.873  10.404 -0.3962  0.1949  0.0197
10029TIP3    H151578   0.925   5.823  10.323 -0.8772  0.2610 -0.0537
10029TIP3    H251579   1.011   5.887  10.430 -0.1759 -2.7822  1.3076
10030TIP3   OH251580   3.024   5.070   5.042  0.2151  0.5312 -0.5207
10030TIP3    H151581   3.029   5.155   5.086 -0.7680  0.7754 -0.8495
10030TIP3    H251582   3.045   5.089   4.951 -0.8986  0.6023 -0.7812
10031TIP3   OH251583   2.980   0.044  12.677  0.4543 -0.4110  0.1390
10031TIP3    H151584   2.939  -0.009  12.746  0.8585 -0.7428  0.1244
10031TIP3    H251585   2.923   0.120  12.669  0.7623 -0.0338  1.3104
10032TIP3   OH251586   0.470   5.203   1.062  0.2012  0.0792 -0.2454
10032TIP3    H151587   0.543   5.161   1.017  0.6861  0.4588  0.1629
10032TIP3    H251588   0.430   5.260   0.996 -0.1945 -0.6891 -0.6777
10033TIP3   OH251589   6.032   6.582  16.050  0.7200  0.2319  0.0357
10033TIP3    H151590   6.123   6.581  16.079  0.6450  0.7569  0.2881
10033TIP3    H251591   5.999   6.494  16.073  1.2837 -0.1164 -0.4696
10034TIP3   OH251592   3.603   3.894   6.366 -0.4202 -0.6292  0.0226
10034TIP3    H151593   3.592   3.800   6.348 -0.6383 -0.5689 -0.1756
10034TIP3    H251594   3.681   3.900   6.419 -0.3354 -0.9153 -0.0691
10035TIP3   OH251595   5.634   1.809  15.724  0.2419 -0.5328 -0.3530
10035TIP3    H151596   5.582   1.848  15.794  0.6151 -1.9126  0.7298
10035TIP3    H251597   5.598   1.721  15.713 -0.5145 -0.0035 -2.6648
10036TIP3   OH251598   4.186   3.566  15.456  0.1042  0.4919 -0.2231
10036TIP3    H151599   4.156   3.487  15.503 -2.6256  0.5997 -1.5871
10036TIP3    H251600   4.265   3.537  15.410 -0.3746 -1.2218 -0.0621
10037TIP3   OH251601   0.929   6.664   2.584  0.3571  0.4617  0.5921
10037TIP3    H151602   0.916   6.592   2.646 -0.6647 -0.5127 -0.7032
10037TIP3    H251603   0.909   6.627   2.499 -0.7635  2.4077 -0.0720
10038TIP3   OH251604   5.440   6.713   2.127 -0.0599 -0.0050 -0.6054
10038TIP3    H151605   5.518   6.672   2.165 -0.0497  1.0652  0.6206
10038TIP3    H251606   5.430   6.672   2.042  1.4330 -0.6792 -0.4885
10039TIP3   OH251607   6.215   1.996   5.110  0.1959  0.0181 -0.1425
10039TIP3    H151608   6.139   2.054   5.106  0.0423 -0.2060 -3.0974
10039TIP3    H251609   6.179   1.909   5.125  0.0939  0.2003  0.6957
10040TIP3   OH251610   6.738   2.351   0.061 -0.3004  0.3330 -0.1414
10040TIP3    H151611   6.748   2.403  -0.018 -0.4184  0.2091 -0.2392
10040TIP3    H251612   6.804   2.282   0.055  0.3516  0.9067  0.3443
10041TIP3   OH251613   1.356   1.030  12.700 -0.2939 -0.4936  0.0176
10041TIP3    H151614   1.333   0.939  12.679 -0.8047 -0.2980 -0.2847
10041TIP3    H251615   1.307   1.082  12.636  1.0976 -0.0645 -0.7384
10042TIP3   OH251616   4.477   3.182  14.883  0.2956 -0.1463 -0.1297
10042TIP3    H151617   4.529   3.248  14.928  0.5506 -0.0710 -0.5254
10042TIP3    H251618   4.392   3.223  14.869  0.8414  0.5900 -1.4970
10043TIP3   OH251619   6.140   2.884  13.355  0.7435  0.4148  0.3668
10043TIP3    H151620   6.179   2.846  13.277 -0.8744 -1.9770  0.6255
10043TIP3    H251621   6.153   2.979  13.345  1.6098  0.0989 -2.1753
10044TIP3   OH251622   2.619   0.800  11.441  0.2636 -0.9417 -0.0875
10044TIP3    H151623   2.605   0.868  11.507  0.7124  0.5952 -1.4896
10044TIP3    H251624   2.551   0.735  11.458 -1.9532  1.1642 -0.2902
10045TIP3   OH251625   4.382   2.504   5.269  0.2040 -0.0666  0.2821
10045TIP3    H151626   4.454   2.567   5.261  0.3056 -0.2832 -0.5751
10045TIP3    H251627   4.422   2.420   5.248 -0.3354 -0.1633 -0.3946
10046TIP3   OH251628   3.189   3.870  12.975 -0.0523  0.4407 -0.1580
10046TIP3    H151629   3.126   3.844  12.908 -1.1687 -0.9557  1.3714
10046TIP3    H251630   3.243   3.937  12.932 -2.0547  1.1266 -1.7685
10047TIP3   OH251631   3.289   3.730   0.331 -0.7918  0.3195 -0.1997
10047TIP3    H151632   3.352   3.800   0.315 -2.4682  2.1286  0.6363
10047TIP3    H251633   3.204   3.774   0.334 -1.9671 -1.7953  0.1855
10048TIP3   OH251634   6.349   4.535   5.179  0.0179  0.5974  0.0263
10048TIP3    H151635   6.324   4.529   5.087  0.7623  2.6876 -0.3434
10048TIP3    H251636   6.273   4.575   5.222  0.4001  1.4174 -0.0423
10049TIP3   OH251637   1.239   5.829   4.104  0.2756  0.7050 -0.5424
10049TIP3    H151638   1.260   5.744   4.066 -0.2037  0.4909 -0.3395
10049TIP3    H251639   1.190   5.874   4.035 -2.4431 -0.4693  0.4622
10050TIP3   OH251640   6.582   6.397  12.818 -0.7636  0.4855  0.1276
10050TIP3    H151641   6.648   6.398  12.886  0.2137  0.7264 -0.7966
10050TIP3    H251642   6.545   6.309  12.822  0.1453  0.0912  0.1660
10051TIP3   OH251643   2.535   1.591   4.528 -0.4319  0.0516 -0.6311
10051TIP3    H151644   2.529   1.681   4.560  0.4939 -0.4868  1.2135
10051TIP3    H251645   2.463   1.545   4.570  0.3405 -0.5056  0.1191
10052TIP3   OH251646   5.808   2.759   0.749  0.3489  0.1360  0.3656
10052TIP3    H151647   5.741   2.720   0.805 -0.3033  0.8060  0.0709
10052TIP3    H251648   5.849   2.826   0.804  1.6567 -1.0942  0.9645
10053TIP3   OH251649   0.148   4.884  14.728  0.5501 -0.8794 -0.0868
10053TIP3    H151650   0.054   4.893  14.712  0.7806 -0.2856 -1.2659
10053TIP3    H251651   0.166   4.946  14.799 -0.0973 -1.7154  0.8311
10054TIP3   OH251652   6.526   4.878   4.810 -0.2821 -0.4032 -0.2961
10054TIP3    H151653   6.602   4.933   4.790  0.4440 -1.5754 -0.8474
10054TIP3    H251654   6.547   4.836   4.893 -0.8496  0.1640  0.1414
10055TIP3   OH251655   3.156   5.472  13.053  0.1473 -0.5534  0.9540
10055TIP3    H151656   3.208   5.462  12.973  0.8815 -1.0351  1.4722
10055TIP3    H251657   3.154   5.384  13.091 -0.9918 -0.5252  0.9879
10056TIP3   OH251658   6.013   5.030   6.157 -0.6185  0.3159 -0.1932
10056TIP3    H151659   6.005   5.104   6.097 -0.4595 -1.3981 -2.4369
10056TIP3    H251660   5.953   4.964   6.122 -0.2683 -0.9050  1.3703
10057TIP3   OH251661   3.489   2.685  16.941 -0.0526 -0.8370  0.1751
10057TIP3    H151662   3.515   2.729  17.022 -2.8758  2.0570 -0.2851
10057TIP3    H251663   3.569   2.680  16.889  1.2370 -0.1524  2.0076
10058TIP3   OH251664   6.565   1.747  15.719  0.9252  0.4177 -0.6687
10058TIP3    H151665   6.469   1.744  15.718  0.9421 -0.1924 -1.7995
10058TIP3    H251666   6.592   1.658  15.744  1.2225  1.1199  1.8434
10059TIP3   OH251667   3.943   0.061  15.568  0.0786 -0.4944 -0.2890
10059TIP3    H151668   4.027   0.104  15.587 -0.5429  0.3434  0.6537
10059TIP3    H251669   3.945  -0.019  15.620  0.5306 -0.7796 -0.7319
10060TIP3   OH251670   0.492   3.824  13.900 -0.3757  0.3215  0.2167
10060TIP3    H151671   0.455   3.898  13.949  0.2884  0.2013  0.9250
10060TIP3    H251672   0.423   3.758  13.902 -0.3651  0.3166  1.0126
10061TIP3   OH251673   6.168   6.558  11.787 -0.2270  0.1029  0.2228
10061TIP3    H151674   6.101   6.615  11.750 -0.0591 -0.7355 -1.4851
10061TIP3    H251675   6.122   6.475  11.804  0.3826 -0.5778 -1.2450
10062TIP3   OH251676   5.153   6.682   3.900 -0.2468  0.3219 -0.3289
10062TIP3    H151677   5.162   6.628   3.821 -0.4936  0.9716 -0.8141
10062TIP3    H251678   5.071   6.652   3.940  0.7744 -1.2659  0.6912
10063TIP3   OH251679   2.747   4.203   0.798 -0.2874  0.4473 -0.3427
10063TIP3    H151680   2.684   4.181   0.867  1.0556 -1.5504  0.3261
10063TIP3    H251681   2.744   4.299   0.793 -2.9588  0.4532  0.0043
10064TIP3   OH251682   3.664   1.745   5.031 -0.4176 -0.1873 -0.2118
10064TIP3    H151683   3.595   1.811   5.038 -0.6087  0.1952 -3.7235
10064TIP3    H251684   3.619   1.661   5.046 -0.7040  0.2619  1.6764
10065TIP3   OH251685   5.114   0.052  14.956  0.5328 -0.7415  0.2247
10065TIP3    H151686   5.204   0.044  14.987  0.5593 -0.8367  0.1255
10065TIP3    H251687   5.078   0.125  15.005  1.1633  0.3790 -0.9101
10066TIP3   OH251688   0.935   5.922  13.195 -0.1127 -0.3618 -0.1730
10066TIP3    H151689   0.877   5.866  13.143  0.4858  0.1470 -1.4279
10066TIP3    H251690   0.883   6.001  13.212 -0.3234 -0.5458  0.0488
10067TIP3   OH251691   2.735   2.756  15.778 -0.1754 -0.2926 -0.0275
10067TIP3    H151692   2.818   2.776  15.821  0.0899 -1.9085  0.2487
10067TIP3    H251693   2.691   2.841  15.772  0.7368  0.3221  1.4078
10068TIP3   OH251694   1.117   0.452   1.387 -0.1703  0.1516  0.3006
10068TIP3    H151695   1.155   0.540   1.389 -0.1771  0.1811 -0.5189
10068TIP3    H251696   1.028   0.465   1.354 -0.0904 -0.1802 -0.0573
10069TIP3   OH251697   1.225   1.316  14.226  0.2547 -0.2624 -0.4111
10069TIP3    H151698   1.193   1.320  14.136 -2.5216  1.1189  0.5146
10069TIP3    H251699   1.307   1.365  14.225  0.2186 -0.1584 -2.1252
10070TIP3   OH251700   1.174   1.200   3.006  0.4698 -0.2391  0.0487
10070TIP3    H151701   1.079   1.197   2.994  0.1273 -0.1810  2.3464
10070TIP3    H251702   1.190   1.159   3.090  2.3490  0.9812  0.3687
10071TIP3   OH251703   5.999   1.409  11.397  1.0127 -0.1422 -0.1978
10071TIP3    H151704   6.052   1.361  11.461  0.6215 -1.0085 -0.5047
10071TIP3    H251705   5.979   1.492  11.439  1.4071 -0.3940  0.4980
10072TIP3   OH251706   1.457   3.353  15.627  0.3643 -0.9336  0.2062
10072TIP3    H151707   1.504   3.291  15.572  1.2321 -0.2157  0.1111
10072TIP3    H251708   1.372   3.364  15.585 -0.1224 -2.6622  0.6673
10073TIP3   OH251709   6.787   2.601  15.931  0.0431  0.5544 -0.0985
10073TIP3    H151710   6.837   2.674  15.894 -1.3034  1.6794  0.1915
10073TIP3    H251711   6.853   2.545  15.971  1.1296  1.6574 -0.2627
10074TIP3   OH251712   1.771   0.363   0.721 -0.4172  0.1869 -0.7109
10074TIP3    H151713   1.805   0.442   0.681  0.2904  0.8649  1.1115
10074TIP3    H251714   1.676   0.377   0.726 -0.5853 -0.1047 -2.4364
10075TIP3   OH251715   2.683   6.481   1.113 -0.1246 -0.2582 -0.5090
10075TIP3    H151716   2.694   6.521   1.199  0.7311 -1.2347 -0.1488
10075TIP3    H251717   2.757   6.422   1.104 -1.8726 -2.5747 -0.5826
10076TIP3   OH251718   5.008   0.239   0.759  0.4772 -0.3116 -0.0407
10076TIP3    H151719   5.088   0.290   0.751 -0.2563  1.2862  2.0079
10076TIP3    H251720   5.027   0.175   0.828  0.3343 -0.6658 -0.3262
10077TIP3   OH251721   6.404   0.152   1.180 -0.0321 -0.4233  0.8509
10077TIP3    H151722   6.319   0.145   1.223  0.2440  0.0494  1.4867
10077TIP3    H251723   6.445   0.067   1.194 -0.8801 -1.1034 -0.5359
10078TIP3   OH251724   2.127   5.356  14.011  0.4014  0.6256  0.1394
10078TIP3    H151725   2.094   5.338  13.923  1.7116  0.6090 -0.3797
10078TIP3    H251726   2.221   5.369  13.999  0.7186 -0.0699  1.6462
10079TIP3   OH251727   4.153   4.746   5.691  0.0617  0.3528 -0.0048
10079TIP3    H151728   4.127   4.796   5.613 -2.0189  0.3654  0.6302
10079TIP3    H251729   4.129   4.655   5.669 -0.8755  0.4082  0.7243
10080TIP3   OH251730   5.461   0.730   3.681  0.3679  0.8704  0.6220
10080TIP3    H151731   5.423   0.653   3.724 -2.1621  2.1465  0.7990
10080TIP3    H251732   5.443   0.717   3.588  0.2978  1.0603  0.6088
10081TIP3   OH251733   1.934   6.276  16.425 -0.1691 -0.4445  0.3968
10081TIP3    H151734   1.931   6.287  16.330 -0.6879 -0.7593  0.3717
10081TIP3    H251735   2.025   6.250  16.443  1.3375  4.0393  0.5320
10082TIP3   OH251736   3.572   4.312  10.629  0.0612  0.2470 -0.4581
10082TIP3    H151737   3.565   4.325  10.534 -1.5687 -0.4670 -0.4673
10082TIP3    H251738   3.638   4.243  10.638 -3.2662 -3.5077 -1.5327
10083TIP3   OH251739   3.775   5.672  11.435  0.2713 -0.8410  0.2146
10083TIP3    H151740   3.766   5.661  11.529  2.5546  4.0765  1.3166
10083TIP3    H251741   3.870   5.673  11.419  0.1609  2.7235 -1.2063
10084TIP3   OH251742   2.219   6.502   4.140 -0.1333  0.0652 -0.2072
10084TIP3    H151743   2.146   6.441   4.129 -0.4275  0.5835 -1.2739
10084TIP3    H251744   2.259   6.477   4.224 -1.2876 -0.4677  0.2020
10085TIP3   OH251745   5.543   6.201   2.947 -0.6083 -0.2243  0.4983
10085TIP3    H151746   5.494   6.122   2.969 -1.4325  0.3640  0.8082
10085TIP3    H251747   5.524   6.216   2.854  0.6613 -1.1482  0.0528
10086TIP3   OH251748   2.274   2.887  11.820 -0.0251 -0.1192  0.5231
10086TIP3    H151749   2.240   2.863  11.734  0.2495  1.6575 -0.1158
10086TIP3    H251750   2.198   2.923  11.867  0.0847  0.0242  0.5909
10087TIP3   OH251751   6.202   6.092   4.949 -0.0164 -0.1079 -0.4407
10087TIP3    H151752   6.252   6.174   4.947  1.0335 -0.7447 -1.0647
10087TIP3    H251753   6.217   6.058   5.037  2.7288 -1.5015 -1.3483
10088TIP3   OH251754   2.241   5.187  11.255  0.3587  0.4206 -0.6639
10088TIP3    H151755   2.214   5.144  11.337  0.2835  2.1436  0.2536
10088TIP3    H251756   2.168   5.243  11.232  1.3487  1.8064 -0.5560
10089TIP3   OH251757   5.634   5.333  16.703 -0.6748 -0.4269 -0.2714
10089TIP3    H151758   5.581   5.332  16.623 -0.2530  1.3816 -0.6109
10089TIP3    H251759   5.724   5.329  16.671 -0.5039  0.3785  0.0884
10090TIP3   OH251760   1.675   0.866  15.814 -0.7471 -0.4996 -0.0101
10090TIP3    H151761   1.628   0.925  15.873 -0.6672  0.1540 -0.5941
10090TIP3    H251762   1.655   0.898  15.726  1.8430  0.6479 -0.2794
10091TIP3   OH251763   3.216   5.886   4.707  0.1810  0.4806 -0.3535
10091TIP3    H151764   3.155   5.892   4.634 -0.9065  0.9242  0.5688
10091TIP3    H251765   3.251   5.974   4.717 -1.3144  0.9792  0.9946
10092TIP3   OH251766   3.236   0.294   3.260  0.0283  0.5676 -0.1785
10092TIP3    H151767   3.193   0.221   3.215  0.5510  0.9053 -1.2340
10092TIP3    H251768   3.317   0.308   3.212  1.0285  0.3864  1.3852
10093TIP3   OH251769   3.236   5.954   3.245 -0.0087  0.0596 -0.8305
10093TIP3    H151770   3.232   6.045   3.218 -0.3836  0.3575  0.1885
10093TIP3    H251771   3.176   5.908   3.186 -0.9740  0.7270 -0.3923
10094TIP3   OH251772   2.805   4.642  14.040 -0.3842 -0.4548 -0.1670
10094TIP3    H151773   2.748   4.580  14.084  0.2461  0.2034  1.6870
10094TIP3    H251774   2.877   4.588  14.006 -0.6828 -0.9354 -0.0483
10095TIP3   OH251775   6.567   4.320   1.551  0.0166 -0.3838 -0.4463
10095TIP3    H151776   6.614   4.322   1.468 -1.0755  0.7246 -1.0751
10095TIP3    H251777   6.504   4.249   1.541 -0.7299  0.3280 -0.9470
10096TIP3   OH251778   2.123   0.058  12.107  0.3726 -0.6890 -0.4133
10096TIP3    H151779   2.045   0.112  12.097 -0.0142 -1.2188 -0.2820
10096TIP3    H251780   2.193   0.121  12.124 -0.4647 -0.3463  2.0862
10097TIP3   OH251781   6.201   4.783  16.380 -0.1934  0.8187 -0.0960
10097TIP3    H151782   6.266   4.731  16.333 -0.8406 -0.0402 -0.0462
10097TIP3    H251783   6.243   4.869  16.390  0.2095  0.8323 -1.6726
10098TIP3   OH251784   1.848   1.349   4.556  0.2200 -0.0324 -0.0687
10098TIP3    H151785   1.896   1.267   4.568 -3.5402 -2.3377  1.1590
10098TIP3    H251786   1.791   1.332   4.481 -1.8249  0.7408  1.2212
10099TIP3   OH251787   5.402   3.694   3.301 -0.0250  0.3337  0.4294
10099TIP3    H151788   5.387   3.737   3.385  1.2167  0.3627  0.6551
10099TIP3    H251789   5.464   3.623   3.321 -0.0396  0.0774 -0.3936
10100TIP3   OH251790   5.872   6.787  15.918  0.0770  0.2120  0.0492
10100TIP3    H151791   5.914   6.725  15.978 -0.1663 -0.2608 -0.2657
10100TIP3    H251792   5.933   6.861  15.915  0.0742  0.2665  0.9138
10101TIP3   OH251793   1.317   4.398   2.656 -0.1175  0.1131 -0.4869
10101TIP3    H151794   1.267   4.338   2.712 -1.8334  2.0277  0.1804
10101TIP3    H251795   1.250   4.457   2.620  1.6156  2.7341  0.3086
10102TIP3   OH251796   1.961   1.374  16.719 -0.0200 -0.0305 -0.0246
10102TIP3    H151797   2.027   1.431  16.680 -0.3737  1.0961  0.9853
10102TIP3    H251798   1.888   1.432  16.742  0.3276 -0.4962  2.6715
10103TIP3   OH251799   5.978   5.375  15.884 -0.1693 -0.2997  0.4128
10103TIP3    H151800   5.988   5.406  15.973 -1.1543 -0.7414  0.6935
10103TIP3    H251801   5.886   5.351  15.877 -0.7697  2.1083 -1.4867
10104TIP3   OH251802   1.265   6.804  10.961 -0.0489  0.4273  0.0309
10104TIP3    H151803   1.342   6.750  10.947 -0.1260  0.6042 -1.1132
10104TIP3    H251804   1.263   6.864  10.887 -1.7393 -0.1048 -0.4001
10105TIP3   OH251805   6.461   5.835  14.160 -0.7082  0.1411  0.0501
10105TIP3    H151806   6.436   5.771  14.093 -0.7053  0.4759 -0.2745
10105TIP3    H251807   6.529   5.887  14.118  0.2327 -0.4712  0.7619
10106TIP3   OH251808   1.989   0.494  12.582 -0.2932 -0.0551  0.5739
10106TIP3    H151809   2.024   0.445  12.656 -0.1325  1.6182  1.6665
10106TIP3    H251810   2.065   0.537  12.543 -0.6330  0.6373  0.6624
10107TIP3   OH251811   0.533   3.712  12.272  0.0270 -0.4657 -0.5293
10107TIP3    H151812   0.450   3.674  12.244  0.7301 -0.7780 -2.3180
10107TIP3    H251813   0.599   3.672  12.215  1.7219 -1.7567  2.1099
10108TIP3   OH251814   6.114   4.906  13.237  0.0008  0.2146 -0.0911
10108TIP3    H151815   6.134   4.839  13.172  2.4907 -0.0222  0.8123
10108TIP3    H251816   6.067   4.859  13.306 -0.7959  0.0300 -0.7453
10109TIP3   OH251817   5.309   2.307  15.108 -0.4021 -0.6358  0.1066
10109TIP3    H151818   5.237   2.301  15.171  0.8533 -1.2777  1.5488
10109TIP3    H251819   5.336   2.216  15.095  0.2126 -0.3904 -0.3538
10110TIP3   OH251820   0.812   2.707  12.932  0.1436  0.7366  0.3462
10110TIP3    H151821   0.803   2.741  12.843 -1.2127  0.4010  0.3369
10110TIP3    H251822   0.888   2.649  12.928 -1.5171 -1.4589 -1.2986
10111TIP3   OH251823   5.689   4.177   0.889  0.4982  0.2890 -0.0813
10111TIP3    H151824   5.654   4.258   0.927  1.0350  1.2119 -1.4595
10111TIP3    H251825   5.712   4.123   0.965 -1.0974  0.8589  0.8710
10112TIP3   OH251826   3.270   6.018  15.886 -0.1196  0.1543  0.5782
10112TIP3    H151827   3.258   6.111  15.866 -0.7603  0.1116  0.7335
10112TIP3    H251828   3.302   6.016  15.976 -1.2579  0.1879  0.9997
10113TIP3   OH251829   4.044   4.985  14.435 -0.3995  0.4210  0.1362
10113TIP3    H151830   4.012   5.025  14.354 -1.0161 -2.1372 -0.9771
10113TIP3    H251831   4.101   4.913  14.405 -1.3403 -1.1421  1.9279
10114TIP3   OH251832   0.462   0.249   5.811  0.3884  0.2956 -0.3628
10114TIP3    H151833   0.496   0.294   5.888 -0.8084  2.1331 -0.8365
10114TIP3    H251834   0.535   0.247   5.749  0.6907  0.9338 -0.0344
10115TIP3   OH251835   3.802   4.882   0.963 -0.0257 -0.2613 -0.0492
10115TIP3    H151836   3.801   4.792   0.932 -0.4767  0.0455 -0.9643
10115TIP3    H251837   3.714   4.897   0.997  0.2899 -0.4083  0.8672
10116TIP3   OH251838   4.552   0.019   1.539  0.2643 -0.7428 -0.4514
10116TIP3    H151839   4.500  -0.057   1.563  1.0466 -1.1671 -0.0445
10116TIP3    H251840   4.581   0.002   1.449 -0.6598 -0.2913 -0.8447
10117TIP3   OH251841   5.297   4.752   2.257 -0.1655  0.2503 -0.0085
10117TIP3    H151842   5.326   4.663   2.277 -2.2810 -0.2638  0.9829
10117TIP3    H251843   5.202   4.748   2.262 -0.3187  2.5389 -0.1538
10118TIP3   OH251844   0.463   0.504  12.997 -0.3932  0.2941  0.0216
10118TIP3    H151845   0.497   0.532  12.913 -0.4554 -0.1212 -0.1430
10118TIP3    H251846   0.371   0.531  12.996 -0.0929  1.3836  0.4524
10119TIP3   OH251847   4.989   3.516  16.612 -0.5396  0.1241  0.4796
10119TIP3    H151848   5.006   3.607  16.640 -1.5364  0.8664 -1.2073
10119TIP3    H251849   4.901   3.498  16.644 -1.2264  0.5701 -1.0741
10120TIP3   OH251850   2.780   1.991  13.457  0.1350  0.7677  0.1367
10120TIP3    H151851   2.700   1.965  13.504 -0.7357  0.8517 -1.2477
10120TIP3    H251852   2.835   2.031  13.524 -1.2283  1.2296  1.0194
10121TIP3   OH251853   3.189   6.537  16.865 -0.4931 -0.3291 -0.1738
10121TIP3    H151854   3.191   6.599  16.793 -1.0730  0.1489  0.2132
10121TIP3    H251855   3.161   6.588  16.941  0.4047 -0.7492  0.4703
10122TIP3   OH251856   5.926   3.766   3.130  0.3961 -0.2649  0.1517
10122TIP3    H151857   5.969   3.749   3.214  2.0311  0.8692 -0.4014
10122TIP3    H251858   5.965   3.847   3.099  0.1408 -0.8687 -1.9122
10123TIP3   OH251859   4.669   6.442   3.167 -0.2813  0.7663  0.0897
10123TIP3    H151860   4.751   6.458   3.214  0.3986  0.3109 -0.9054
10123TIP3    H251861   4.611   6.402   3.233  0.8554 -0.4587  0.3921
10124TIP3   OH251862   6.620   3.250   5.562 -0.0590 -0.2773  0.2712
10124TIP3    H151863   6.676   3.260   5.485 -1.7491  0.4273 -0.9477
10124TIP3    H251864   6.678   3.262   5.636  1.5036 -0.2193 -0.9091
10125TIP3   OH251865   3.843   5.661  16.297 -0.1709 -0.3383  0.1962
10125TIP3    H151866   3.914   5.699  16.246  0.1718 -2.0694 -0.6917
10125TIP3    H251867   3.843   5.711  16.379  1.1057  0.6466 -0.3781
10126TIP3   OH251868   3.874   3.176   4.507 -0.3087  0.4547 -0.4086
10126TIP3    H151869   3.863   3.125   4.427  0.6451  0.6396 -0.6829
10126TIP3    H251870   3.925   3.120   4.565  0.3512  0.9042 -0.5392
10127TIP3   OH251871   6.800   4.381  12.262 -0.4316 -0.0648 -0.0333
10127TIP3    H151872   6.707   4.402  12.257 -0.5279  0.7109  2.9404
10127TIP3    H251873   6.841   4.435  12.194 -1.8978  1.6559  0.3700
10128TIP3   OH251874   6.543   1.222  15.766  0.3371  0.2909 -0.0142
10128TIP3    H151875   6.569   1.135  15.735  0.4029  0.9565 -1.9242
10128TIP3    H251876   6.623   1.258  15.805  0.8723  0.2493 -1.0258
10129TIP3   OH251877   0.538   1.203   3.005  0.2439 -0.4046  0.3955
10129TIP3    H151878   0.557   1.251   3.086  3.3632  0.8907 -0.9658
10129TIP3    H251879   0.529   1.270   2.938  1.5108 -1.5712 -1.0083
10130TIP3   OH251880   4.729   1.883   4.859  0.5266  0.2786  0.3391
10130TIP3    H151881   4.777   1.800   4.859  1.5471  0.8483  0.8970
10130TIP3    H251882   4.699   1.894   4.769  1.8264  0.1118 -0.1293
10131TIP3   OH251883   5.734   2.430   4.390 -0.4398  0.0814 -0.0437
10131TIP3    H151884   5.692   2.349   4.359 -0.5657  0.0436  0.2219
10131TIP3    H251885   5.742   2.418   4.485  1.1304 -0.3526 -0.2152
10132TIP3   OH251886   1.139   0.522   0.179 -0.1335 -1.0229 -0.0731
10132TIP3    H151887   1.195   0.483   0.246  1.5271 -0.4960 -1.0901
10132TIP3    H251888   1.132   0.454   0.112 -0.0925 -0.8226 -0.2819
10133TIP3   OH251889   2.122   3.727  13.215  0.5769  0.1613 -0.7518
10133TIP3    H151890   2.052   3.675  13.176 -0.0585  0.6480 -0.2773
10133TIP3    H251891   2.160   3.670  13.282 -0.1482  0.3194 -0.2030
10134TIP3   OH251892   3.606   0.969   6.541  0.1912 -0.1255  0.4444
10134TIP3    H151893   3.512   0.966   6.523  0.4765  1.3573 -1.6871
10134TIP3    H251894   3.634   0.878   6.531 -0.5222 -0.1376 -2.3500
10135TIP3   OH251895   0.936   0.341   5.198 -0.1669 -0.5572 -0.4018
10135TIP3    H151896   0.935   0.298   5.284  1.1348 -1.9561 -1.0284
10135TIP3    H251897   0.918   0.433   5.217  0.2710 -0.7943  1.3910
10136TIP3   OH251898   1.611   0.611   2.679  0.0107 -0.0902 -0.0484
10136TIP3    H151899   1.581   0.690   2.634 -2.1546 -0.9394 -0.2256
10136TIP3    H251900   1.534   0.582   2.728  0.4934 -2.5478 -0.6512
10137TIP3   OH251901   1.112   4.714  15.990  0.4085  0.4071  0.0045
10137TIP3    H151902   1.049   4.725  15.919  0.8816  1.3660 -0.2808
10137TIP3    H251903   1.195   4.697  15.946  0.2547 -1.5998  0.3877
10138TIP3   OH251904   0.958   1.125   4.397 -0.5269  0.0745 -0.0542
10138TIP3    H151905   0.989   1.078   4.320  2.4988  2.3677 -0.4242
10138TIP3    H251906   0.916   1.204   4.363  0.5136  0.9314  0.5605
10139TIP3   OH251907   1.166   0.093   5.661 -0.1308 -0.6463 -0.3142
10139TIP3    H151908   1.245   0.135   5.695  0.4568 -0.9477 -1.2570
10139TIP3    H251909   1.176   0.000   5.683  0.1531 -0.8092 -1.0906
10140TIP3   OH251910   4.190   5.084  10.512 -0.3978  0.3284  0.5102
10140TIP3    H151911   4.261   5.146  10.494 -0.6709  1.2788  2.4081
10140TIP3    H251912   4.110   5.129  10.485 -0.3285 -0.7450 -1.6327
10141TIP3   OH251913   4.028   2.892   5.421  0.5650  0.3309  0.2351
10141TIP3    H151914   4.112   2.890   5.468  0.9470 -0.4731 -0.4556
10141TIP3    H251915   3.987   2.808   5.442  0.0984  0.5636  0.2608
10142TIP3   OH251916   0.967   5.403   3.266  0.3813 -0.6620  0.5588
10142TIP3    H151917   0.888   5.432   3.219 -0.0339 -1.0311  1.0260
10142TIP3    H251918   1.039   5.448   3.221  0.2057 -2.4265 -1.6629
10143TIP3   OH251919   3.756   6.487  12.388  0.1062  0.1890  0.1252
10143TIP3    H151920   3.709   6.570  12.374 -0.8871 -0.2355  0.8012
10143TIP3    H251921   3.798   6.469  12.304 -1.3005  0.3707 -0.6504
10144TIP3   OH251922   6.037   5.609   1.978  0.0528  0.7921  0.5144
10144TIP3    H151923   6.012   5.629   2.067 -0.4545  0.2119  0.5087
10144TIP3    H251924   6.124   5.647   1.968  0.3311  0.4166  1.4205
10145TIP3   OH251925   5.510   3.076   5.543 -0.3074  0.6000  0.2329
10145TIP3    H151926   5.590   3.109   5.583 -0.3025  1.5793 -0.5496
10145TIP3    H251927   5.533   3.060   5.452 -1.9445  4.8486 -1.1498
10146TIP3   OH251928   2.689   4.713  15.218 -0.8360 -0.5240 -0.1899
10146TIP3    H151929   2.691   4.773  15.143  0.7693  0.9457  0.9452
10146TIP3    H251930   2.763   4.654  15.203 -0.9487 -0.6860 -0.1107
10147TIP3   OH251931   5.565   2.902   3.504 -0.2012  0.6995  0.1243
10147TIP3    H151932   5.614   2.920   3.584  0.6812 -1.4553  0.1421
10147TIP3    H251933   5.503   2.975   3.496  0.8542  1.8365  1.8205
10148TIP3   OH251934   5.650   5.130  13.188 -0.3345 -0.2637 -0.2467
10148TIP3    H151935   5.714   5.113  13.258 -0.9597 -0.9102  0.1800
10148TIP3    H251936   5.598   5.203  13.221  0.7524  0.9012 -1.0000
10149TIP3   OH251937   3.158   0.241  13.704 -0.0030  0.4314 -0.2262
10149TIP3    H151938   3.135   0.247  13.797 -1.4339 -0.3990 -0.4977
10149TIP3    H251939   3.177   0.148  13.691  0.0675  0.5242 -0.7919
10150TIP3   OH251940   4.874   4.365  16.443 -0.3948  0.0639  0.1562
10150TIP3    H151941   4.861   4.271  16.431  0.7332 -0.4142  2.1949
10150TIP3    H251942   4.786   4.402  16.445 -0.8554 -0.9497 -0.5238
10151TIP3   OH251943   2.268   1.057   6.220  0.0134  0.7682  0.5295
10151TIP3    H151944   2.306   1.080   6.135  0.9029 -0.6199  0.5151
10151TIP3    H251945   2.185   1.105   6.223  1.1201  2.8397 -0.0099
10152TIP3   OH251946   3.446   1.940  13.307 -0.1045  0.6303 -0.2862
10152TIP3    H151947   3.382   1.982  13.250  0.5206  1.4813 -0.3862
10152TIP3    H251948   3.412   1.954  13.396 -0.5005  0.2995 -0.3832
10153TIP3   OH251949   5.277   0.736  12.946 -0.2813  0.2902 -0.1650
10153TIP3    H151950   5.271   0.647  12.980 -2.1756  0.4514  0.0331
10153TIP3    H251951   5.243   0.730  12.857 -1.6876  0.9926  0.2804
10154TIP3   OH251952   0.768   2.012  12.214  0.0309 -0.0388  0.3421
10154TIP3    H151953   0.829   2.039  12.283  0.6429  1.2372 -0.6523
10154TIP3    H251954   0.825   1.983  12.142 -0.5089  0.9870 -0.5267
10155TIP3   OH251955   4.392   3.698   3.775 -0.0942  0.1356  0.0109
10155TIP3    H151956   4.318   3.717   3.833  1.1057  1.7047  1.1418
10155TIP3    H251957   4.399   3.775   3.720  0.6752  0.0016 -0.0898
10156TIP3   OH251958   6.297   2.438   4.337  0.4821 -0.3724  0.2819
10156TIP3    H151959   6.371   2.386   4.308 -0.4651 -1.1961 -0.7266
10156TIP3    H251960   6.256   2.468   4.256 -0.8920 -0.8064  0.7953
10157TIP3   OH251961   1.956   4.533   1.228 -0.1122 -0.2825 -0.4611
10157TIP3    H151962   1.980   4.481   1.151  1.1166 -1.5502  0.7135
10157TIP3    H251963   1.892   4.596   1.196 -0.3806 -1.4314 -2.3044
10158TIP3   OH251964   0.048   1.042  16.253  0.1748  0.6964 -0.2437
10158TIP3    H151965   0.053   0.989  16.333  0.2032 -0.3609 -0.9393
10158TIP3    H251966   0.077   1.129  16.281 -0.5436  0.5391  1.0741
10159TIP3   OH251967   1.099   0.361   2.026  0.3071  0.2454  0.3114
10159TIP3    H151968   1.108   0.271   2.059 -1.5305 -0.3341 -0.6079
10159TIP3    H251969   1.007   0.382   2.040  0.8715  2.3187  1.2016
10160TIP3   OH251970   1.594   2.286  14.037 -0.4266 -0.5157  0.5531
10160TIP3    H151971   1.504   2.314  14.050 -0.6952 -0.4677 -1.1253
10160TIP3    H251972   1.644   2.332  14.104 -1.7614 -1.4087  2.2552
10161TIP3   OH251973   3.376   4.750   5.871 -0.1739  0.3980 -0.0355
10161TIP3    H151974   3.408   4.679   5.815  1.8783 -0.6680  2.2730
10161TIP3    H251975   3.281   4.750   5.857 -0.2746 -2.8491 -0.1700
10162TIP3   OH251976   0.801   6.403  16.293  0.3978  0.7105 -0.2670
10162TIP3    H151977   0.821   6.372  16.205  0.6787  1.0065 -0.3083
10162TIP3    H251978   0.883   6.392  16.342  0.1872  0.3614  0.0111
10163TIP3   OH251979   0.230   5.827   5.900 -0.0319  0.3161  0.4293
10163TIP3    H151980   0.168   5.784   5.958 -0.7510  0.7320 -0.0146
10163TIP3    H251981   0.178   5.891   5.852  0.5785  0.0914 -0.5618
10164TIP3   OH251982   0.729   0.035  11.008  0.1337  0.4832 -0.0093
10164TIP3    H151983   0.793  -0.028  11.039 -1.5074 -0.4392  1.7185
10164TIP3    H251984   0.675  -0.013  10.945  0.5842  1.0082 -0.8165
10165TIP3   OH251985   5.209   2.508  14.971 -0.4501  0.1294 -0.0149
10165TIP3    H151986   5.136   2.459  14.935 -0.5917  0.2879  0.0539
10165TIP3    H251987   5.256   2.446  15.025 -1.4490  0.4297  1.2342
10166TIP3   OH251988   1.231   6.750   0.144 -0.3731 -0.0444 -0.3495
10166TIP3    H151989   1.229   6.846   0.136 -0.7420 -0.0166  0.0451
10166TIP3    H251990   1.156   6.720   0.092  0.7237 -0.2366 -1.8958
10167TIP3   OH251991   3.908   1.466   3.207 -0.2266  0.0660 -0.4711
10167TIP3    H151992   3.919   1.408   3.282 -2.9227  0.0769  0.0126
10167TIP3    H251993   3.826   1.513   3.224 -0.3250  0.9227 -2.8834
10168TIP3   OH251994   4.455   6.690  13.347 -0.0564 -0.0240 -0.0266
10168TIP3    H151995   4.478   6.725  13.261 -0.6821 -1.1626 -0.6704
10168TIP3    H251996   4.473   6.596  13.341 -1.5627 -0.3720  0.5684
10169TIP3   OH251997   6.669   3.850   4.439  0.1899 -0.0781 -0.2124
10169TIP3    H151998   6.581   3.848   4.403 -1.1204  0.0577  2.6906
10169TIP3    H251999   6.668   3.923   4.502  2.0534 -0.6640  0.5849
10170TIP3   OH252000   3.932   3.311  12.400  0.0879 -0.1665  0.1490
10170TIP3    H152001   3.932   3.234  12.343 -0.5849  0.4484 -0.7058
10170TIP3    H252002   4.007   3.362  12.371  1.7606 -1.3947  2.0277
10171TIP3   OH252003   1.470   0.062   0.676  0.2627 -0.0849  0.2435
10171TIP3    H152004   1.504   0.124   0.740  0.5921  0.6025 -0.5841
10171TIP3    H252005   1.409   0.008   0.725 -0.0293  0.8935  0.9802
10172TIP3   OH252006   1.124   4.006   2.762  0.1638  0.4984  0.3945
10172TIP3    H152007   1.204   3.989   2.811  1.5357  0.4258 -1.7567
10172TIP3    H252008   1.055   4.009   2.829  1.9869  0.9734  2.3373
10173TIP3   OH252009   0.992   1.906  16.468 -0.1963 -0.3981 -0.3133
10173TIP3    H152010   1.027   1.983  16.514 -0.2952  0.2731 -1.3275
10173TIP3    H252011   1.039   1.905  16.385 -0.1072 -1.5251 -0.2595
10174TIP3   OH252012   5.609   5.844  14.107 -0.0219 -0.2558  0.9461
10174TIP3    H152013   5.676   5.911  14.091 -0.6679  0.2151  0.1694
10174TIP3    H252014   5.543   5.888  14.160  0.0291 -0.5719  1.2736
10175TIP3   OH252015   3.415   1.698  13.199  0.1753  0.2617 -0.1713
10175TIP3    H152016   3.404   1.786  13.235 -0.7813 -0.0635  0.3562
10175TIP3    H252017   3.497   1.703  13.150  0.3028  1.3557  0.1185
10176TIP3   OH252018   6.484   1.126   5.830  0.2933  0.0088  0.1972
10176TIP3    H152019   6.424   1.091   5.764  1.7123 -1.5844 -0.3234
10176TIP3    H252020   6.439   1.202   5.866 -1.0063  0.2464 -1.8121
10177TIP3   OH252021   0.181   6.667   3.193 -0.4268  0.2422  0.2200
10177TIP3    H152022   0.253   6.730   3.201 -1.5864  1.4818  1.6424
10177TIP3    H252023   0.191   6.611   3.270  1.3263 -2.2217 -1.6699
10178TIP3   OH252024   3.102   6.544  16.128  0.8698 -0.6763 -0.5926
10178TIP3    H152025   3.102   6.639  16.119  1.4717 -0.5924  0.2117
10178TIP3    H252026   3.189   6.523  16.159  0.2377 -1.3326  0.8261
10179TIP3   OH252027   0.819   0.527  16.110  0.5664 -0.0303 -0.4051
10179TIP3    H152028   0.784   0.472  16.040  0.0083 -0.3872  0.1477
10179TIP3    H252029   0.887   0.475  16.150  0.1578 -0.2531  0.0044
10180TIP3   OH252030   4.710   1.229  17.130 -0.3489 -0.1399 -0.3147
10180TIP3    H152031   4.652   1.165  17.170  1.0656 -2.0564 -1.1657
10180TIP3    H252032   4.783   1.177  17.095  0.9090  1.9477 -0.9937
10181TIP3   OH252033   3.456   2.394   4.056  0.4859  0.1810  0.4389
10181TIP3    H152034   3.389   2.384   3.988  0.8001  3.3575 -0.4811
10181TIP3    H252035   3.539   2.394   4.008  0.7896  1.2398  0.9414
10182TIP3   OH252036   0.290   4.318   3.892  0.1584  0.0408  0.3190
10182TIP3    H152037   0.231   4.250   3.857  0.4405  0.3880 -0.8716
10182TIP3    H252038   0.378   4.287   3.870  0.3470  0.2321  0.8044
10183TIP3   OH252039   2.201   1.240   4.803  0.1147 -0.8699 -0.1758
10183TIP3    H152040   2.272   1.236   4.868 -1.5471 -0.9735  1.7563
10183TIP3    H252041   2.193   1.151   4.770  0.5647 -0.9676 -0.0194
10184TIP3   OH252042   5.185   3.925  16.748 -0.4457  0.1894 -0.0750
10184TIP3    H152043   5.223   3.838  16.759 -1.4743 -0.6796 -2.5689
10184TIP3    H252044   5.216   3.954  16.663 -1.3120  1.6191  0.0720
10185TIP3   OH252045   5.987   2.018   3.355  0.4143 -0.6643  0.5910
10185TIP3    H152046   5.923   2.076   3.396  1.4533 -0.3231  1.7990
10185TIP3    H252047   6.013   2.064   3.275 -0.1737 -0.3874  0.5476
10186TIP3   OH252048   4.829   4.178  12.607  0.3351 -0.3400 -0.4266
10186TIP3    H152049   4.825   4.269  12.577 -0.7606 -0.0190  0.6001
10186TIP3    H252050   4.875   4.182  12.690 -1.9125 -0.3009  0.9047
10187TIP3   OH252051   4.424   0.025  12.646 -0.5754  0.2550 -0.9126
10187TIP3    H152052   4.462   0.052  12.563 -0.7873 -1.6739 -1.6800
10187TIP3    H252053   4.487   0.054  12.712  2.0605 -2.2553 -2.0799
10188TIP3   OH252054   3.112   5.821   3.477  0.6396 -0.2364  0.4036
10188TIP3    H152055   3.105   5.861   3.564  1.1128 -1.3220  0.9615
10188TIP3    H252056   3.161   5.885   3.425  2.0410 -0.3835  1.4867
10189TIP3   OH252057   1.585   3.143   2.920 -0.4301  0.0800  0.5709
10189TIP3    H152058   1.618   3.128   2.832  0.1054 -0.8051  0.8989
10189TIP3    H252059   1.499   3.101   2.922  0.0075 -0.8412  0.7591
10190TIP3   OH252060   5.716   3.410  11.771  0.4953  0.6611 -0.2523
10190TIP3    H152061   5.639   3.418  11.713  0.5648 -0.0308 -0.4474
10190TIP3    H252062   5.730   3.499  11.803  0.1128  0.9555 -0.8667
10191TIP3   OH252063   3.029   5.992  11.870 -0.4589 -0.1081 -0.3626
10191TIP3    H152064   2.970   5.991  11.946 -0.1932  0.9475 -0.1192
10191TIP3    H252065   3.113   6.020  11.906 -0.6744  1.8537 -1.2459
10192TIP3   OH252066   0.728   5.113  11.501  0.5079 -0.7238 -0.1376
10192TIP3    H152067   0.664   5.050  11.533  0.3917  0.0662  1.2255
10192TIP3    H252068   0.675   5.183  11.462  0.5272 -0.1810  0.7843
10193TIP3   OH252069   3.064   4.807   0.687  0.1448  0.3302  0.0282
10193TIP3    H152070   3.152   4.827   0.655 -0.2044  0.5460 -0.8382
10193TIP3    H252071   3.007   4.869   0.641 -0.3524  0.8821  1.3378
10194TIP3   OH252072   6.289   1.951   3.037 -0.1397 -0.4381 -0.5727
10194TIP3    H152073   6.278   1.856   3.024  0.0212 -0.5622  0.1392
10194TIP3    H252074   6.376   1.970   3.003  0.5144 -0.8612  0.7748
10195TIP3   OH252075   0.032   6.341  14.091  0.5207  0.3417 -0.1748
10195TIP3    H152076   0.051   6.282  14.165 -0.8048 -2.0634 -1.6361
10195TIP3    H252077  -0.055   6.375  14.109  0.6700  0.6899 -0.0919
10196TIP3   OH252078   0.425   2.695   1.526  0.3907 -0.7978 -0.3211
10196TIP3    H152079   0.358   2.754   1.492 -1.0907 -2.0781  0.2229
10196TIP3    H252080   0.442   2.634   1.454  0.2576 -1.0550 -0.1353
10197TIP3   OH252081   2.761   1.718   3.899  0.4936  0.0111  0.3484
10197TIP3    H152082   2.747   1.806   3.863 -1.3629 -0.1689  0.5408
10197TIP3    H252083   2.785   1.665   3.823  0.3271  0.4163  0.0065
10198TIP3   OH252084   5.382   5.334  15.069 -0.4606  0.1103 -0.2380
10198TIP3    H152085   5.317   5.299  15.009 -1.5842 -0.1025  1.0568
10198TIP3    H252086   5.334   5.398  15.122  0.6562  0.7732  0.0070
10199TIP3   OH252087   1.317   1.566   5.311  0.0472  0.2695  0.2782
10199TIP3    H152088   1.253   1.546   5.380 -0.6287 -1.4749 -0.7647
10199TIP3    H252089   1.287   1.649   5.274 -0.8199  0.1698  0.7230
10200TIP3   OH252090   0.101   4.430   0.068  0.4053 -0.0516 -0.7087
10200TIP3    H152091   0.036   4.500   0.079  1.7171  0.8288  2.6676
10200TIP3    H252092   0.051   4.357   0.031 -2.3228  0.8839  0.8290
10201TIP3   OH252093   3.446   2.399   1.409  0.5714  0.0686  0.0789
10201TIP3    H152094   3.486   2.475   1.366  2.1955  0.6200  2.3937
10201TIP3    H252095   3.354   2.402   1.383  0.9528  1.8545 -1.2082
10202TIP3   OH252096   0.323   5.518   3.332  0.0552  0.1039  0.0170
10202TIP3    H152097   0.409   5.553   3.354  0.8730 -0.8471 -1.5490
10202TIP3    H252098   0.334   5.423   3.337 -0.1476 -0.1288 -2.6692
10203TIP3   OH252099   2.442   0.886   4.128 -0.6160 -0.1701 -0.3583
10203TIP3    H152100   2.434   0.974   4.092 -0.7569 -0.9672 -2.3859
10203TIP3    H252101   2.520   0.889   4.184 -1.0641  1.4080  0.2279
10204TIP3   OH252102   6.011   1.864   6.095  0.2898 -0.1167  0.5377
10204TIP3    H152103   5.989   1.828   6.181 -3.3498 -0.4525 -0.3609
10204TIP3    H252104   6.015   1.788   6.037  0.8994  0.2601  0.0671
10205TIP3   OH252105   3.420   0.612   1.054 -0.2346  0.0677 -0.3113
10205TIP3    H152106   3.503   0.564   1.056 -1.0772 -1.4460  0.4187
10205TIP3    H252107   3.433   0.685   1.115  0.4731 -0.3331  0.0375
10206TIP3   OH252108   4.049   0.674   0.419 -0.0890 -0.9127 -0.5407
10206TIP3    H152109   4.001   0.713   0.493 -1.7650 -0.3938 -1.8267
10206TIP3    H252110   4.073   0.749   0.365 -0.7076 -1.4031 -1.5339
10207TIP3   OH252111   0.168   5.878   0.628 -0.2682 -0.6721 -0.3508
10207TIP3    H152112   0.153   5.883   0.534  0.6293  1.6074 -0.4253
10207TIP3    H252113   0.241   5.817   0.638  1.2546  0.9348 -1.3630
10208TIP3   OH252114   0.934   5.157  16.394  0.1040  0.1138 -0.7564
10208TIP3    H152115   0.917   5.245  16.361  3.2452  1.0441 -0.1974
10208TIP3    H252116   1.019   5.163  16.436 -0.9540 -2.4736  2.1584
10209TIP3   OH252117   4.776   4.462   6.164 -1.0565  0.1549  0.4337
10209TIP3    H152118   4.686   4.481   6.191 -0.8078 -1.0508  2.2622
10209TIP3    H252119   4.775   4.368   6.143 -0.3338  0.2471 -0.0637
10210TIP3   OH252120   5.225   2.530   1.463  0.1876 -0.0208  0.0948
10210TIP3    H152121   5.251   2.439   1.458 -0.4916 -0.1655 -1.3548
10210TIP3    H252122   5.152   2.538   1.401 -0.2333  1.3452  0.7123
10211TIP3   OH252123   4.919   6.817  15.520 -0.9364 -0.3011 -0.8179
10211TIP3    H152124   4.998   6.811  15.467 -0.3977 -0.7918  0.0188
10211TIP3    H252125   4.942   6.773  15.602 -1.3254  1.5267  0.3220
10212TIP3   OH252126   5.427   5.960   0.054 -0.0946 -0.0949  0.3681
10212TIP3    H152127   5.438   5.868   0.029  1.8430  0.0910  0.3472
10212TIP3    H252128   5.507   5.981   0.103 -0.8909  1.3503  1.1156
10213TIP3   OH252129   6.564   0.924   5.103 -0.1435 -0.4885 -0.0962
10213TIP3    H152130   6.563   0.972   5.020 -3.1431 -1.3564 -0.6923
10213TIP3    H252131   6.578   0.992   5.169  0.6677  0.4556 -1.1958
10214TIP3   OH252132   5.045   2.315  14.146 -0.0160  0.0418 -0.4266
10214TIP3    H152133   5.080   2.304  14.057  1.7385  1.1839  0.0648
10214TIP3    H252134   4.990   2.238  14.160  1.8869 -1.6001 -1.4784
10215TIP3   OH252135   5.510   3.089  13.792 -0.0227 -0.3633 -0.8487
10215TIP3    H152136   5.436   3.108  13.734  0.1174  0.0410 -0.8969
10215TIP3    H252137   5.570   3.162  13.780  1.3673 -1.6770 -2.3694
10216TIP3   OH252138   4.638   1.511  14.742 -0.2866 -0.0440  0.4362
10216TIP3    H152139   4.617   1.442  14.805  0.3778  0.6508  1.4460
10216TIP3    H252140   4.690   1.574  14.792  0.5203  0.3726 -0.8913
10217TIP3   OH252141   3.050   4.094  11.998  0.0856 -0.3774 -0.0915
10217TIP3    H152142   2.985   4.088  11.928 -0.6579  0.9555  0.4530
10217TIP3    H252143   3.134   4.085  11.953 -0.4487 -1.6837 -0.8598
10218TIP3   OH252144   3.022   1.132   1.543 -0.6377 -0.3916  0.3546
10218TIP3    H152145   3.088   1.131   1.612 -1.5714  1.8783  1.3781
10218TIP3    H252146   2.955   1.193   1.574 -1.7254 -0.2688 -1.9978
10219TIP3   OH252147   1.863   2.881  16.079 -0.2383  0.6608  0.4725
10219TIP3    H152148   1.771   2.895  16.057 -0.3573  2.4351  1.8779
10219TIP3    H252149   1.860   2.813  16.147 -0.3175 -0.7041 -0.8597
10220TIP3   OH252150   0.388   6.049  15.037 -0.0277 -0.0553 -0.0895
10220TIP3    H152151   0.427   6.043  15.124  0.3567  1.6783 -0.1049
10220TIP3    H252152   0.325   6.121  15.045 -1.4814 -1.2029 -0.7249
10221TIP3   OH252153   2.346   3.003   4.584 -0.5335  0.6224 -0.0147
10221TIP3    H152154   2.263   2.963   4.610 -0.5599 -0.6229 -1.8422
10221TIP3    H252155   2.368   2.961   4.501  1.7327  1.2228  0.2192
10222TIP3   OH252156   6.158   4.140  16.300  0.3022 -0.3275  0.5114
10222TIP3    H152157   6.148   4.092  16.382 -2.5102 -0.1718  0.3591
10222TIP3    H252158   6.135   4.231  16.322  1.4777  0.1369 -0.0729
10223TIP3   OH252159   0.911   3.357  15.437  0.1857  0.1205  0.0680
10223TIP3    H152160   0.996   3.343  15.478  0.6713  4.2964  0.9105
10223TIP3    H252161   0.931   3.396  15.352 -0.9234 -0.9346 -0.7112
10224TIP3   OH252162   5.035   0.108  10.711  0.1285 -0.0924 -0.0322
10224TIP3    H152163   5.047   0.014  10.697 -1.8480 -0.6472  1.5356
10224TIP3    H252164   4.947   0.125  10.676  0.3646  1.1293 -0.0544
10225TIP3   OH252165   1.084   2.272  15.922 -0.6302 -0.0148 -0.1759
10225TIP3    H152166   1.050   2.334  15.858 -1.1542 -0.2928 -0.1678
10225TIP3    H252167   1.087   2.321  16.004 -2.8937 -0.5365  0.2743
10226TIP3   OH252168   4.104   6.190   1.577  0.4208 -0.0847  0.5565
10226TIP3    H152169   4.063   6.200   1.491 -0.9923 -0.1236  1.1976
10226TIP3    H252170   4.175   6.128   1.562 -0.2798 -0.6813 -0.4483
10227TIP3   OH252171   0.441   6.024   1.930  0.0523 -0.0653 -0.2944
10227TIP3    H152172   0.435   5.946   1.876 -0.1006  0.0948 -0.5138
10227TIP3    H252173   0.515   6.008   1.988 -0.0058 -0.3893 -0.3076
10228TIP3   OH252174   1.245   2.701   0.230  0.0570 -0.2532 -0.0056
10228TIP3    H152175   1.151   2.700   0.251  0.1875 -0.1857  0.6059
10228TIP3    H252176   1.275   2.786   0.261  0.1062  0.1733 -1.2068
10229TIP3   OH252177   3.321   5.457  12.814 -0.1842  0.2824  0.3346
10229TIP3    H152178   3.393   5.502  12.857  0.3579  1.4240 -1.6401
10229TIP3    H252179   3.312   5.501  12.730 -1.6203 -1.3984 -0.4618
10230TIP3   OH252180   4.894   5.788   4.926  0.4115  0.2487 -0.3167
10230TIP3    H152181   4.838   5.723   4.884  2.4111 -1.4247 -0.5510
10230TIP3    H252182   4.844   5.870   4.919 -1.6899 -1.0035 -1.0481
10231TIP3   OH252183   6.445   5.976  16.765  0.5036  0.1374 -0.4822
10231TIP3    H152184   6.423   6.016  16.849  2.8962  0.8577 -0.1078
10231TIP3    H252185   6.523   6.023  16.736  2.3803 -2.9370 -0.9610
10232TIP3   OH252186   5.019   1.376   6.950  0.3807 -0.5389  0.0426
10232TIP3    H152187   5.010   1.449   7.012 -2.7763  0.6305 -1.5601
10232TIP3    H252188   5.104   1.392   6.907  1.4340  0.0668  2.1869
10233TIP3   OH252189   0.629   2.915  10.975 -0.3254 -0.4818  0.4967
10233TIP3    H152190   0.623   2.824  10.946  0.6696 -0.5643  0.5178
10233TIP3    H252191   0.602   2.966  10.899  0.3907 -0.7604  0.0471
10234TIP3   OH252192   0.688   2.464   3.404 -0.0997  0.1648 -0.6555
10234TIP3    H152193   0.718   2.542   3.358  0.8336  2.0137  2.7603
10234TIP3    H252194   0.612   2.493   3.454  1.2002 -0.5796  1.9112
10235TIP3   OH252195   1.240   6.009  14.655  0.0403  0.3317 -0.6124
10235TIP3    H152196   1.236   5.946  14.584 -2.4844 -0.1120 -0.1703
10235TIP3    H252197   1.283   6.086  14.617 -0.8168 -0.0574 -2.4569
10236TIP3   OH252198   3.763   4.076  10.770 -0.5917 -0.1412  0.0662
10236TIP3    H152199   3.848   4.047  10.736 -1.5760 -2.1088 -0.8501
10236TIP3    H252200   3.728   4.000  10.816 -1.4945  0.9167  1.1818
10237TIP3   OH252201   2.092   0.222   3.976 -0.0571  0.3227 -0.2441
10237TIP3    H152202   2.052   0.155   4.032 -0.7080  2.9663  2.7791
10237TIP3    H252203   2.017   0.271   3.941  0.3867  1.4766  0.3616
10238TIP3   OH252204   5.938   0.786   0.540  0.6812  0.4754 -0.0300
10238TIP3    H152205   5.877   0.727   0.585  0.1421  1.8566  1.1148
10238TIP3    H252206   5.910   0.783   0.448 -1.0033  0.9180  0.4424
10239TIP3   OH252207   2.116   1.434  10.856 -0.9504 -0.5719  0.2293
10239TIP3    H152208   2.023   1.413  10.852 -1.1193  0.2110 -0.1227
10239TIP3    H252209   2.122   1.507  10.917 -0.6518 -0.2297 -0.2000
10240TIP3   OH252210   4.235   2.946  14.697  0.0886 -0.3623 -0.5334
10240TIP3    H152211   4.328   2.967  14.699  0.1937 -0.4945  3.4836
10240TIP3    H252212   4.230   2.860  14.656  1.9928 -1.1336  0.7412
10241TIP3   OH252213   2.875   4.947   0.557 -0.0236  0.3248 -0.1176
10241TIP3    H152214   2.939   5.016   0.577 -0.8175  0.7312  1.1791
10241TIP3    H252215   2.840   4.971   0.471 -0.0307  1.3577  0.1571
10242TIP3   OH252216   4.583   2.708   5.192 -0.1765  0.1950  0.0391
10242TIP3    H152217   4.603   2.631   5.138 -0.1313 -0.9926  1.6948
10242TIP3    H252218   4.537   2.768   5.132 -1.3390 -1.6286 -0.9768
10243TIP3   OH252219   5.696   0.138  16.635  0.1564  0.2396 -0.1479
10243TIP3    H152220   5.775   0.117  16.585 -0.8053  1.1239 -2.1726
10243TIP3    H252221   5.672   0.226  16.605 -0.0940  1.1374  2.4579
10244TIP3   OH252222   4.773   4.105   3.514  0.0639 -0.4882 -0.1012
10244TIP3    H152223   4.791   4.199   3.512 -1.1327 -0.2260  0.3516
10244TIP3    H252224   4.681   4.098   3.489  0.3695 -1.6249 -0.9903
10245TIP3   OH252225   0.821   0.305   2.021 -0.0226  0.1049  0.0621
10245TIP3    H152226   0.754   0.364   1.985 -0.3267 -0.4313 -0.2700
10245TIP3    H252227   0.785   0.218   2.006  0.3757 -0.1588  0.6459
10246TIP3   OH252228   5.011   1.186   4.247  0.2291 -0.1947  0.5783
10246TIP3    H152229   4.965   1.145   4.174  0.3547  1.2589 -0.3707
10246TIP3    H252230   5.068   1.251   4.205 -0.3399  1.2905  2.0282
10247TIP3   OH252231   4.349   4.804   0.332  0.1218  0.6404  0.1608
10247TIP3    H152232   4.430   4.764   0.302  0.8491  1.6260  0.7474
10247TIP3    H252233   4.354   4.894   0.301 -1.0543  0.5509 -0.3436
10248TIP3   OH252234   2.593   0.854  14.709  0.1581  0.2182 -0.2249
10248TIP3    H152235   2.581   0.820  14.620 -1.5466 -1.4285  0.5670
10248TIP3    H252236   2.505   0.853  14.747  0.5779  2.4869  0.9654
10249TIP3   OH252237   6.434   5.429  15.939  0.8256  0.0553 -0.0043
10249TIP3    H152238   6.500   5.402  16.003  1.8533 -0.8036 -1.3661
10249TIP3    H252239   6.389   5.503  15.980  2.1853  0.2306  1.2453
10250TIP3   OH252240   1.967   4.084  12.145  0.0726 -0.9974 -0.3826
10250TIP3    H152241   2.035   4.017  12.139  1.4542 -0.0567  2.4996
10250TIP3    H252242   1.885   4.036  12.151  1.0556 -2.5759  2.0799
10251TIP3   OH252243   1.677   2.061   2.104  0.1778  0.2824 -0.5511
10251TIP3    H152244   1.590   2.072   2.143  0.2926  3.7297 -0.9757
10251TIP3    H252245   1.736   2.106   2.164  1.9656 -2.7935  0.2343
10252TIP3   OH252246   6.230   6.400   4.526 -0.2103 -0.4777 -0.1606
10252TIP3    H152247   6.136   6.417   4.521 -0.2476 -0.3946  0.6686
10252TIP3    H252248   6.238   6.326   4.586  0.3534  0.7001  1.2819
10253TIP3   OH252249   6.732   5.339   1.696 -0.1544 -0.3940 -0.5108
10253TIP3    H152250   6.802   5.403   1.684 -0.7034  0.2360 -0.4547
10253TIP3    H252251   6.776   5.259   1.726  0.4530  0.2608  0.4121
10254TIP3   OH252252   4.300   3.121  12.484  0.2592  0.7362  0.1554
10254TIP3    H152253   4.265   3.122  12.574 -0.9659 -2.1649 -0.1598
10254TIP3    H252254   4.222   3.117  12.429  0.9058  4.3442 -1.2964
10255TIP3   OH252255   0.072   3.125   3.308  0.4181  0.5418 -0.2035
10255TIP3    H152256   0.001   3.112   3.246 -2.2978  0.0554  2.7665
10255TIP3    H252257   0.068   3.217   3.331  1.1442  0.6316 -0.3876
10256TIP3   OH252258   1.345   0.011  16.986  0.0803  0.0602 -0.2539
10256TIP3    H152259   1.403  -0.057  17.021  0.1699  0.6040  0.6866
10256TIP3    H252260   1.259  -0.031  16.983  0.1970 -0.2040  0.0088
10257TIP3   OH252261   5.801   3.275  14.553 -0.2611 -0.7590  0.1311
10257TIP3    H152262   5.814   3.360  14.511 -2.7305  0.4055  1.4958
10257TIP3    H252263   5.877   3.265  14.610  0.5263  0.0751 -0.7296
10258TIP3   OH252264   2.242   0.959  11.209 -0.0906  0.4297 -0.1992
10258TIP3    H152265   2.271   0.867  11.214 -1.6139 -0.2902 -2.7594
10258TIP3    H252266   2.155   0.959  11.248 -1.0001  0.2450 -2.0892
10259TIP3   OH252267   2.591   5.099   5.918 -0.1402  0.3095 -0.7417
10259TIP3    H152268   2.624   5.010   5.906 -0.4668 -0.0194  0.6214
10259TIP3    H252269   2.532   5.093   5.993  0.6712  1.8685  0.0782
10260TIP3   OH252270   1.303   2.893   3.586 -0.4628 -0.2126 -0.2005
10260TIP3    H152271   1.215   2.884   3.621 -0.1644 -0.7068  0.4375
10260TIP3    H252272   1.332   2.803   3.570  0.0812 -0.0741 -0.0107
10261TIP3   OH252273   3.530   1.969  10.819  0.1003  0.1001 -0.8945
10261TIP3    H152274   3.463   1.951  10.884  1.2808 -0.5107  0.1941
10261TIP3    H252275   3.495   2.043  10.769  0.0024  1.9761  1.7344
10262TIP3   OH252276   3.949   1.579   4.033  0.1160 -0.0011 -1.0457
10262TIP3    H152277   3.880   1.544   4.089  1.1538 -0.0647  0.2463
10262TIP3    H252278   4.003   1.633   4.092  1.7134 -0.7322 -1.7794
10263TIP3   OH252279   0.135   0.270   4.542 -0.3632  0.6077  0.0356
10263TIP3    H152280   0.076   0.259   4.617 -1.6307  1.2744 -0.8201
10263TIP3    H252281   0.203   0.330   4.574 -0.4683  0.2960  0.8700
10264TIP3   OH252282   1.932   1.316  14.754  0.1808  0.2362  0.5883
10264TIP3    H152283   1.941   1.324  14.849  1.2446 -0.8341  0.6040
10264TIP3    H252284   1.957   1.225  14.735  0.8234  0.6693 -0.7914
10265TIP3   OH252285   1.860   5.635  10.452 -0.6346  0.1211  0.0515
10265TIP3    H152286   1.801   5.694  10.403 -0.3679 -0.4428 -0.9830
10265TIP3    H252287   1.807   5.557  10.468 -0.4029 -0.0945 -0.2300
10266TIP3   OH252288   3.227   1.399   5.227 -0.3899 -0.0932 -0.4336
10266TIP3    H152289   3.291   1.433   5.290 -0.1435  3.1640 -2.2550
10266TIP3    H252290   3.278   1.337   5.174  0.5359  0.4101 -0.1663
10267TIP3   OH252291   6.658   0.006  15.326  0.5252  0.0816 -0.2230
10267TIP3    H152292   6.638   0.088  15.371  3.0439 -0.3217  1.8725
10267TIP3    H252293   6.615  -0.061  15.378  1.7371 -0.2103  0.4488
10268TIP3   OH252294   0.090   5.124   2.671  0.4225 -0.3803 -0.6119
10268TIP3    H152295   0.079   5.097   2.762  2.5250  0.5290 -0.0294
10268TIP3    H252296   0.089   5.042   2.622 -3.8197 -0.7745 -0.3038
10269TIP3   OH252297   1.709   0.371   5.833  0.0615  0.1604 -0.1352
10269TIP3    H152298   1.772   0.298   5.835 -0.5862 -0.4823 -1.7618
10269TIP3    H252299   1.651   0.353   5.907  0.5018 -0.4184  0.0836
10270TIP3   OH252300   0.862   0.405  15.665  0.3662  0.2588 -0.2157
10270TIP3    H152301   0.866   0.326  15.610  2.3165 -1.2518  1.8873
10270TIP3    H252302   0.906   0.472  15.613  0.6098 -0.6253 -1.1968
10271TIP3   OH252303   1.548   4.751  11.699  0.2052  0.0536  0.6251
10271TIP3    H152304   1.467   4.702  11.716  0.1170 -0.1410 -0.3141
10271TIP3    H252305   1.530   4.839  11.731 -0.0871 -0.1965  1.1678
10272TIP3   OH252306   0.025   2.691   3.018  0.0704 -0.2183  0.2671
10272TIP3    H152307   0.075   2.645   3.086  0.3091  0.4073  0.5213
10272TIP3    H252308   0.081   2.765   2.993  0.1982 -0.6939 -0.9470
10273TIP3   OH252309   6.554   4.952  15.567  0.0367  0.0664  0.5493
10273TIP3    H152310   6.633   4.897  15.574  0.5398  0.7949  0.7601
10273TIP3    H252311   6.485   4.891  15.541  0.9636 -0.3540 -1.1016
10274TIP3   OH252312   5.273   6.774   6.144  0.6044  0.5038 -0.8224
10274TIP3    H152313   5.268   6.835   6.071  1.1838  2.1245  0.4206
10274TIP3    H252314   5.364   6.744   6.144  0.3992 -0.1324 -1.2431
10275TIP3   OH252315   3.189   4.801  13.633  0.2961 -0.5935 -0.1765
10275TIP3    H152316   3.257   4.843  13.580  0.1260 -0.2581 -0.1330
10275TIP3    H252317   3.180   4.858  13.710  1.6385 -1.8994  1.0051
10276TIP3   OH252318   4.919   4.567  10.862  0.4432 -0.1360  0.1690
10276TIP3    H152319   4.881   4.614  10.936 -0.0443 -0.8725  0.3949
10276TIP3    H252320   4.952   4.485  10.899  2.9255  0.7314  0.1271
10277TIP3   OH252321   5.122   1.445  16.391 -0.2430 -0.4546  0.4453
10277TIP3    H152322   5.125   1.370  16.332  0.9977  0.0813 -0.2235
10277TIP3    H252323   5.165   1.414  16.471  1.7454 -0.0392 -0.3962
10278TIP3   OH252324   0.465   0.896   6.217 -0.0744  0.3813 -0.1272
10278TIP3    H152325   0.427   0.815   6.253 -0.0098 -0.1338 -1.1567
10278TIP3    H252326   0.434   0.965   6.275  0.6045 -0.4745  1.3119
10279TIP3   OH252327   3.375   0.249  15.871  0.8154  0.4292  0.3428
10279TIP3    H152328   3.349   0.207  15.789  1.8948  0.3546  0.0247
10279TIP3    H252329   3.468   0.228  15.881  1.2698  2.2867  0.4396
10280TIP3   OH252330   3.428   0.491  14.304 -0.3147 -0.5642 -0.9081
10280TIP3    H152331   3.497   0.425  14.296  0.8251  0.5891 -0.7469
10280TIP3    H252332   3.400   0.485  14.395  2.1576  1.4160  0.0941
10281TIP3   OH252333   3.235   4.359  12.653  0.4745 -0.0125 -0.5288
10281TIP3    H152334   3.301   4.428  12.647 -1.4139  1.8320 -1.5337
10281TIP3    H252335   3.216   4.352  12.747  1.7333 -0.2447 -0.2791
10282TIP3   OH252336   4.662   2.408  11.103  0.0947 -0.4743  0.1461
10282TIP3    H152337   4.678   2.490  11.057 -1.2175 -0.4779 -0.3640
10282TIP3    H252338   4.638   2.346  11.034 -3.9464  0.0245  0.8962
10283TIP3   OH252339   5.339   4.593   2.757 -0.2233  0.3929  0.3044
10283TIP3    H152340   5.395   4.612   2.682  0.9151 -2.2666  0.3769
10283TIP3    H252341   5.399   4.592   2.832 -0.4683 -1.5542  0.5188
10284TIP3   OH252342   4.428   2.035   0.491  0.3075  0.1663 -0.0926
10284TIP3    H152343   4.460   1.954   0.530 -0.6936 -0.3762 -0.3562
10284TIP3    H252344   4.474   2.105   0.537  2.6896 -0.5730 -1.1965
10285TIP3   OH252345   5.466   4.245   2.979  0.1503  0.6384  0.5395
10285TIP3    H152346   5.457   4.336   3.008  0.1551  0.8302 -0.0576
10285TIP3    H252347   5.542   4.245   2.921 -0.0383  0.3165  0.2842
10286TIP3   OH252348   5.084   1.215  14.117 -0.3150 -0.1822 -0.9211
10286TIP3    H152349   5.034   1.156  14.061 -1.8075  1.2423 -1.1385
10286TIP3    H252350   5.042   1.300  14.107  0.7380  0.5799  0.6974
10287TIP3   OH252351   0.730   0.592  12.441 -0.0188 -0.1828  0.2918
10287TIP3    H152352   0.702   0.501  12.438  0.9355 -0.4669 -1.1110
10287TIP3    H252353   0.657   0.641  12.403 -0.9878 -0.2028  2.0472
10288TIP3   OH252354   0.449   0.719   3.108  0.7679 -0.2784 -0.3563
10288TIP3    H152355   0.397   0.770   3.170 -1.5587 -0.8190 -1.7483
10288TIP3    H252356   0.535   0.762   3.108 -0.3441  2.0884  0.3596
10289TIP3   OH252357   5.911   5.366  16.575  0.1683  0.3800  0.2119
10289TIP3    H152358   5.944   5.443  16.528  1.6742 -0.6774 -0.5616
10289TIP3    H252359   5.891   5.303  16.506 -0.5357 -0.1151  0.8542
10290TIP3   OH252360   4.085   3.420   3.251 -0.2883  0.2794 -0.2403
10290TIP3    H152361   3.992   3.395   3.247 -0.8418  1.2612  3.0718
10290TIP3    H252362   4.092   3.498   3.197 -1.3405  0.0846 -0.6841
10291TIP3   OH252363   3.046   6.362  16.674  0.3376  0.3182  0.4018
10291TIP3    H152364   2.954   6.382  16.690  0.2597 -0.8001  1.4041
10291TIP3    H252365   3.093   6.403  16.747  0.4491 -0.7211  0.9200
10292TIP3   OH252366   4.380   3.415  13.105 -0.1025 -0.4102 -0.1666
10292TIP3    H152367   4.329   3.382  13.180  1.8876 -0.2435  1.3375
10292TIP3    H252368   4.360   3.509  13.103 -1.1580 -0.6257 -0.7051
10293TIP3   OH252369   5.938   5.925   4.359  0.1100  0.6538  0.3905
10293TIP3    H152370   5.908   5.999   4.307 -0.0569  0.4993  0.2662
10293TIP3    H252371   5.961   5.963   4.444 -0.2576  0.8052  0.4248
10294TIP3   OH252372   3.922   0.516  13.265  0.3705  0.0399  0.0109
10294TIP3    H152373   3.898   0.427  13.292 -1.2479  0.5117  0.1912
10294TIP3    H252374   3.958   0.504  13.177  1.5665 -0.9467  0.5838
10295TIP3   OH252375   6.389   6.735  14.313  0.5634 -0.4995  0.7413
10295TIP3    H152376   6.375   6.677  14.237 -2.6092 -2.6289  2.6988
10295TIP3    H252377   6.301   6.755  14.344  1.7050  2.2871  2.5185
10296TIP3   OH252378   4.178   4.438   5.632  0.7115  0.0046  0.2273
10296TIP3    H152379   4.154   4.346   5.627 -1.2193  0.2651  2.7158
10296TIP3    H252380   4.248   4.440   5.698  0.8929  0.3061  0.0267
10297TIP3   OH252381   1.108   3.508  13.366 -0.1855  0.5216 -0.0876
10297TIP3    H152382   1.171   3.530  13.297 -0.3748  0.6006 -0.2356
10297TIP3    H252383   1.157   3.452  13.426  0.6551  2.2057  0.8934
10298TIP3   OH252384   3.813   1.816  17.143  0.4292  0.2844 -0.4838
10298TIP3    H152385   3.754   1.747  17.111  0.1271  1.2429 -2.0957
10298TIP3    H252386   3.890   1.769  17.175 -0.0470 -0.8413 -0.9270
10299TIP3   OH252387   5.051   1.905  14.180 -0.2817 -0.1278 -0.1405
10299TIP3    H152388   5.096   1.941  14.256 -1.6338 -1.0545  1.1617
10299TIP3    H252389   5.054   1.975  14.115  1.2624  0.5387  0.5990
10300TIP3   OH252390   1.592   0.520  16.853 -0.0513 -0.0586 -0.0986
10300TIP3    H152391   1.654   0.496  16.922  1.1624  2.1726 -0.2968
10300TIP3    H252392   1.567   0.610  16.875 -1.0427  0.0527 -1.5858
10301TIP3   OH252393   0.663   4.354   3.495  0.2503  0.2974 -0.1122
10301TIP3    H152394   0.683   4.437   3.453  0.3580 -0.1614 -0.9814
10301TIP3    H252395   0.736   4.339   3.555 -0.0175  1.0631  0.4146
10302TIP3   OH252396   5.391   5.029  12.953  0.2445 -0.4193  0.4712
10302TIP3    H152397   5.439   4.995  13.029  1.4459  0.9577  0.3769
10302TIP3    H252398   5.379   4.953  12.896 -0.3835 -1.4057  1.8666
10303TIP3   OH252399   3.869   0.142  16.877  0.0358  0.4365  0.6187
10303TIP3    H152400   3.897   0.151  16.786  0.6402  0.1986  0.7766
10303TIP3    H252401   3.811   0.216  16.892 -0.3900  0.2509 -0.0804
10304TIP3   OH252402   3.924   2.515   0.066  0.4068 -0.3812 -0.6736
10304TIP3    H152403   3.918   2.605   0.098  2.4915 -0.2064 -0.6534
10304TIP3    H252404   3.862   2.512  -0.007 -1.9521  0.1566  1.1621
10305TIP3   OH252405   2.406   1.957   0.713  0.1465 -0.0388  0.6360
10305TIP3    H152406   2.439   1.994   0.795 -0.0132 -1.6676  1.4704
10305TIP3    H252407   2.449   2.008   0.644  1.3730  0.4270  1.7159
10306TIP3   OH252408   5.120   4.103   5.478 -0.7880 -0.9069 -0.2315
10306TIP3    H152409   5.137   4.058   5.561  0.4527 -0.5489 -0.2664
10306TIP3    H252410   5.067   4.179   5.503  1.3308  0.4110  0.6218
10307TIP3   OH252411   0.642   3.666   0.124  0.6842 -0.4996  0.5906
10307TIP3    H152412   0.622   3.645   0.215 -0.8168 -0.3603  0.3083
10307TIP3    H252413   0.699   3.594   0.095  0.6887 -0.8563  1.4472
10308TIP3   OH252414   1.184   3.666   6.486 -0.1724  0.1755 -0.3899
10308TIP3    H152415   1.106   3.627   6.526  0.5708 -0.5577  0.3938
10308TIP3    H252416   1.180   3.758   6.509 -1.3377  0.3583 -1.2377
10309TIP3   OH252417   0.971   6.517  12.614 -0.3536  0.2527  0.4687
10309TIP3    H152418   0.963   6.537  12.707 -0.0867  0.6505  0.4113
10309TIP3    H252419   0.883   6.528  12.579  0.1079  3.7622 -0.0045
10310TIP3   OH252420   3.126   6.745  14.981  0.7861 -0.2983 -0.6218
10310TIP3    H152421   3.134   6.693  14.902 -0.1235  1.7516 -2.1850
10310TIP3    H252422   3.031   6.758  14.992  0.8394 -1.0928  1.2290
10311TIP3   OH252423   3.385   4.461   2.654  0.2068  0.3910  0.7091
10311TIP3    H152424   3.453   4.473   2.720  0.9830  0.4666 -0.0807
10311TIP3    H252425   3.394   4.369   2.627 -0.2609  0.2957  0.8664
10312TIP3   OH252426   3.087   1.214  12.476 -0.1243  0.0932  0.1254
10312TIP3    H152427   3.178   1.198  12.451  0.3019 -0.5061  1.9154
10312TIP3    H252428   3.074   1.307  12.458  1.5285  0.7156  1.7014
10313TIP3   OH252429   3.001   2.046   2.664  0.6814  0.1532 -0.4254
10313TIP3    H152430   3.075   2.072   2.610  1.9644 -2.1015  0.1407
10313TIP3    H252431   3.039   2.026   2.749 -0.7272 -0.1414  0.1596
10314TIP3   OH252432   3.193   1.787   4.272 -0.3730 -0.3768 -0.0793
10314TIP3    H152433   3.267   1.726   4.269  0.3197  0.4630 -0.3082
10314TIP3    H252434   3.227   1.868   4.236 -1.9761 -0.5406 -2.1749
10315TIP3   OH252435   4.847   0.951   3.513 -0.0376  0.2879 -0.7238
10315TIP3    H152436   4.793   0.892   3.566  2.1986  0.1298  1.5169
10315TIP3    H252437   4.929   0.904   3.500  0.3923  1.3747 -2.2607
10316TIP3   OH252438   6.677   5.486  14.246  0.3360 -0.4011  0.3681
10316TIP3    H152439   6.704   5.526  14.329 -0.7357 -1.8679  1.4653
10316TIP3    H252440   6.757   5.446  14.212  1.3873  2.3066 -0.6401
10317TIP3   OH252441   2.118   6.778  16.897 -0.5100 -0.2169 -0.5973
10317TIP3    H152442   2.163   6.789  16.981  1.2081  0.7379 -1.5674
10317TIP3    H252443   2.138   6.689  16.870 -2.3508 -1.0686  0.6546
10318TIP3   OH252444   2.417   0.564  11.510 -0.4229  0.1693  0.4237
10318TIP3    H152445   2.418   0.513  11.428  0.6665  0.1867  0.4054
10318TIP3    H252446   2.472   0.513  11.570 -0.6188  0.5279  0.9066
10319TIP3   OH252447   6.251   0.002   4.602  0.1055  0.0492 -0.0284
10319TIP3    H152448   6.320   0.068   4.593 -1.0564  1.2997 -0.0763
10319TIP3    H252449   6.289  -0.064   4.660  1.6513  0.2529 -0.7496
10320TIP3   OH252450   2.776   3.059   3.298  0.2020  0.0053  0.5175
10320TIP3    H152451   2.736   3.143   3.275  1.2462  0.6568  0.9790
10320TIP3    H252452   2.814   3.074   3.385 -1.0870 -1.4945  1.3852
10321TIP3   OH252453   5.179   2.418  15.878 -0.2511  0.3917 -0.5875
10321TIP3    H152454   5.208   2.456  15.795  2.5832 -2.6207 -1.1856
10321TIP3    H252455   5.205   2.483  15.943  2.6533  0.4835 -1.6763
10322TIP3   OH252456   1.169   5.261   0.676 -0.2491 -0.2384  0.0032
10322TIP3    H152457   1.079   5.230   0.663 -0.0489 -0.3253 -1.2642
10322TIP3    H252458   1.160   5.339   0.731 -1.1364 -0.0078 -0.4581
10323TIP3   OH252459   6.636   5.640  13.342  0.4109  0.2334 -0.3395
10323TIP3    H152460   6.575   5.571  13.366  1.0220 -0.3697 -0.5033
10323TIP3    H252461   6.715   5.621  13.393  0.7987  0.4542 -0.8514
10324TIP3   OH252462   2.294   4.197   0.877 -0.5118 -0.9597 -0.0810
10324TIP3    H152463   2.210   4.165   0.910 -1.4232  0.6111 -0.7904
10324TIP3    H252464   2.295   4.289   0.899 -1.0722  0.1825 -3.9730
10325TIP3   OH252465   5.423   3.325   3.386 -0.2801  0.4944 -0.7085
10325TIP3    H152466   5.379   3.391   3.438 -0.5516  2.9857 -3.8107
10325TIP3    H252467   5.516   3.347   3.393 -0.2884  0.6286 -1.0241
10326TIP3   OH252468   5.262   1.927   1.382 -0.5963  0.5600  0.3825
10326TIP3    H152469   5.334   1.983   1.411  0.1488  0.2324 -0.7959
10326TIP3    H252470   5.270   1.848   1.435  1.1970 -0.3386 -1.1287
10327TIP3   OH252471   1.141   5.025   2.030  1.3628 -0.0336 -0.4370
10327TIP3    H152472   1.150   4.992   1.941  0.4932  0.4169 -0.7036
10327TIP3    H252473   1.230   5.046   2.057  1.6180 -0.0192 -1.2545
10328TIP3   OH252474   0.965   4.683  15.755  0.1778 -0.0408  0.3336
10328TIP3    H152475   0.980   4.591  15.775  0.9302 -0.3754 -1.5824
10328TIP3    H252476   0.870   4.692  15.751 -0.0498 -1.8823 -3.8457
10329TIP3   OH252477   4.109   6.242  13.612  0.2652 -0.0056  0.0025
10329TIP3    H152478   4.125   6.257  13.705 -1.2152  1.0724  0.1180
10329TIP3    H252479   4.178   6.181  13.585  0.5025 -0.6362  1.8832
10330TIP3   OH252480   6.664   2.923   1.023 -0.4803  0.1306  0.2433
10330TIP3    H152481   6.740   2.896   0.971 -0.7106 -0.3804  0.1587
10330TIP3    H252482   6.682   2.891   1.112 -0.4172  0.3580  0.3127
10331TIP3   OH252483   0.608   3.157   0.009 -0.4804  0.6473  0.0317
10331TIP3    H152484   0.529   3.212   0.009 -0.4797  0.7131 -1.8124
10331TIP3    H252485   0.575   3.069   0.026 -0.7293  0.9115  0.9779
10332TIP3   OH252486   2.897   2.066  16.645 -0.1267  0.2664  0.2088
10332TIP3    H152487   2.863   2.113  16.722 -0.8559 -0.2024  0.1819
10332TIP3    H252488   2.966   2.009  16.680 -1.9827 -1.6524  0.9310
10333TIP3   OH252489   2.496   3.034   4.825 -0.8984  0.0688 -0.0009
10333TIP3    H152490   2.473   3.006   4.737  1.8495 -3.5833  0.2246
10333TIP3    H252491   2.439   2.982   4.882  2.0011 -2.9875  0.3623
10334TIP3   OH252492   6.011   2.540   6.024 -0.2276 -0.3437  0.0704
10334TIP3    H152493   6.044   2.474   6.086  0.8369 -1.5250 -1.6609
10334TIP3    H252494   6.071   2.614   6.034 -0.7217 -0.0874  1.2103
10335TIP3   OH252495   2.200   4.273   2.471  0.1338 -0.4430 -0.1108
10335TIP3    H152496   2.218   4.266   2.377 -0.2154 -0.6294 -0.1619
10335TIP3    H252497   2.278   4.236   2.513  0.3067 -0.3269 -0.3246
10336TIP3   OH252498   6.312   6.587   4.715  0.1665  0.1959  0.9667
10336TIP3    H152499   6.394   6.586   4.765  0.1243 -0.9612  1.0394
10336TIP3    H252500   6.301   6.497   4.684 -0.7815  0.4667  0.4592
10337TIP3   OH252501   1.320   5.991   1.889 -0.2259 -0.0586  0.1859
10337TIP3    H152502   1.248   6.054   1.878 -0.2947 -0.5540 -2.9775
10337TIP3    H252503   1.399   6.045   1.887 -0.3379  0.0855 -1.2186
10338TIP3   OH252504   1.998   5.876  12.912 -0.2542 -0.3403  0.7324
10338TIP3    H152505   1.978   5.796  12.961 -0.1246  0.0856  1.4799
10338TIP3    H252506   2.061   5.923  12.966  0.9715 -0.5078 -0.4733
10339TIP3   OH252507   1.637   2.382   0.198 -0.2482  0.5182 -0.3060
10339TIP3    H152508   1.702   2.338   0.143 -1.3200 -0.0228 -1.1529
10339TIP3    H252509   1.553   2.359   0.160 -1.0743 -0.4355  1.9558
10340TIP3   OH252510   6.054   4.906   3.590  0.1108 -0.4314  0.2047
10340TIP3    H152511   6.072   4.818   3.558 -0.1530 -0.7245  0.8353
10340TIP3    H252512   5.986   4.940   3.532  0.5112 -0.4840 -0.2977
10341TIP3   OH252513   2.165   4.502  14.526 -0.2558  0.1979 -0.5512
10341TIP3    H152514   2.259   4.512  14.517  0.0980 -2.5919 -0.8475
10341TIP3    H252515   2.128   4.564  14.462  1.3959  0.6855 -1.0774
10342TIP3   OH252516   2.013   2.324  14.088  0.0524 -0.5205  0.2365
10342TIP3    H152517   2.013   2.311  13.993  1.7908 -1.2461  0.3001
10342TIP3    H252518   2.061   2.249  14.123  1.1547  0.7185  1.5168
10343TIP3   OH252519   1.480   4.822  16.780 -0.5583 -0.0210 -0.1510
10343TIP3    H152520   1.394   4.783  16.764 -0.2072 -1.8899  2.0738
10343TIP3    H252521   1.497   4.807  16.873  0.8348  3.1249  0.2451
10344TIP3   OH252522   0.482   6.158   3.675 -0.8072  0.4920  0.2296
10344TIP3    H152523   0.435   6.136   3.595 -0.5858  0.9116 -0.0190
10344TIP3    H252524   0.413   6.175   3.740 -0.9967  0.8052 -0.0493
10345TIP3   OH252525   3.237   0.420  15.574  0.4503  0.4101  0.1402
10345TIP3    H152526   3.154   0.413  15.528  0.7266  0.3176 -0.3546
10345TIP3    H252527   3.275   0.332  15.568  1.4055  0.8846 -1.2270
10346TIP3   OH252528   1.012   3.361   5.710  0.5747  0.0819 -0.7736
10346TIP3    H152529   1.066   3.301   5.762  1.2716  0.9008 -0.5543
10346TIP3    H252530   0.937   3.380   5.767  0.4638 -0.3806 -0.7545
10347TIP3   OH252531   0.048   2.130  10.876 -0.0743 -0.2947  0.8712
10347TIP3    H152532   0.002   2.203  10.834  1.4939 -0.5182 -1.4178
10347TIP3    H252533   0.054   2.156  10.968 -1.5267  1.3882  0.5569
10348TIP3   OH252534   2.937   4.012   5.556  0.0408 -0.5607  0.5355
10348TIP3    H152535   3.000   3.970   5.497  1.0322  0.2732  0.9564
10348TIP3    H252536   2.916   3.945   5.620 -0.4505 -1.2338 -0.3072
10349TIP3   OH252537   3.876   2.190  16.874  0.4864 -0.3479  0.0509
10349TIP3    H152538   3.888   2.120  16.939 -0.0742 -1.1472 -0.6847
10349TIP3    H252539   3.876   2.145  16.790  0.1862  0.5578 -0.4484
10350TIP3   OH252540   6.212   6.510  14.335  0.3498 -0.1361  0.1272
10350TIP3    H152541   6.155   6.572  14.380 -0.2403 -0.1073 -0.6438
10350TIP3    H252542   6.300   6.541  14.353  0.1212 -0.0623  1.1642
10351TIP3   OH252543   4.822   0.288  11.437  0.6958 -0.2851 -0.5255
10351TIP3    H152544   4.750   0.323  11.385  1.2142  2.6718  0.5348
10351TIP3    H252545   4.884   0.361  11.444  1.2958 -0.9411  3.0125
10352TIP3   OH252546   5.309   0.314   6.527 -0.1294 -0.7516  0.8939
10352TIP3    H152547   5.314   0.295   6.620  2.0245 -0.7252  0.8461
10352TIP3    H252548   5.295   0.229   6.485 -1.5579 -0.7040  1.2418
10353TIP3   OH252549   3.560   2.155  17.165 -0.3952  0.3900  0.8915
10353TIP3    H152550   3.591   2.223  17.225 -0.8212  1.6607 -0.2739
10353TIP3    H252551   3.583   2.187  17.078  1.6336 -2.1371  0.3692
10354TIP3   OH252552   0.754   6.797   5.485  0.6524  0.6590 -0.1291
10354TIP3    H152553   0.726   6.706   5.474  0.2145  0.7965 -0.1435
10354TIP3    H252554   0.728   6.840   5.404 -1.6921  1.4453  0.9716
10355TIP3   OH252555   0.248   4.215  15.923 -0.4304 -0.4196 -0.2764
10355TIP3    H152556   0.289   4.278  15.982 -2.4002 -0.1623  0.9032
10355TIP3    H252557   0.220   4.268  15.848  1.1298 -0.5678 -1.0067
10356TIP3   OH252558   3.993   3.706  14.191  0.2227 -0.1765  0.0531
10356TIP3    H152559   3.997   3.678  14.100 -1.4084  0.5057 -0.2552
10356TIP3    H252560   4.032   3.633  14.240 -2.8078 -2.6026 -0.8032
10357TIP3   OH252561   0.985   2.792  16.133 -0.5647 -0.0588 -0.3353
10357TIP3    H152562   0.993   2.761  16.223 -0.3582  0.3853 -0.1996
10357TIP3    H252563   1.072   2.824  16.111 -0.1747 -1.6353 -1.2456
10358TIP3   OH252564   4.910   1.082   3.032 -0.1964 -0.2755 -0.4426
10358TIP3    H152565   4.895   1.166   3.076  1.0711 -0.3742  0.2077
10358TIP3    H252566   4.902   1.017   3.102  2.7109 -0.3726 -0.0909
10359TIP3   OH252567   5.972   0.269   1.073  0.3468  0.1117 -0.0578
10359TIP3    H152568   5.878   0.289   1.070  0.5531  1.0215 -1.4059
10359TIP3    H252569   5.980   0.183   1.032  0.0471 -0.2451  0.6179
10360TIP3   OH252570   3.511   0.883  11.329 -0.1328  0.1384 -0.5755
10360TIP3    H152571   3.557   0.961  11.360  0.0419  0.2737 -1.1553
10360TIP3    H252572   3.575   0.839  11.273 -0.7214  0.3704 -1.4585
10361TIP3   OH252573   0.599   2.784  15.869 -0.3914  0.5846 -0.8967
10361TIP3    H152574   0.621   2.761  15.960 -0.3148  4.2650  0.1582
10361TIP3    H252575   0.618   2.704  15.819 -0.1720 -1.5123  2.2373
10362TIP3   OH252576   4.739   2.709  17.069  0.1584  0.0874 -0.6454
10362TIP3    H152577   4.653   2.738  17.041 -0.1339  0.6563  0.7592
10362TIP3    H252578   4.798   2.780  17.044 -0.0839  0.5509  0.0870
10363TIP3   OH252579   2.789   0.333   0.317 -0.2410  0.5017 -0.0119
10363TIP3    H152580   2.795   0.250   0.270 -0.4872 -0.4664  1.5916
10363TIP3    H252581   2.708   0.373   0.284  0.3006  0.5011 -1.3828
10364TIP3   OH252582   3.882   6.394   3.892 -0.3732  0.6796 -0.9941
10364TIP3    H152583   3.816   6.326   3.881  0.2169 -0.0069 -0.3879
10364TIP3    H252584   3.884   6.412   3.986  1.1322 -0.1911 -0.8192
10365TIP3   OH252585   4.431   2.761  12.850 -0.3091 -0.1787  0.3726
10365TIP3    H152586   4.420   2.769  12.755 -1.3958  0.7155  0.5502
10365TIP3    H252587   4.514   2.804  12.868  0.4925 -1.3737 -0.2875
10366TIP3   OH252588   5.597   1.108  12.501 -0.3115 -0.5885 -0.3434
10366TIP3    H152589   5.613   1.148  12.415 -1.7944 -0.5053 -0.6012
10366TIP3    H252590   5.585   1.182  12.560 -1.2249 -0.6476 -0.4532
10367TIP3   OH252591   2.075   0.741   3.901  0.4245  0.4481 -0.1321
10367TIP3    H152592   2.129   0.672   3.939 -0.6063 -0.7660 -0.7523
10367TIP3    H252593   2.018   0.694   3.839 -1.0959  1.7028  0.2659
10368TIP3   OH252594   2.194   4.688  12.099  0.4671  0.1844 -0.4955
10368TIP3    H152595   2.153   4.603  12.117 -0.8618  0.9986  0.5205
10368TIP3    H252596   2.283   4.680  12.135  0.3226 -0.7350 -0.3227
10369TIP3   OH252597   2.734   1.521   0.903 -0.0119  0.0764 -0.0590
10369TIP3    H152598   2.693   1.496   0.820  0.4605 -0.5930 -0.1036
10369TIP3    H252599   2.787   1.445   0.927 -0.5429  0.0680  1.1201
10370TIP3   OH252600   1.706   4.825   1.469  0.1156 -0.3261  0.2078
10370TIP3    H152601   1.798   4.850   1.467 -0.3133  1.4294  0.1063
10370TIP3    H252602   1.671   4.855   1.384 -0.7526  0.0029  0.6645
10371TIP3   OH252603   2.269   0.611   1.875  0.2222 -0.2286 -0.5009
10371TIP3    H152604   2.187   0.619   1.925  0.6729  0.6882  0.1076
10371TIP3    H252605   2.261   0.526   1.831 -1.4695  0.2516 -1.2106
10372TIP3   OH252606   1.509   2.445   1.424 -0.1292 -0.1852 -0.4137
10372TIP3    H152607   1.497   2.363   1.470  2.1203 -0.6314 -0.4991
10372TIP3    H252608   1.449   2.440   1.349 -0.0969 -1.6994 -0.3673
10373TIP3   OH252609   1.476   1.551  13.929  0.6057 -0.3640 -0.5570
10373TIP3    H152610   1.454   1.547  13.836 -0.4542 -1.4259 -0.2845
10373TIP3    H252611   1.548   1.614  13.934 -1.2145  2.0132 -1.7560
10374TIP3   OH252612   2.458   4.493   1.141 -1.0206  0.3279  0.1027
10374TIP3    H152613   2.413   4.550   1.079 -1.7772  1.3981  1.5678
10374TIP3    H252614   2.431   4.404   1.117  1.0085  0.3497 -2.8951
10375TIP3   OH252615   6.744   4.170  10.727  0.2374  0.0623  0.0216
10375TIP3    H152616   6.666   4.166  10.672  2.2544 -0.5849 -3.0439
10375TIP3    H252617   6.792   4.090  10.708  1.4890  0.1995  2.1664
10376TIP3   OH252618   2.517   1.685  16.714  0.1943 -0.7389 -0.3004
10376TIP3    H152619   2.580   1.753  16.740  0.4198 -0.5734 -1.2306
10376TIP3    H252620   2.570   1.607  16.701  0.0107 -0.9557  0.2346
10377TIP3   OH252621   3.619   4.244   6.796  0.2166 -0.5315  0.0419
10377TIP3    H152622   3.604   4.196   6.715 -0.2403  0.9296 -0.7683
10377TIP3    H252623   3.535   4.240   6.842  0.2938 -0.8342  0.1576
10378TIP3   OH252624   2.877   5.425  11.099 -0.3041 -0.2681 -0.0917
10378TIP3    H152625   2.957   5.419  11.046 -0.7184  0.7743 -0.8889
10378TIP3    H252626   2.902   5.391  11.185  1.1643  0.5697 -0.1500
10379TIP3   OH252627   2.245   2.877  15.452 -0.4419  0.0308 -0.1268
10379TIP3    H152628   2.308   2.846  15.387 -0.5383  0.6960 -0.5545
10379TIP3    H252629   2.291   2.946  15.500 -0.4998 -0.1950  0.2538
10380TIP3   OH252630   0.573   2.667  12.159 -0.1932  0.1604 -0.0493
10380TIP3    H152631   0.599   2.734  12.095 -0.1076  1.2634  1.1043
10380TIP3    H252632   0.590   2.708  12.244 -1.4096 -0.8362  0.6922
10381TIP3   OH252633   5.109   5.540  11.662 -0.3614 -0.4092  0.1618
10381TIP3    H152634   5.046   5.469  11.651  0.6050 -1.4598  1.1653
10381TIP3    H252635   5.074   5.592  11.734  0.7750 -2.0541  2.0027
10382TIP3   OH252636   4.548   5.392  15.807 -0.3855  0.0745  0.0015
10382TIP3    H152637   4.514   5.415  15.893  0.8052  0.8100  0.2970
10382TIP3    H252638   4.526   5.299  15.796 -0.8798  0.0738  0.9266
10383TIP3   OH252639   2.741   2.951  13.264  0.6110 -0.0186  0.1744
10383TIP3    H152640   2.767   3.032  13.308  0.5401  0.8160 -1.2462
10383TIP3    H252641   2.779   2.958  13.176 -0.4372 -0.9643 -0.3806
10384TIP3   OH252642   5.106   2.912   2.596  0.4267 -0.3017 -0.6190
10384TIP3    H152643   5.191   2.940   2.562  0.5793 -0.9084 -0.7538
10384TIP3    H252644   5.121   2.823   2.629  0.0333 -0.1088  0.1005
10385TIP3   OH252645   5.026   6.375  14.637  0.1795 -0.0560 -0.3108
10385TIP3    H152646   4.990   6.347  14.721  0.8381 -1.3429 -0.4293
10385TIP3    H252647   5.104   6.426  14.661  1.1433 -1.5334 -0.1101
10386TIP3   OH252648   2.987   6.703  13.458  0.1042 -0.1016 -0.0613
10386TIP3    H152649   2.953   6.617  13.435 -0.0878  0.1877 -0.9074
10386TIP3    H252650   2.926   6.764  13.416 -0.1818  0.4570  1.1355
10387TIP3   OH252651   6.388   0.486  15.426  0.0211 -0.6700  0.7134
10387TIP3    H152652   6.374   0.442  15.343  0.1893 -0.5156  0.6021
10387TIP3    H252653   6.432   0.568  15.403 -2.0633  0.5319  0.6824
10388TIP3   OH252654   3.758   5.297  11.504 -0.1641 -0.1404  0.3190
10388TIP3    H152655   3.716   5.219  11.469  0.9530 -0.2702 -0.7993
10388TIP3    H252656   3.801   5.337  11.429  0.8197  0.5586  1.2234
10389TIP3   OH252657   0.196   1.604   1.198  0.0604 -0.2206  0.5438
10389TIP3    H152658   0.289   1.590   1.215  0.3740 -1.9220 -2.0197
10389TIP3    H252659   0.193   1.687   1.149  0.6271 -1.3724 -1.5849
10390TIP3   OH252660   6.483   4.177  12.350  0.6932 -0.2341  0.4306
10390TIP3    H152661   6.499   4.187  12.444  0.9340  0.8030  0.2988
10390TIP3    H252662   6.505   4.263  12.314 -1.5997  0.1082 -0.2663
10391TIP3   OH252663   4.329   1.104   4.363 -1.1389 -0.0216  0.6318
10391TIP3    H152664   4.416   1.128   4.331 -1.8234  0.3492 -1.0232
10391TIP3    H252665   4.334   1.010   4.379 -0.9019 -0.3162 -1.0535
10392TIP3   OH252666   5.328   3.576  17.034 -0.2030  0.1307  0.3795
10392TIP3    H152667   5.264   3.621  17.088 -0.4474 -0.7921  0.8839
10392TIP3    H252668   5.399   3.553  17.094 -0.2282 -0.4320  0.1988
10393TIP3   OH252669   3.578   4.765   5.588  0.2013  0.6979 -0.3839
10393TIP3    H152670   3.607   4.705   5.519  0.1524 -0.2578  0.3909
10393TIP3    H252671   3.482   4.761   5.584  0.1519 -0.8387  0.9008
10394TIP3   OH252672   4.189   1.303   0.893 -0.1879 -0.0555  0.6369
10394TIP3    H152673   4.187   1.208   0.903 -1.5781 -0.1001  0.1440
10394TIP3    H252674   4.272   1.321   0.848 -1.2244 -1.3534 -2.0245
10395TIP3   OH252675   0.945   6.437   6.076 -0.6603  0.0106 -0.4388
10395TIP3    H152676   0.905   6.509   6.124  0.0720  0.6810 -0.8038
10395TIP3    H252677   1.005   6.396   6.139  0.3560  0.9347 -0.7697
10396TIP3   OH252678   3.227   3.647  14.585  0.7655  0.8617  0.1242
10396TIP3    H152679   3.275   3.625  14.505  0.2375 -0.5853  0.1815
10396TIP3    H252680   3.193   3.735  14.568  2.4609  1.4596 -0.3588
10397TIP3   OH252681   3.942   3.065  11.504 -0.0098 -0.1122  0.2014
10397TIP3    H152682   3.936   3.076  11.409 -0.5204 -0.5659  0.1823
10397TIP3    H252683   3.941   3.155  11.538 -1.4314  0.0096 -0.1260
10398TIP3   OH252684   0.095   4.810  10.394  0.6677  0.4294 -0.7435
10398TIP3    H152685   0.087   4.758  10.475  0.1752 -0.1580 -1.1590
10398TIP3    H252686   0.006   4.841  10.377  0.7366  0.4104 -1.1466
10399TIP3   OH252687   3.884   6.307   5.262  0.0528  0.2594  0.1783
10399TIP3    H152688   3.805   6.361   5.264  0.5390  1.0016 -0.6146
10399TIP3    H252689   3.947   6.354   5.317  0.3623  0.3247 -0.2297
10400TIP3   OH252690   5.578   5.648   4.549 -0.2344 -0.0329 -0.0581
10400TIP3    H152691   5.488   5.674   4.530 -0.1523  0.2978  0.0105
10400TIP3    H252692   5.631   5.696   4.486 -0.1133 -0.3317 -0.1893
10401TIP3   OH252693   5.975   4.323  12.947  0.2001 -0.4544  0.3091
10401TIP3    H152694   5.894   4.313  12.897 -0.9864 -1.5551  2.3064
10401TIP3    H252695   6.025   4.390  12.899 -1.1971 -0.8152 -1.8036
10402TIP3   OH252696   2.551   1.574   2.109  0.2976  0.7396  0.1713
10402TIP3    H152697   2.624   1.604   2.164 -0.7629  2.8475  0.5517
10402TIP3    H252698   2.475   1.578   2.167 -0.4085  0.3067 -0.7105
10403TIP3   OH252699   2.553   0.608   4.166 -0.4274 -0.5446 -0.1205
10403TIP3    H152700   2.503   0.659   4.103  0.6429 -0.3494 -0.8310
10403TIP3    H252701   2.640   0.649   4.168 -0.4696 -0.4447  1.5980
10404TIP3   OH252702   5.310   4.749  16.908  0.5325  0.1046 -0.2379
10404TIP3    H152703   5.350   4.822  16.955 -0.1387  0.6119 -0.4344
10404TIP3    H252704   5.264   4.700  16.976  0.3015  0.3325 -0.2291
10405TIP3   OH252705   2.967   5.567   0.554  0.3365 -0.0972 -0.7357
10405TIP3    H152706   3.021   5.530   0.624 -2.1337 -0.2592  1.2071
10405TIP3    H252707   2.897   5.504   0.541 -0.8135  1.2530 -1.3971
10406TIP3   OH252708   2.857   0.746   1.062 -0.0452  0.1378  0.0884
10406TIP3    H152709   2.775   0.707   1.033 -0.3047  0.8347 -0.1318
10406TIP3    H252710   2.899   0.777   0.981  1.0400 -1.3289  0.0490
10407TIP3   OH252711   3.412   4.423   4.063 -0.4643  0.5194  0.1478
10407TIP3    H152712   3.476   4.397   3.997  0.0417 -0.9358  1.1744
10407TIP3    H252713   3.392   4.515   4.042  1.3026  0.7499 -0.6954
10408TIP3   OH252714   6.566   1.511  15.288  0.6007 -0.1350 -0.7004
10408TIP3    H152715   6.564   1.488  15.380 -2.5737 -0.5230 -0.7762
10408TIP3    H252716   6.523   1.597  15.283 -2.4345 -1.5904 -2.0547
10409TIP3   OH252717   3.058   5.481   5.691 -0.5117  0.5089  0.4456
10409TIP3    H152718   3.040   5.407   5.634  1.0379 -0.6473  1.3689
10409TIP3    H252719   3.104   5.443   5.765 -1.4479  2.1281  1.9346
10410TIP3   OH252720   1.066   4.434  11.997  0.3542 -0.7098 -0.4701
10410TIP3    H152721   1.012   4.472  11.928 -0.0556 -0.4639 -0.0284
10410TIP3    H252722   1.156   4.444  11.966  0.2275  0.2205 -0.5708
10411TIP3   OH252723   5.389   5.049  17.171 -0.2367  0.2853 -0.1175
10411TIP3    H152724   5.379   4.954  17.179  0.0423  0.1633 -1.0559
10411TIP3    H252725   5.436   5.076  17.250 -0.7505 -0.2881  0.3881
10412TIP3   OH252726   2.025   4.795  15.713  0.3801 -0.6012  0.3456
10412TIP3    H152727   2.063   4.740  15.644 -2.0168 -0.9500 -0.8194
10412TIP3    H252728   1.941   4.822  15.677  0.2135  1.4273  2.1209
10413TIP3   OH252729   1.807   5.666  15.463 -0.0176 -0.0482  0.4147
10413TIP3    H152730   1.743   5.737  15.468 -1.0535 -0.9580  0.3725
10413TIP3    H252731   1.768   5.594  15.513  0.3279 -1.0956 -0.7699
10414TIP3   OH252732   6.499   4.260   4.913 -0.5280  0.5437 -0.4480
10414TIP3    H152733   6.548   4.342   4.926  0.1638  0.1936 -0.7958
10414TIP3    H252734   6.480   4.260   4.819 -0.6033  0.3435 -0.4315
10415TIP3   OH252735   3.517   1.020  12.258 -0.4332  0.2532 -0.5115
10415TIP3    H152736   3.499   1.112  12.238  1.0345  0.3630 -1.5405
10415TIP3    H252737   3.431   0.979  12.259 -1.0584  1.4799 -0.9280
10416TIP3   OH252738   2.466   4.276  12.008 -0.0010  0.3069 -0.3736
10416TIP3    H152739   2.389   4.306  11.961 -0.7400 -0.6483  0.2041
10416TIP3    H252740   2.440   4.275  12.100  0.7550  0.1435 -0.1501
10417TIP3   OH252741   1.586   0.207   2.897  0.0804 -0.0600  0.3567
10417TIP3    H152742   1.667   0.187   2.944  0.6943  0.2705 -0.5448
10417TIP3    H252743   1.614   0.253   2.818 -0.8900 -1.1562 -0.6667
10418TIP3   OH252744   2.667   2.780   3.855 -0.2536  0.2438  0.5801
10418TIP3    H152745   2.622   2.701   3.885  1.9990 -0.4852  2.3389
10418TIP3    H252746   2.625   2.852   3.903 -1.6489  0.0358 -0.2804
10419TIP3   OH252747   4.633   2.844   1.391 -0.7794  0.2386  0.2075
10419TIP3    H152748   4.613   2.884   1.476  0.7018  1.7069 -0.0620
10419TIP3    H252749   4.556   2.791   1.369 -1.7451  0.9155  1.8259
10420TIP3   OH252750   4.569   4.310  17.087  0.2290  0.3842 -0.5690
10420TIP3    H152751   4.662   4.300  17.108  0.0185 -3.0516 -0.7670
10420TIP3    H252752   4.558   4.268  17.002 -1.4899  0.8906 -0.6406
10421TIP3   OH252753   5.688   5.251  12.736 -0.3045  0.6001  0.1849
10421TIP3    H152754   5.776   5.216  12.750 -0.9174  0.0930  3.8827
10421TIP3    H252755   5.636   5.176  12.706  0.0539  0.3642  0.1603
10422TIP3   OH252756   2.559   0.136   0.301  0.0874  0.6662  0.1818
10422TIP3    H152757   2.543   0.080   0.226  0.9846 -1.2086  1.3247
10422TIP3    H252758   2.472   0.163   0.330 -0.3526  0.0474 -0.5234
10423TIP3   OH252759   4.808   0.730   5.050  0.5392 -0.4203  0.2541
10423TIP3    H152760   4.773   0.658   4.998 -0.5773 -0.1371  0.5833
10423TIP3    H252761   4.731   0.767   5.094  1.1591  0.6741  0.4518
10424TIP3   OH252762   5.432   4.335   0.071  0.3596  0.0391  0.2879
10424TIP3    H152763   5.470   4.331   0.159 -2.5681 -1.7569  1.6448
10424TIP3    H252764   5.338   4.327   0.085 -0.1217 -3.2896 -3.0987
10425TIP3   OH252765   4.412   2.070  15.578 -0.0012  0.7901 -0.0228
10425TIP3    H152766   4.470   2.119  15.637  0.8283  0.2410 -0.3645
10425TIP3    H252767   4.423   2.112  15.493  0.5722  0.1503 -0.2770
10426TIP3   OH252768   0.111   5.158  11.883  0.3118 -0.5215  0.1317
10426TIP3    H152769   0.033   5.103  11.877 -1.4075  1.6307  1.2239
10426TIP3    H252770   0.156   5.145  11.799 -1.9449 -0.8215 -1.1092
10427TIP3   OH252771   3.712   0.126   0.300  0.4483  0.1965  0.6938
10427TIP3    H152772   3.697   0.070   0.224 -1.6638  1.9332 -0.3018
10427TIP3    H252773   3.768   0.196   0.267  0.8460  0.1193  1.1930
10428TIP3   OH252774   3.249   1.714   6.212  0.4620  0.0794  0.4988
10428TIP3    H152775   3.238   1.650   6.142  1.6535  0.1935  0.1907
10428TIP3    H252776   3.341   1.707   6.236 -0.3392 -1.6346  3.6752
10429TIP3   OH252777   0.916   3.759   5.420 -0.2074  0.2475 -0.8250
10429TIP3    H152778   0.932   3.669   5.449 -0.3971  0.5765  0.3456
10429TIP3    H252779   0.837   3.753   5.365 -2.0901  0.0966  1.7215
10430TIP3   OH252780   6.470   1.850  17.068 -0.1915  0.1812 -0.6426
10430TIP3    H152781   6.464   1.939  17.033 -1.7064  0.4194  0.1330
10430TIP3    H252782   6.504   1.798  16.996 -1.1051  1.0423 -1.7289
10431TIP3   OH252783   4.718   1.480   0.102  0.7151 -0.2449  0.4827
10431TIP3    H152784   4.718   1.412   0.035  1.8578  1.3316 -1.1954
10431TIP3    H252785   4.742   1.434   0.183  0.3135 -2.0058 -0.3509
10432TIP3   OH252786   3.389   4.262  16.849 -0.5389  0.3476 -0.5894
10432TIP3    H152787   3.445   4.262  16.771 -1.4244  1.2431 -1.2552
10432TIP3    H252788   3.430   4.324  16.909  0.1987 -0.4158 -0.2925
10433TIP3   OH252789   3.780   5.149  15.197 -0.1047 -1.0028  0.0910
10433TIP3    H152790   3.812   5.238  15.181 -2.0101 -0.4189 -0.8085
10433TIP3    H252791   3.727   5.157  15.276  0.2730 -1.5050  0.4002
10434TIP3   OH252792   3.970   1.455   5.093 -0.3988  0.0807  0.1558
10434TIP3    H152793   3.927   1.540   5.101 -1.0395 -0.3082  1.0316
10434TIP3    H252794   4.026   1.449   5.171 -0.1166 -0.1667 -0.0613
10435TIP3   OH252795   4.414   4.291   0.482  0.2863  0.1727 -0.2128
10435TIP3    H152796   4.465   4.229   0.431  1.1985  2.5410 -2.3943
10435TIP3    H252797   4.332   4.245   0.501  1.6758 -2.3462  0.0620
10436TIP3   OH252798   5.781   5.182   3.217  0.4314 -0.0225 -0.3067
10436TIP3    H152799   5.797   5.088   3.211 -0.7379 -0.3782  1.5570
10436TIP3    H252800   5.781   5.200   3.311 -0.8493  1.5755 -0.5856
10437TIP3   OH252801   2.698   6.483  12.657 -0.2240  0.6517  0.1742
10437TIP3    H152802   2.617   6.518  12.619  0.3980  2.3101  0.2550
10437TIP3    H252803   2.669   6.429  12.731 -1.2757  0.8297 -0.0901
10438TIP3   OH252804   3.782   0.107  10.857  0.6240  0.5875  0.7778
10438TIP3    H152805   3.802   0.120  10.950  0.8660  0.2922  0.7666
10438TIP3    H252806   3.863   0.130  10.812  1.4388 -1.9144  0.8152
10439TIP3   OH252807   1.118   5.218  11.169  0.2343 -0.0617  0.4781
10439TIP3    H152808   1.116   5.126  11.142 -0.0744  0.1460 -0.2182
10439TIP3    H252809   1.201   5.252  11.134  0.8222 -0.3086  1.5646
10440TIP3   OH252810   2.596   2.720   4.866  0.0800  0.0713  0.1549
10440TIP3    H152811   2.634   2.804   4.890 -1.9734  0.3184  3.0388
10440TIP3    H252812   2.503   2.729   4.886 -0.7770 -1.9247 -2.3836
10441TIP3   OH252813   4.596   0.901   1.238  0.4812 -0.1823 -0.5835
10441TIP3    H152814   4.553   0.980   1.205 -1.9169 -0.3247  1.8563
10441TIP3    H252815   4.648   0.932   1.312  0.1491 -0.7771 -0.0973
10442TIP3   OH252816   4.896   2.885  15.893  0.0946  0.5559  0.0060
10442TIP3    H152817   4.951   2.857  15.966  0.0968  0.5880  0.0166
10442TIP3    H252818   4.957   2.921  15.829  0.1420  0.0506 -0.2330
10443TIP3   OH252819   6.122   1.611  14.348 -0.3384 -0.0222 -0.6199
10443TIP3    H152820   6.216   1.593  14.355 -0.0982  1.5663  1.2244
10443TIP3    H252821   6.081   1.529  14.371  0.5785 -0.7459 -1.4494
10444TIP3   OH252822   2.226   4.012  16.371 -0.5806  0.0608  0.8485
10444TIP3    H152823   2.156   3.991  16.309  0.8314  0.8352 -1.1436
10444TIP3    H252824   2.259   4.097  16.341  1.0780 -0.1893  1.8301
10445TIP3   OH252825   0.158   1.260   5.639  0.5615  0.1843  0.0032
10445TIP3    H152826   0.090   1.217   5.691  0.0018  1.9511  0.8105
10445TIP3    H252827   0.237   1.253   5.693  0.0785  1.6299  0.9720
10446TIP3   OH252828   3.756   5.872   1.559 -0.6751 -0.4417 -0.1798
10446TIP3    H152829   3.670   5.857   1.598 -0.8661  1.5700  0.2975
10446TIP3    H252830   3.812   5.899   1.632 -0.0739 -0.1248 -0.7406
10447TIP3   OH252831   4.021   0.660  11.748 -0.0845 -0.6454 -1.3037
10447TIP3    H152832   4.026   0.754  11.767  2.4871 -0.1551 -3.7127
10447TIP3    H252833   3.936   0.633  11.782  0.0032  2.0434  1.4686
10448TIP3   OH252834   6.654   2.250   3.237 -0.3333 -0.8249  0.9100
10448TIP3    H152835   6.568   2.208   3.233 -0.6712 -0.0345 -0.6879
10448TIP3    H252836   6.716   2.182   3.212 -0.5479 -1.2266  1.4547
10449TIP3   OH252837   3.302   4.183  15.079 -0.2873 -0.5342  0.5285
10449TIP3    H152838   3.328   4.170  15.170  0.9556  1.1432  0.4560
10449TIP3    H252839   3.384   4.183  15.030 -0.7650  0.4884 -0.3200
10450TIP3   OH252840   1.813   5.216   1.844 -0.3220 -0.4237 -0.3832
10450TIP3    H152841   1.833   5.175   1.928  0.5740  1.1073  0.2003
10450TIP3    H252842   1.877   5.287   1.836 -2.1153  1.2079 -1.0714
10451TIP3   OH252843   6.079   4.984  12.216 -0.1552  0.4001  0.0978
10451TIP3    H152844   6.119   5.052  12.163  1.2968 -0.3916  0.1256
10451TIP3    H252845   6.042   5.031  12.291  0.1698  1.2292 -0.2475
10452TIP3   OH252846   1.971   4.976   5.182 -0.6660  0.9374 -0.1327
10452TIP3    H152847   1.933   4.976   5.094 -1.5382 -0.4286  0.2181
10452TIP3    H252848   2.066   4.977   5.166 -0.7724 -0.7056 -1.1641
10453TIP3   OH252849   1.769   6.262   0.158 -0.3452 -0.0399 -0.7827
10453TIP3    H152850   1.836   6.323   0.190  0.5883 -0.6101 -1.6013
10453TIP3    H252851   1.690   6.316   0.149 -0.2116  0.4787  0.8904
10454TIP3   OH252852   3.851   0.156  16.165  0.1160 -0.0865 -0.2282
10454TIP3    H152853   3.837   0.102  16.242  1.0241  0.9191  0.6777
10454TIP3    H252854   3.940   0.189  16.174 -0.4902  1.7823 -0.5855
10455TIP3   OH252855   1.401   1.419   5.791 -0.2835 -0.0664  0.4381
10455TIP3    H152856   1.476   1.413   5.731 -0.8406 -1.1965 -0.1857
10455TIP3    H252857   1.382   1.328   5.814 -1.3318  0.2207  0.7436
10456TIP3   OH252858   3.507   3.594   2.294 -0.1006 -0.1950  0.1287
10456TIP3    H152859   3.525   3.672   2.346  1.5800 -0.1418 -0.4876
10456TIP3    H252860   3.449   3.624   2.224  1.7325  0.8903 -1.0076
10457TIP3   OH252861   4.064   6.407  12.434  0.0829 -0.1988 -0.1175
10457TIP3    H152862   4.086   6.376  12.346 -0.3974 -1.2601  0.1228
10457TIP3    H252863   3.995   6.348  12.464  0.4100 -0.0030  1.0673
10458TIP3   OH252864   0.790   5.948  11.866  0.2206 -0.0281  0.1164
10458TIP3    H152865   0.811   6.013  11.799  1.2331 -1.4879 -1.0690
10458TIP3    H252866   0.695   5.949  11.873 -0.0136 -0.5992 -2.2022
10459TIP3   OH252867   0.154   2.903  11.240 -0.0479 -0.2460  0.1033
10459TIP3    H152868   0.239   2.860  11.232 -0.6155 -1.7452  1.6578
10459TIP3    H252869   0.175   2.995  11.255  1.2630 -0.4002 -0.6454
10460TIP3   OH252870   0.469   4.845  11.157  0.1154  0.2629 -0.0305
10460TIP3    H152871   0.482   4.751  11.143 -1.1961 -0.1301  1.0993
10460TIP3    H252872   0.542   4.887  11.113  0.7852 -1.3020 -0.4632
10461TIP3   OH252873   5.818   4.554   2.391  0.1515  0.5771 -0.1031
10461TIP3    H152874   5.848   4.637   2.429  0.4292  0.6083 -0.3799
10461TIP3    H252875   5.800   4.575   2.299 -1.4113  0.7205  0.2080
10462TIP3   OH252876   3.076   2.032   0.737  0.2860 -0.1116  0.0564
10462TIP3    H152877   3.140   1.990   0.680  2.5305 -0.2136  2.4663
10462TIP3    H252878   3.017   1.961   0.763 -1.3272  0.1026 -2.6576
10463TIP3   OH252879   0.449   4.856   5.825 -0.6211  0.7164 -0.1198
10463TIP3    H152880   0.523   4.911   5.800 -1.1685  1.2740 -0.5454
10463TIP3    H252881   0.379   4.882   5.766 -0.9399 -0.3375 -0.2344
10464TIP3   OH252882   5.682   2.971   5.337  0.3489 -1.2091  0.4846
10464TIP3    H152883   5.676   2.876   5.343  1.8114 -1.3127  0.4888
10464TIP3    H252884   5.768   2.993   5.373 -0.0037  0.1299  0.5849
10465TIP3   OH252885   2.692   5.524   0.298 -0.0950 -0.0101  0.0018
10465TIP3    H152886   2.652   5.582   0.364  1.3264  0.8700  0.1244
10465TIP3    H252887   2.717   5.446   0.347 -0.9781 -0.2720  0.0613
10466TIP3   OH252888   0.730   4.267  13.551 -0.7020  0.9091  0.1677
10466TIP3    H152889   0.636   4.245  13.550 -0.3746 -0.6542  0.0631
10466TIP3    H252890   0.758   4.249  13.641 -0.7219  2.5373  0.5286
10467TIP3   OH252891   6.590   6.651   6.212 -0.2554 -0.4200 -0.5611
10467TIP3    H152892   6.501   6.618   6.201 -0.0021 -0.9177 -1.1479
10467TIP3    H252893   6.591   6.734   6.164 -1.3546  1.3649  2.2234
10468TIP3   OH252894   5.858   2.703  15.620 -0.1570  0.3900  0.1727
10468TIP3    H152895   5.900   2.618  15.625 -2.0559 -0.5918  0.6290
10468TIP3    H252896   5.829   2.720  15.710  0.0960  1.4613  0.0619
10469TIP3   OH252897   3.264   4.045   0.108  0.4082 -0.5114 -0.5227
10469TIP3    H152898   3.307   4.071   0.189 -0.9074 -0.8172  0.2938
10469TIP3    H252899   3.171   4.058   0.125  0.0796 -1.0755 -1.8086
10470TIP3   OH252900   0.323   0.193  15.762 -0.0367 -0.2340 -0.1853
10470TIP3    H152901   0.379   0.236  15.697 -1.1391  0.1496 -0.9174
10470TIP3    H252902   0.234   0.204  15.728 -0.6781  0.1779  1.5124
10471TIP3   OH252903   6.083   4.671   0.236  0.3288  0.1498 -0.0494
10471TIP3    H152904   6.118   4.739   0.179  0.8972  0.7797  1.0283
10471TIP3    H252905   5.988   4.684   0.234  0.3122 -0.0644 -1.1152
10472TIP3   OH252906   4.434   5.977   6.669 -0.1648  0.0932 -0.0564
10472TIP3    H152907   4.449   6.056   6.617  0.6813 -0.5069 -0.7455
10472TIP3    H252908   4.386   5.919   6.610  0.6886 -0.5480 -0.1302
10473TIP3   OH252909   2.187   1.470   4.365  0.2100 -0.2065  0.0217
10473TIP3    H152910   2.272   1.453   4.406 -0.2464 -0.4864  0.8708
10473TIP3    H252911   2.133   1.506   4.435 -0.3334  0.1075 -0.5477
10474TIP3   OH252912   0.694   5.089   0.934 -0.1132 -0.3491  0.1125
10474TIP3    H152913   0.735   5.003   0.935  2.5407  0.7579 -1.6996
10474TIP3    H252914   0.691   5.113   0.841 -0.9236  1.4403  0.5661
10475TIP3   OH252915   4.690   3.767   3.225  0.0313  1.0021  0.4260
10475TIP3    H152916   4.654   3.845   3.268  0.6205  0.4425  2.0459
10475TIP3    H252917   4.785   3.774   3.240  0.0526 -0.2170  1.0070
10476TIP3   OH252918   2.389   1.675  16.935 -0.1711 -0.1135 -0.2869
10476TIP3    H152919   2.396   1.580  16.947  1.2458  0.1459  1.3659
10476TIP3    H252920   2.401   1.689  16.841  1.2245 -1.4635 -0.3401
10477TIP3   OH252921   2.149   6.479   4.423 -0.4081  0.4550 -0.0609
10477TIP3    H152922   2.072   6.460   4.476  2.4606 -0.6180  4.2531
10477TIP3    H252923   2.211   6.409   4.445  1.7285  1.0091 -3.6031
10478TIP3   OH252924   5.132   3.408  15.154  0.0360 -0.7795  0.4619
10478TIP3    H152925   5.119   3.320  15.118 -0.4304 -0.3246 -0.5111
10478TIP3    H252926   5.224   3.409  15.183 -0.0745 -1.7092  0.8716
10479TIP3   OH252927   1.814   0.613  16.204  0.9831 -0.2766  0.1237
10479TIP3    H152928   1.805   0.607  16.299 -0.3462  1.2710  0.1438
10479TIP3    H252929   1.727   0.590  16.170  1.2515 -0.1455 -0.6879
10480TIP3   OH252930   0.121   1.299  12.540 -0.2869  0.0914  0.3669
10480TIP3    H152931   0.171   1.223  12.568  1.6477  0.3450 -2.0182
10480TIP3    H252932   0.123   1.295  12.444 -0.1283  3.0888  0.1385
10481TIP3   OH252933   2.914   4.888  13.592 -0.1753  0.8919 -0.4313
10481TIP3    H152934   2.936   4.939  13.670  0.2493  0.2179 -0.1028
10481TIP3    H252935   2.996   4.847  13.566 -0.4999  0.4215 -0.7299
10482TIP3   OH252936   6.270   3.152  10.558 -0.4015  0.1300 -1.0563
10482TIP3    H152937   6.226   3.081  10.510 -2.0044 -0.8345  1.5822
10482TIP3    H252938   6.201   3.215  10.575  0.0946  0.4028 -0.0079
10483TIP3   OH252939   5.250   6.209  14.672 -0.5626 -0.1073 -0.2408
10483TIP3    H152940   5.282   6.119  14.666  1.6945  0.4839  1.3844
10483TIP3    H252941   5.167   6.209  14.623 -1.0560 -3.2337  0.3717
10484TIP3   OH252942   3.875   4.403  15.390  0.1765  0.3788 -0.0537
10484TIP3    H152943   3.897   4.494  15.372 -0.0442  0.3918 -0.2527
10484TIP3    H252944   3.938   4.353  15.337 -1.0096  0.4140 -1.5539
10485TIP3   OH252945   4.969   3.350   5.050  0.0916  0.3190 -0.0920
10485TIP3    H152946   4.911   3.314   4.983 -0.3212  2.1426 -0.7719
10485TIP3    H252947   5.057   3.339   5.015 -0.0445  0.2133 -0.4033
10486TIP3   OH252948   6.229   6.382   1.786  0.0450 -0.3255 -0.3060
10486TIP3    H152949   6.134   6.372   1.797  0.0927 -0.6561 -0.1879
10486TIP3    H252950   6.267   6.313   1.841  0.4295  1.2360  1.4767
10487TIP3   OH252951   5.955   0.971  16.664  0.0919  0.1398 -0.9578
10487TIP3    H152952   5.890   1.041  16.663 -1.1482 -0.9811 -1.7904
10487TIP3    H252953   5.931   0.914  16.591  0.7787 -1.4052 -0.0350
10488TIP3   OH252954   5.315   4.503  14.575 -0.2310 -0.4742  0.7006
10488TIP3    H152955   5.256   4.568  14.613  0.4693  1.6876 -1.6506
10488TIP3    H252956   5.278   4.483  14.489  1.8165  0.1981 -0.4258
10489TIP3   OH252957   0.149   3.801   3.942 -0.0578 -0.1892  0.4228
10489TIP3    H152958   0.062   3.823   3.907  0.0653 -0.1523  0.1353
10489TIP3    H252959   0.152   3.706   3.941  0.1902 -0.1840 -0.2946
10490TIP3   OH252960   1.669   2.625   3.039  0.1085  0.0499 -0.0731
10490TIP3    H152961   1.639   2.539   3.011  0.7489 -0.3540  0.4492
10490TIP3    H252962   1.713   2.662   2.962 -1.8996  0.7770 -0.9519
10491TIP3   OH252963   5.357   5.196  12.713  0.4802  0.0842 -0.9749
10491TIP3    H152964   5.308   5.123  12.751  0.5681 -0.1816 -1.3688
10491TIP3    H252965   5.420   5.154  12.654  1.2444  0.4172 -0.4081
10492TIP3   OH252966   2.752   5.551  11.845  0.4067 -0.1174  0.7620
10492TIP3    H152967   2.712   5.617  11.789  0.4977 -0.8066 -0.1404
10492TIP3    H252968   2.679   5.510  11.889  0.3281  0.3774  1.1021
10493TIP3   OH252969   1.545   1.168   1.800 -0.3255  0.3681 -0.1743
10493TIP3    H152970   1.510   1.095   1.851 -0.9696 -0.2511 -1.4631
10493TIP3    H252971   1.518   1.246   1.848 -1.9823 -0.1513 -0.2100
10494TIP3   OH252972   1.821   0.690  14.795 -0.1704 -0.2526 -0.3190
10494TIP3    H152973   1.830   0.596  14.813  0.0933 -0.3800 -1.0783
10494TIP3    H252974   1.779   0.694  14.709  0.5876  0.3158 -0.6728
10495TIP3   OH252975   4.138   5.708  14.096  0.3610  0.3102  0.1798
10495TIP3    H152976   4.044   5.720  14.112  0.0129  1.0806 -2.0275
10495TIP3    H252977   4.171   5.666  14.175 -1.7649  0.4000  1.1814
10496TIP3   OH252978   3.002   6.191   3.974  0.2361 -0.4439  0.2781
10496TIP3    H152979   2.910   6.197   3.998  0.2300 -0.2464  0.2106
10496TIP3    H252980   3.010   6.247   3.896  0.0808 -1.7423 -0.6996
10497TIP3   OH252981   1.714   0.756   5.119 -0.3922  0.4008 -0.4766
10497TIP3    H152982   1.696   0.801   5.202  1.0837  1.1381 -0.5265
10497TIP3    H252983   1.692   0.821   5.052  1.1071  0.8459 -0.5683
10498TIP3   OH252984   2.291   1.482   5.239  0.0096 -0.2654  0.0273
10498TIP3    H152985   2.225   1.479   5.308  0.6022  0.5727  0.6614
10498TIP3    H252986   2.246   1.524   5.165 -0.1943  0.2602  0.4371
10499TIP3   OH252987   5.994   4.874  17.056 -0.2044  0.7902 -0.3439
10499TIP3    H152988   6.005   4.907  16.967  2.0439  1.0197 -0.0222
10499TIP3    H252989   5.919   4.814  17.050  0.6440 -0.1374 -2.6503
10500TIP3   OH252990   6.459   6.827   6.047 -0.5608  0.0001  0.0919
10500TIP3    H152991   6.365   6.812   6.058 -0.7654 -0.6200 -2.0767
10500TIP3    H252992   6.468   6.922   6.047 -1.2837  0.0744 -0.3615
10501TIP3   OH252993   6.513   4.038   4.110  0.4627 -0.0795 -0.9013
10501TIP3    H152994   6.436   4.042   4.053  0.8077  3.0402 -1.3106
10501TIP3    H252995   6.498   3.961   4.165 -2.0713 -0.5863 -2.1430
10502TIP3   OH252996   4.153   4.523   3.119  0.3468 -0.0892  0.2030
10502TIP3    H152997   4.206   4.554   3.193  1.9825  0.3513 -1.0933
10502TIP3    H252998   4.076   4.579   3.119 -0.4157 -1.0104  2.4007
10503TIP3   OH252999   1.886   2.121  13.227  0.0915  0.5954 -0.0211
10503TIP3    H153000   1.902   2.181  13.153  0.0610  0.9983  0.2971
10503TIP3    H253001   1.902   2.174  13.305 -0.7291  0.4109  0.2752
10504TIP3   OH253002   3.586   1.347   1.606 -0.5036 -0.0259  0.2090
10504TIP3    H153003   3.516   1.413   1.611 -0.4295  0.0954 -0.3192
10504TIP3    H253004   3.597   1.317   1.696 -1.3239 -0.1370  0.2792
10505TIP3   OH253005   5.190   4.715  15.992 -0.0684 -0.5125 -0.9677
10505TIP3    H153006   5.138   4.763  15.928 -0.1292 -1.4726 -1.6523
10505TIP3    H253007   5.166   4.754  16.076 -1.1544 -0.2802 -1.3695
10506TIP3   OH253008   4.396   4.556   5.390  0.0815 -0.4970 -0.0621
10506TIP3    H153009   4.393   4.563   5.485  0.9715 -2.8061  0.2216
10506TIP3    H253010   4.354   4.636   5.358 -0.0243  0.4481  2.2456
10507TIP3   OH253011   5.996   5.695   5.889 -0.1612  0.2236 -0.9092
10507TIP3    H153012   5.905   5.690   5.861  0.0250  1.3262 -1.7607
10507TIP3    H253013   5.991   5.735   5.976 -0.5873 -1.3427 -0.1655
10508TIP3   OH253014   4.582   3.999   1.302 -0.7727 -0.5032 -0.2597
10508TIP3    H153015   4.572   4.007   1.207  2.6461 -1.5782 -0.8755
10508TIP3    H253016   4.610   4.086   1.330  0.9342 -0.8322 -0.7922
10509TIP3   OH253017   0.013   1.038  14.325  0.6248  0.0487 -0.0835
10509TIP3    H153018   0.011   1.057  14.231 -1.3614 -0.7084 -0.2351
10509TIP3    H253019   0.091   0.984  14.337  0.3646 -0.6669 -1.4763
10510TIP3   OH253020   2.248   5.189  16.167 -0.9237  0.0164 -0.7048
10510TIP3    H153021   2.284   5.115  16.119 -2.0169 -0.3329 -1.0051
10510TIP3    H253022   2.281   5.178  16.256 -0.8660 -0.6870 -0.8110
10511TIP3   OH253023   4.180   0.353  14.655  0.5006 -0.1410  0.4233
10511TIP3    H153024   4.137   0.417  14.712  1.1011  2.5244 -1.8895
10511TIP3    H253025   4.254   0.321  14.707  0.0257  0.8342  1.7608
10512TIP3   OH253026   4.382   4.272   4.916 -0.1557 -0.3193  0.1167
10512TIP3    H153027   4.475   4.247   4.915 -0.2545 -0.6934 -0.6509
10512TIP3    H253028   4.336   4.194   4.884 -0.7596 -0.2185  0.7312
10513TIP3   OH253029   1.880   1.584   3.360 -0.0071 -0.3369  0.1390
10513TIP3    H153030   1.848   1.652   3.419  0.6293  1.3103 -1.3337
10513TIP3    H253031   1.802   1.554   3.313 -0.2658 -0.5124  0.6780
10514TIP3   OH253032   6.247   4.855  11.170 -0.0800 -0.1424 -0.6687
10514TIP3    H153033   6.160   4.878  11.204 -0.1453 -1.2769 -0.0244
10514TIP3    H253034   6.244   4.760  11.157  0.9674 -0.1560 -0.9107
10515TIP3   OH253035   0.947   1.233  15.359 -0.3414  0.0503  0.3428
10515TIP3    H153036   0.991   1.282  15.289 -0.6291  0.7008  0.6029
10515TIP3    H253037   0.876   1.186  15.314  1.7788 -2.6547 -0.4332
10516TIP3   OH253038   1.948   2.496  11.975 -0.1302  0.0526 -0.5164
10516TIP3    H153039   1.928   2.564  11.910 -2.4224  0.5204  0.5480
10516TIP3    H253040   1.938   2.414  11.928 -0.0157  0.4087 -1.1770
10517TIP3   OH253041   0.481   0.252   2.588  0.2761 -0.0604 -0.0969
10517TIP3    H153042   0.419   0.326   2.585  1.9134  1.3635 -0.2563
10517TIP3    H253043   0.491   0.234   2.681  0.3603  0.3707 -0.0176
10518TIP3   OH253044   0.494   3.283  13.002 -0.1168 -0.1540  0.3523
10518TIP3    H153045   0.504   3.329  12.919 -0.0733 -1.3281 -0.3213
10518TIP3    H253046   0.399   3.274  13.013 -0.2916  2.5347  1.9262
10519TIP3   OH253047   1.720   0.601   4.385 -1.1142 -0.0019 -0.0247
10519TIP3    H153048   1.747   0.547   4.459 -1.1740  0.0730  0.0501
10519TIP3    H253049   1.627   0.584   4.375 -0.9991 -0.4324 -0.4246
10520TIP3   OH253050   0.057   0.033   0.923 -0.4751 -0.1424 -0.5402
10520TIP3    H153051  -0.007   0.012   0.991 -1.0319  2.8780 -0.0180
10520TIP3    H253052   0.008   0.083   0.858  1.0048  0.9802 -0.8479
10521TIP3   OH253053   2.199   5.906  17.046 -0.2102  0.3002 -0.3532
10521TIP3    H153054   2.274   5.851  17.067  0.3030  1.5146  1.2253
10521TIP3    H253055   2.225   5.994  17.075 -1.4248  1.1714 -1.7454
10522TIP3   OH253056   1.233   1.327   0.315  0.1455  0.1460 -0.1766
10522TIP3    H153057   1.161   1.343   0.253 -0.5778 -0.5464  0.4686
10522TIP3    H253058   1.213   1.383   0.390 -0.7383 -1.3746  0.7801
10523TIP3   OH253059   0.484   4.104   5.089 -0.1615 -0.4745 -0.0296
10523TIP3    H153060   0.389   4.094   5.076 -0.3093  1.0064 -0.2791
10523TIP3    H253061   0.522   4.086   5.003 -0.4240  1.0295 -0.4902
10524TIP3   OH253062   4.107   0.363   6.342  0.2991  0.8031 -0.8044
10524TIP3    H153063   4.168   0.297   6.309  1.6365  1.6405 -0.0937
10524TIP3    H253064   4.035   0.313   6.380  1.0908 -0.2423 -0.6415
10525TIP3   OH253065   3.495   4.484  15.406  0.1606 -0.0876 -0.1131
10525TIP3    H153066   3.448   4.567  15.405  1.3380  0.6038 -0.0927
10525TIP3    H253067   3.567   4.496  15.344 -0.5904 -1.6771 -1.3791
10526TIP3   OH253068   4.471   2.124  15.321 -0.5096  0.0167  0.1225
10526TIP3    H153069   4.396   2.183  15.314  0.9459  1.7644 -1.9495
10526TIP3    H253070   4.488   2.096  15.231  1.3948 -0.2276  0.5249
10527TIP3   OH253071   3.229   2.463   5.638  0.2201  0.3714  0.6266
10527TIP3    H153072   3.322   2.468   5.657  0.0763 -0.7961  1.7779
10527TIP3    H253073   3.218   2.511   5.557  1.4960  2.3408  1.5481
10528TIP3   OH253074   0.619   1.077  15.092 -0.5138  0.3037  0.7277
10528TIP3    H153075   0.644   0.985  15.104  0.0113  0.3785  0.2175
10528TIP3    H253076   0.637   1.117  15.177 -1.1629 -0.1488  1.0951
10529TIP3   OH253077   3.862   4.424   0.792 -0.4562 -0.0301 -0.6201
10529TIP3    H153078   3.793   4.469   0.840  1.7022 -0.3939  3.1913
10529TIP3    H253079   3.929   4.491   0.777  0.1984 -0.6055 -0.3391
10530TIP3   OH253080   1.461   6.667   4.476  0.3386  0.5513  0.4779
10530TIP3    H153081   1.489   6.598   4.535 -2.2683  1.2932  2.7619
10530TIP3    H253082   1.457   6.624   4.390  0.6109 -1.6054  1.4734
10531TIP3   OH253083   4.628   5.628  12.644 -0.3767 -0.6195 -0.2655
10531TIP3    H153084   4.691   5.556  12.654 -0.5442 -0.8085 -0.5455
10531TIP3    H253085   4.647   5.687  12.717 -0.1499 -0.8839 -0.1070
10532TIP3   OH253086   4.579   5.446  16.242  0.4485 -0.0230 -0.3142
10532TIP3    H153087   4.663   5.488  16.224 -0.0040  1.7782  1.4858
10532TIP3    H253088   4.600   5.374  16.301  0.7913  0.1102 -0.2705
10533TIP3   OH253089   1.570   1.530   3.634  0.3549  0.4966 -0.1968
10533TIP3    H153090   1.494   1.579   3.666 -0.2774 -1.3406  1.2989
10533TIP3    H253091   1.639   1.546   3.698  0.7332  0.8624 -0.6836
10534TIP3   OH253092   0.712   2.193  14.961  0.2139  0.2258  0.2262
10534TIP3    H153093   0.710   2.231  15.049 -2.4197  0.1145  0.2853
10534TIP3    H253094   0.625   2.209  14.926  0.5515 -1.5465 -1.6068
10535TIP3   OH253095   2.567   0.018  14.421 -0.1769  0.0633 -0.5513
10535TIP3    H153096   2.540   0.073  14.347  0.9605  0.5400 -0.6420
10535TIP3    H253097   2.615   0.078  14.479 -1.4873 -0.1904  0.8550
10536TIP3   OH253098   3.225   3.206  14.683  0.6796  0.8290 -0.8001
10536TIP3    H153099   3.160   3.161  14.737  3.4108 -0.4572  1.6859
10536TIP3    H253100   3.305   3.155  14.693  2.3045  2.6328 -3.2397
10537TIP3   OH253101   2.943   1.076   3.563  0.5161 -0.4586 -0.0010
10537TIP3    H153102   2.896   1.004   3.605 -2.4919  0.7853 -1.0145
10537TIP3    H253103   2.901   1.155   3.596  0.3614  0.6639 -2.6264
10538TIP3   OH253104   1.906   1.743   0.543  0.3665 -0.8687 -0.4733
10538TIP3    H153105   1.822   1.767   0.505  0.3383  1.3430  0.8449
10538TIP3    H253106   1.883   1.706   0.628  0.7015 -0.4602 -0.2029
10539TIP3   OH253107   1.593   4.421  14.303  0.0900 -0.4342  0.1301
10539TIP3    H153108   1.586   4.373  14.221 -0.0087 -0.1541 -0.0278
10539TIP3    H253109   1.627   4.357  14.366 -0.2728 -0.7728 -0.0166
10540TIP3   OH253110   4.305   6.504   5.467  0.5217 -0.4861 -0.3847
10540TIP3    H153111   4.247   6.471   5.536  0.6237 -0.0788 -0.0991
10540TIP3    H253112   4.312   6.598   5.484  1.2321 -0.5215 -0.4408
10541TIP3   OH253113   3.397   1.598  15.063  0.0648 -0.2960  0.9384
10541TIP3    H153114   3.456   1.583  15.136  0.9470  0.3094  0.3720
10541TIP3    H253115   3.416   1.528  15.001 -1.3038 -1.3345  1.6347
10542TIP3   OH253116   2.317   3.243  13.876  0.1905  0.2588  0.1389
10542TIP3    H153117   2.317   3.235  13.971  0.8575  1.6088  0.2739
10542TIP3    H253118   2.382   3.179  13.847 -1.1217 -1.2642  0.4463
10543TIP3   OH253119   5.123   4.174   1.563  0.4098  0.1127 -0.1310
10543TIP3    H153120   5.069   4.147   1.488  1.8488 -1.7921 -0.5511
10543TIP3    H253121   5.070   4.150   1.640 -0.1930  0.1156 -0.5401
10544TIP3   OH253122   2.997   1.327  15.105 -0.7456 -0.1369 -0.3795
10544TIP3    H153123   2.941   1.322  15.182 -1.3159  1.5547 -0.6507
10544TIP3    H253124   2.998   1.238  15.070 -2.8127 -0.3382 -0.0404
10545TIP3   OH253125   6.363   0.316   2.743  0.3868 -0.5282 -0.2352
10545TIP3    H153126   6.383   0.230   2.780 -0.5612 -0.9229 -0.5957
10545TIP3    H253127   6.400   0.378   2.805 -1.5798 -1.1520  1.6852
10546TIP3   OH253128   3.731   0.980  12.596 -0.5446 -0.0514 -0.0957
10546TIP3    H153129   3.756   0.889  12.607  1.9287  0.7014  1.6216
10546TIP3    H253130   3.743   1.019  12.683  0.2284  2.2441 -1.1418
10547TIP3   OH253131   2.978   3.317  14.123 -0.0852 -0.2312 -0.3211
10547TIP3    H153132   2.939   3.338  14.208 -0.9309 -1.4557 -0.3788
10547TIP3    H253133   2.970   3.222  14.116 -1.1572 -0.0472 -2.3106
10548TIP3   OH253134   1.982   2.366  11.568 -0.0225 -0.2010 -0.5109
10548TIP3    H153135   1.971   2.387  11.475  2.4117 -2.0175 -1.2967
10548TIP3    H253136   1.899   2.326  11.593 -1.5207  2.1992 -1.2564
10549TIP3   OH253137   5.957   4.670  16.220  0.1178 -0.4226 -0.2121
10549TIP3    H153138   6.048   4.701  16.220 -0.4072  1.2675 -1.6551
10549TIP3    H253139   5.942   4.642  16.130 -0.8776 -0.4268 -0.0475
10550TIP3   OH253140   5.644   2.026   6.421  0.2054 -0.3978  0.0168
10550TIP3    H153141   5.714   2.072   6.467  2.2986 -0.7695 -2.5745
10550TIP3    H253142   5.623   1.951   6.476  2.3536 -0.6413  0.5740
10551TIP3   OH253143   5.970   1.565  15.537 -0.1849  0.4468  0.6245
10551TIP3    H153144   5.882   1.551  15.503  0.3825  0.3428 -0.9023
10551TIP3    H253145   5.958   1.623  15.613 -1.4786  1.2412 -0.1405
10552TIP3   OH253146   4.731   2.992  14.833  0.3951  0.0348  0.0549
10552TIP3    H153147   4.767   2.962  14.750  0.8561  0.4768  0.0877
10552TIP3    H253148   4.728   3.087  14.825 -0.5388  0.0181  0.1541
10553TIP3   OH253149   1.314   2.455  13.976  0.2581  0.6208  0.8991
10553TIP3    H153150   1.262   2.536  13.975  0.9171  1.1014 -1.5370
10553TIP3    H253151   1.351   2.450  13.888  1.9327 -1.2660  1.6475
10554TIP3   OH253152   3.031   2.587   3.689 -0.5809 -0.1204 -0.3948
10554TIP3    H153153   3.097   2.581   3.620 -1.4648  2.8110 -1.6318
10554TIP3    H253154   3.036   2.503   3.734  0.8781 -1.7154 -3.2538
10555TIP3   OH253155   2.158   3.386   2.923 -0.0045  0.1398 -0.6214
10555TIP3    H153156   2.123   3.301   2.949  0.0615 -0.1780 -1.5263
10555TIP3    H253157   2.176   3.377   2.830 -1.0170  1.4914 -0.9856
10556TIP3   OH253158   2.575   1.100   4.608  0.5313  0.2496 -0.0749
10556TIP3    H153159   2.629   1.040   4.557 -0.8845 -1.3353  0.2231
10556TIP3    H253160   2.501   1.121   4.552  0.6027  1.1027  0.1286
10557TIP3   OH253161   1.022   4.431   5.296  0.2435 -0.2875 -0.2139
10557TIP3    H153162   0.928   4.440   5.276 -0.1448 -0.3894  1.4661
10557TIP3    H253163   1.032   4.340   5.324  0.9847 -0.4443 -0.9258
10558TIP3   OH253164   6.346   4.762   6.527 -0.5083 -0.2285  0.0335
10558TIP3    H153165   6.270   4.740   6.581  0.0644 -0.6989  0.6612
10558TIP3    H253166   6.385   4.838   6.570 -1.6538  1.1895 -1.3219
10559TIP3   OH253167   4.256   3.721  16.123  0.7283 -0.1845  0.3517
10559TIP3    H153168   4.324   3.743  16.059  0.8293 -0.5203  0.3464
10559TIP3    H253169   4.189   3.675  16.072 -0.1914  1.4023  0.0598
10560TIP3   OH253170   3.425   1.510   3.888 -0.1767  0.2093  0.1935
10560TIP3    H153171   3.352   1.486   3.945 -3.0246  2.5799 -2.1313
10560TIP3    H253172   3.491   1.545   3.948 -2.1325  0.6453  2.2332
10561TIP3   OH253173   6.688   3.054  12.450  0.2229  0.1538 -0.1135
10561TIP3    H153174   6.693   3.012  12.536 -2.7658 -0.1175  0.0095
10561TIP3    H253175   6.716   2.986  12.389  1.3393  0.0063  0.5327
10562TIP3   OH253176   5.506   1.365  12.996  0.5606 -0.3679  0.0183
10562TIP3    H153177   5.558   1.293  12.958  0.6121 -0.4553  0.2544
10562TIP3    H253178   5.572   1.425  13.030  0.5041 -0.6590  0.6527
10563TIP3   OH253179   4.980   3.030   1.476 -0.4529 -0.2046 -0.2173
10563TIP3    H153180   4.939   3.117   1.478 -2.0070 -0.9106  1.7030
10563TIP3    H253181   5.036   3.028   1.553 -0.5311 -0.9527 -0.1727
10564TIP3   OH253182   5.922   4.477  11.968 -0.0035 -0.5690 -0.5413
10564TIP3    H153183   5.889   4.444  12.052 -0.7287 -0.2281 -0.6838
10564TIP3    H253184   5.986   4.412  11.940  1.9790  0.4170  1.3582
10565TIP3   OH253185   6.773   6.035  13.180 -0.4164  0.6527 -0.5665
10565TIP3    H153186   6.783   5.954  13.230 -0.5365  0.8416 -0.2331
10565TIP3    H253187   6.740   6.006  13.095 -3.4655  0.5339  0.5038
10566TIP3   OH253188   1.808   5.625   3.140 -0.2641  0.3887  0.3497
10566TIP3    H153189   1.723   5.616   3.097 -0.4671 -0.3597  0.8703
10566TIP3    H253190   1.810   5.715   3.172 -0.9366  0.3615  0.4804
10567TIP3   OH253191   0.840   0.599   1.109  0.0340  0.6907  0.8577
10567TIP3    H153192   0.765   0.616   1.053 -0.4694  0.1878  1.3685
10567TIP3    H253193   0.821   0.516   1.151  1.2625  0.1325  0.3646
10568TIP3   OH253194   0.652   4.373   4.484 -0.8229 -0.3348  0.3438
10568TIP3    H153195   0.700   4.447   4.519  1.2636 -1.9039  1.0033
10568TIP3    H253196   0.564   4.383   4.518 -0.9443  2.3939 -0.5076
10569TIP3   OH253197   2.068   4.117   2.270 -0.4786  0.0726 -0.0070
10569TIP3    H153198   1.973   4.124   2.257 -0.3340  0.7002 -0.8210
10569TIP3    H253199   2.088   4.026   2.246 -0.8601 -0.0237  0.0330
10570TIP3   OH253200   3.941   5.629   4.265 -0.3163  0.6516 -0.1768
10570TIP3    H153201   3.866   5.600   4.213 -1.8862  1.5046  1.4960
10570TIP3    H253202   3.975   5.549   4.306 -1.3347  0.4496  0.3009
10571TIP3   OH253203   5.608   2.513  10.809 -0.1532 -0.6543  0.2929
10571TIP3    H153204   5.651   2.474  10.733 -0.9493 -2.0183  0.5207
10571TIP3    H253205   5.516   2.517  10.785  0.0612  2.8760 -0.4669
10572TIP3   OH253206   3.459   1.748  11.360 -0.1923 -0.0906 -0.0560
10572TIP3    H153207   3.466   1.683  11.289 -0.8537  1.1581 -1.3081
10572TIP3    H253208   3.549   1.775  11.376 -0.0648 -0.0893 -0.7218
10573TIP3   OH253209   1.051   0.277   0.432  0.6478  0.6119  0.0232
10573TIP3    H153210   1.135   0.279   0.479  0.6443  4.4164  0.1777
10573TIP3    H253211   0.986   0.302   0.498 -0.2594  0.0742 -0.6548
10574TIP3   OH253212   1.097   1.535   1.534 -0.9522  0.0311  0.1502
10574TIP3    H153213   1.062   1.570   1.616 -0.1260 -0.9717  0.9657
10574TIP3    H253214   1.051   1.452   1.522 -0.1197 -0.4777  0.3394
10575TIP3   OH253215   0.898   0.589  11.115 -0.6659 -0.1857  0.0292
10575TIP3    H153216   0.871   0.674  11.078 -0.0544  0.4658  1.0186
10575TIP3    H253217   0.983   0.607  11.155 -0.1453 -1.4790 -0.4486
10576TIP3   OH253218   2.448   2.894   5.417 -0.7316  0.3181  0.3922
10576TIP3    H153219   2.453   2.861   5.506 -1.3993  0.8723  0.6485
10576TIP3    H253220   2.538   2.915   5.393 -0.0803 -2.6608 -0.1953
10577TIP3   OH253221   2.881   1.533  14.745  0.1749  0.1328 -0.0545
10577TIP3    H153222   2.834   1.613  14.766 -1.3905 -0.7236 -0.1605
10577TIP3    H253223   2.955   1.532  14.806 -0.3936  1.1097  0.6748
10578TIP3   OH253224   3.938   6.003   5.604  0.1704 -0.6174  0.1643
10578TIP3    H153225   3.917   5.910   5.618 -0.1726 -0.6732 -0.6735
10578TIP3    H253226   3.976   6.006   5.517  2.4104 -0.2988  1.1001
10579TIP3   OH253227   5.610   2.101  13.452 -0.4636  0.3433  0.1336
10579TIP3    H153228   5.583   2.191  13.439 -3.2296 -0.3556  0.4991
10579TIP3    H253229   5.644   2.073  13.367 -2.3080  0.8970 -0.8212
10580TIP3   OH253230   5.270   5.812   1.955  0.4112  0.1910  0.3778
10580TIP3    H153231   5.279   5.848   1.866 -1.0250 -0.7635 -0.1882
10580TIP3    H253232   5.208   5.871   1.998  1.1163  0.6604  0.7869
10581TIP3   OH253233   5.841   3.877   5.109  0.2451  0.2307 -0.3959
10581TIP3    H153234   5.870   3.825   5.184 -0.8380  0.1779  0.0071
10581TIP3    H253235   5.820   3.813   5.041  0.3117  0.2316 -0.4180
10582TIP3   OH253236   1.712   2.266  11.605  0.2041  0.6451 -0.1073
10582TIP3    H153237   1.620   2.293  11.607  0.1763  0.5454 -0.0739
10582TIP3    H253238   1.709   2.171  11.592  0.3125  0.9688 -3.2386
10583TIP3   OH253239   2.423   5.336   0.331  0.5470  0.6306 -0.3340
10583TIP3    H153240   2.431   5.387   0.412 -1.0770  1.2272 -0.5067
10583TIP3    H253241   2.346   5.373   0.288  0.4167 -0.7807 -1.3583
10584TIP3   OH253242   5.498   6.433  17.174 -0.2308 -0.3938 -0.0529
10584TIP3    H153243   5.470   6.378  17.247 -2.7664 -0.9851 -1.3482
10584TIP3    H253244   5.510   6.372  17.102 -0.4181  0.4414 -0.8091
10585TIP3   OH253245   0.694   4.649  15.825  0.0938 -0.4333 -0.5032
10585TIP3    H153246   0.649   4.565  15.826 -1.5019  0.3495 -1.5937
10585TIP3    H253247   0.632   4.709  15.783  1.6674  1.0202 -0.8799
10586TIP3   OH253248   2.061   4.904  11.900  0.2938  0.0138  0.0595
10586TIP3    H153249   2.093   4.823  11.938  0.7742  0.6582  1.0585
10586TIP3    H253250   2.096   4.904  11.811 -0.6524 -1.3976 -0.3538
10587TIP3   OH253251   6.059   6.054  12.715  0.6094 -0.0841 -0.0306
10587TIP3    H153252   6.127   6.117  12.737  0.4336 -0.3075  1.3009
10587TIP3    H253253   5.999   6.101  12.658  1.3814  0.4078 -0.4496
10588TIP3   OH253254   3.034   6.024   6.095 -0.0764  0.1250 -0.0062
10588TIP3    H153255   2.976   5.999   6.166 -0.5956 -0.8065 -0.7351
10588TIP3    H253256   3.122   6.024   6.134 -0.3958  0.0510  0.7299
10589TIP3   OH253257   2.350   3.865  16.176 -0.1320  0.1613 -0.4132
10589TIP3    H153258   2.269   3.905  16.143 -1.8229 -0.5567  2.5279
10589TIP3    H253259   2.320   3.788  16.225  2.3795 -0.2551  0.6082
10590TIP3   OH253260   4.398   1.102   1.484  0.2427  0.6957 -0.1485
10590TIP3    H153261   4.361   1.099   1.572 -0.0019  2.5944 -0.1343
10590TIP3    H253262   4.369   1.021   1.442  0.6232 -0.3969  1.5944
10591TIP3   OH253263   5.857   1.387   3.086  0.5186  0.4529  0.6981
10591TIP3    H153264   5.848   1.357   3.176 -1.8397  1.8501  1.0252
10591TIP3    H253265   5.828   1.312   3.033  0.4469  0.1333  1.1784
10592TIP3   OH253266   3.936   2.242  14.681 -0.0920 -0.3622  0.8383
10592TIP3    H153267   3.901   2.320  14.723 -0.6536 -0.1181 -0.0684
10592TIP3    H253268   3.916   2.171  14.743 -2.0823 -0.2157  0.4331
10593TIP3   OH253269   6.141   0.838  13.450  0.3838 -0.0552  0.1212
10593TIP3    H153270   6.172   0.920  13.410 -0.7152  0.1804 -0.2714
10593TIP3    H253271   6.048   0.852  13.464  0.1439 -1.3188 -0.1174
10594TIP3   OH253272   3.400   4.630  12.122 -0.1541 -0.4462  0.4636
10594TIP3    H153273   3.385   4.676  12.039 -1.1063  0.5355  1.1617
10594TIP3    H253274   3.319   4.641  12.171 -0.2166 -2.3978  0.9049
10595TIP3   OH253275   1.834   2.978   3.266 -0.2117  0.1482  0.0487
10595TIP3    H153276   1.841   3.071   3.242 -2.3807  0.4782  0.4196
10595TIP3    H253277   1.759   2.947   3.216  1.3192 -1.8309 -1.1455
10596TIP3   OH253278   5.619   1.010  15.368 -0.2728 -1.0893 -0.0382
10596TIP3    H153279   5.639   1.013  15.274 -1.4015 -0.3172 -0.2784
10596TIP3    H253280   5.585   1.097  15.388 -1.0053 -1.5604  0.8632
10597TIP3   OH253281   3.271   1.528  12.620  0.1993  0.2146  0.3323
10597TIP3    H153282   3.340   1.463  12.629 -0.2077 -0.7157 -2.3152
10597TIP3    H253283   3.221   1.524  12.702  0.3519 -2.6149  0.3499
10598TIP3   OH253284   3.200   5.960  13.914 -0.2021  0.4321 -0.1677
10598TIP3    H153285   3.271   6.023  13.924  0.7075 -0.8570  2.0578
10598TIP3    H253286   3.143   5.976  13.989 -0.2348 -1.0314  0.1465
10599TIP3   OH253287   6.098   4.188   3.284  1.0439 -0.2191 -0.6953
10599TIP3    H153288   6.079   4.136   3.205  1.7877  1.1733 -1.8430
10599TIP3    H253289   6.016   4.188   3.333  0.6199 -1.3028 -1.3507
10600TIP3   OH253290   4.670   4.060  15.645 -0.4574  0.7102 -0.3270
10600TIP3    H153291   4.594   4.003  15.662 -0.8725  0.4716 -2.6370
10600TIP3    H253292   4.716   4.017  15.573 -0.9781  3.3710 -2.4265
10601TIP3   OH253293   5.515   0.754  11.248  0.3925 -0.4343  0.2640
10601TIP3    H153294   5.483   0.844  11.241 -1.0328 -0.9903 -0.7977
10601TIP3    H253295   5.583   0.748  11.181  0.9895  0.0254  0.8102
10602TIP3   OH253296   4.703   3.442  14.958  0.3263 -0.3762 -0.0983
10602TIP3    H153297   4.716   3.519  14.904  0.4622 -0.1294  0.2793
10602TIP3    H253298   4.691   3.476  15.047 -3.2510 -0.4952 -0.3691
10603TIP3   OH253299   1.920   5.650  10.763 -0.2688  0.1257 -0.4727
10603TIP3    H153300   1.957   5.644  10.674 -0.4145 -1.3008 -0.4639
10603TIP3    H253301   1.860   5.725  10.759  0.8884  1.0534 -1.1290
10604TIP3   OH253302   4.983   4.265   2.740  0.3845  0.7032  0.5432
10604TIP3    H153303   4.899   4.309   2.728 -0.7788 -1.3893  0.6318
10604TIP3    H253304   4.991   4.206   2.665 -0.1417 -1.9446  2.4113
10605TIP3   OH253305   1.057   0.868  15.965  0.1694 -0.1199 -0.5312
10605TIP3    H153306   0.980   0.819  15.935 -1.2156  0.8088  1.2767
10605TIP3    H253307   1.020   0.949  16.000  2.1269  0.8968 -0.7168
10606TIP3   OH253308   4.675   3.154  15.119 -0.3560  0.0133 -0.2098
10606TIP3    H153309   4.698   3.067  15.087 -0.3031  0.2662 -0.8778
10606TIP3    H253310   4.741   3.212  15.080 -0.9128  0.4683 -0.4927
10607TIP3   OH253311   5.519   5.882   5.667 -0.2687  0.3571  0.5338
10607TIP3    H153312   5.471   5.839   5.596  1.0047 -0.8243  0.3378
10607TIP3    H253313   5.528   5.814   5.734  1.2750  0.4637  0.4767
10608TIP3   OH253314   5.149   5.520  13.852 -0.4195  0.6711  0.5235
10608TIP3    H153315   5.147   5.460  13.778 -0.3535  1.4738 -0.1410
10608TIP3    H253316   5.101   5.597  13.821 -3.6951 -0.3378  2.5310
10609TIP3   OH253317   6.407   6.511   6.458  0.4006 -0.2074  0.3125
10609TIP3    H153318   6.491   6.521   6.504  0.2919 -2.2089  1.0268
10609TIP3    H253319   6.400   6.590   6.405  2.8688 -0.1016  0.0232
10610TIP3   OH253320   0.853   6.369   5.593  0.5090  0.2436  0.1738
10610TIP3    H153321   0.875   6.413   5.675 -0.8222  0.9668  0.1671
10610TIP3    H253322   0.916   6.298   5.587  0.9283  0.4585  1.5971
10611TIP3   OH253323   6.535   4.674  11.774 -0.5678  0.0605 -0.0039
10611TIP3    H153324   6.512   4.700  11.684 -1.4750  0.0460  0.2196
10611TIP3    H253325   6.630   4.659  11.770 -0.4446  0.9126 -0.7486
10612TIP3   OH253326   5.174   5.270   0.020  0.5877  0.3612 -0.3119
10612TIP3    H153327   5.257   5.276  -0.026  0.7589 -0.4184 -0.1312
10612TIP3    H253328   5.135   5.189  -0.013 -1.1326  1.8041 -2.0379
10613TIP3   OH253329   2.263   4.738   3.079 -0.7358  0.1746 -0.3787
10613TIP3    H153330   2.225   4.826   3.076 -0.3336  0.3339 -1.2720
10613TIP3    H253331   2.342   4.747   3.132 -0.1792  0.5744 -1.2548
10614TIP3   OH253332   3.166   6.709  12.022 -0.2395 -0.0152  0.0779
10614TIP3    H153333   3.214   6.648  11.967 -0.9804 -0.8354  0.3234
10614TIP3    H253334   3.168   6.791  11.974  1.5240  0.0378  0.1445
10615TIP3   OH253335   3.004   5.138   6.172  0.3089 -0.0059  0.1006
10615TIP3    H153336   3.085   5.142   6.222  0.1214 -0.1171  0.4149
10615TIP3    H253337   2.940   5.183   6.227  0.0392 -0.3680  0.0814
10616TIP3   OH253338   0.676   5.007   4.877 -0.1616  0.1188 -0.0230
10616TIP3    H153339   0.763   5.047   4.883 -0.1583  0.1178 -0.0672
10616TIP3    H253340   0.638   5.043   4.798 -0.1245 -0.0345 -0.1115
10617TIP3   OH253341   3.936   4.659  15.253 -0.3984  0.2091 -0.7675
10617TIP3    H153342   3.901   4.671  15.165  1.2181  0.7933 -1.3755
10617TIP3    H253343   3.977   4.743  15.274 -0.2590 -0.1111  0.3039
10618TIP3   OH253344   4.877   3.231  16.346 -0.2656  0.6507 -0.1144
10618TIP3    H153345   4.969   3.253  16.329 -0.6235  1.2644 -1.3960
10618TIP3    H253346   4.871   3.223  16.441  0.9579  1.3191  0.0357
10619TIP3   OH253347   5.082   0.460  12.866  0.5705  0.4516  0.2623
10619TIP3    H153348   5.049   0.374  12.894  0.8750  0.2998  0.1632
10619TIP3    H253349   5.072   0.516  12.943  1.1371  0.1090  0.5924
10620TIP3   OH253350   4.387   2.970  15.063 -0.1616  0.2831  0.7298
10620TIP3    H153351   4.414   3.027  14.992 -1.1662 -0.3546 -0.2003
10620TIP3    H253352   4.323   3.022  15.112 -0.6721  0.1574  0.2047
10621TIP3   OH253353   5.400   4.593   0.531  0.6189 -0.4727 -0.0377
10621TIP3    H153354   5.376   4.508   0.567  1.3995 -0.4935  0.4741
10621TIP3    H253355   5.496   4.594   0.535  0.5919  0.8617  0.9938
10622TIP3   OH253356   4.345   4.030   1.453 -0.4864  0.0758 -0.7036
10622TIP3    H153357   4.417   4.006   1.395 -0.8296 -0.3227 -0.9609
10622TIP3    H253358   4.266   4.003   1.407 -0.8372  0.9180 -0.6226
10623TIP3   OH253359   4.099   6.261   4.609 -0.4990 -0.0947  0.2948
10623TIP3    H153360   4.039   6.267   4.683 -0.7694  0.0529  0.0655
10623TIP3    H253361   4.083   6.341   4.558  0.7873  0.5931  0.9023
10624TIP3   OH253362   6.817   0.771   5.071 -0.1771  0.2552 -0.2808
10624TIP3    H153363   6.728   0.806   5.076 -0.1126  0.2546  1.5841
10624TIP3    H253364   6.814   0.693   5.127  0.4070 -1.1374 -2.1024
10625TIP3   OH253365   6.428   1.635  14.821  0.3845 -0.5011  0.2074
10625TIP3    H153366   6.523   1.628  14.826  0.2819 -1.2145  2.2660
10625TIP3    H253367   6.401   1.650  14.912 -1.6930 -3.8759  0.3155
10626TIP3   OH253368   6.197   5.584  14.979 -0.4218 -0.9767  0.0504
10626TIP3    H153369   6.175   5.583  15.072  1.0964  0.0782  0.4644
10626TIP3    H253370   6.268   5.521  14.971  2.2494  1.7384  0.4700
10627TIP3   OH253371   2.337   4.566   4.744  0.2776  0.5267  0.3615
10627TIP3    H153372   2.255   4.556   4.792  0.4980 -0.3644  0.5770
10627TIP3    H253373   2.400   4.594   4.809  0.4181 -0.0016  0.4602
10628TIP3   OH253374   1.808   2.113   5.484 -0.4763  0.2523  0.0362
10628TIP3    H153375   1.759   2.085   5.406  0.6118  0.0352 -0.5853
10628TIP3    H253376   1.897   2.127   5.453  0.0459 -0.1020  1.2958
10629TIP3   OH253377   1.729   1.007  14.522  0.1263 -0.4065  0.1092
10629TIP3    H153378   1.643   1.037  14.549  0.1829 -0.8420  0.7863
10629TIP3    H253379   1.774   1.086  14.490 -0.9982 -0.3947 -1.5909
10630TIP3   OH253380   5.678   2.417  12.447  0.3856  0.1511  0.1693
10630TIP3    H153381   5.765   2.414  12.486  0.0312 -1.7796  0.9241
10630TIP3    H253382   5.674   2.503  12.404  3.0761 -0.1703 -0.9220
10631TIP3   OH253383   6.188   6.474   0.885 -0.8150 -0.1547 -0.2951
10631TIP3    H153384   6.217   6.386   0.858 -0.4436  0.2083 -1.1261
10631TIP3    H253385   6.209   6.478   0.978  1.6113 -0.0194 -0.7751
10632TIP3   OH253386   3.588   2.081  13.969  0.2881 -0.2888  0.1454
10632TIP3    H153387   3.631   2.006  14.010 -1.4025  0.2259  3.1923
10632TIP3    H253388   3.645   2.156  13.990  0.6782 -0.3467 -0.6729
10633TIP3   OH253389   1.187   5.165  10.612  0.2181 -0.1024 -0.7148
10633TIP3    H153390   1.269   5.212  10.599  1.4125 -1.8344  0.2064
10633TIP3    H253391   1.142   5.171  10.527  0.2557  2.6517 -0.6362
10634TIP3   OH253392   4.647   3.724   3.885  0.4173 -0.5579  0.7038
10634TIP3    H153393   4.651   3.814   3.855  2.4023 -1.4827 -2.1295
10634TIP3    H253394   4.573   3.686   3.838 -0.5127 -0.4564  2.0042
10635TIP3   OH253395   2.743   0.486  11.199  0.2362  0.3614 -0.3069
10635TIP3    H153396   2.803   0.490  11.124  0.9367  0.0081  0.2229
10635TIP3    H253397   2.787   0.535  11.268  0.2100 -0.4465  0.2903
10636TIP3   OH253398   4.770   0.911  17.027 -0.1157 -0.0922 -0.0230
10636TIP3    H153399   4.740   0.940  16.941  2.0109  2.2125 -0.0742
10636TIP3    H253400   4.689   0.888  17.073 -1.3536 -0.7919 -2.3738
10637TIP3   OH253401   0.746   6.453  11.228 -0.1154  0.1860 -0.0597
10637TIP3    H153402   0.813   6.506  11.271  1.0608 -2.0911  1.0762
10637TIP3    H253403   0.786   6.426  11.146 -1.4528  2.5175 -1.6046
10638TIP3   OH253404   4.099   0.340  16.681 -0.3395 -0.1512  0.1678
10638TIP3    H153405   4.059   0.407  16.736 -1.1257  0.0201 -0.5830
10638TIP3    H253406   4.028   0.279  16.661  0.0436 -0.4644 -0.2683
10639TIP3   OH253407   5.449   1.446  12.383 -0.2692  0.3955  0.3005
10639TIP3    H153408   5.543   1.461  12.386 -0.1582 -0.1394 -0.2877
10639TIP3    H253409   5.416   1.484  12.465  0.4216  0.7943  0.4006
10640TIP3   OH253410   0.367   3.588   6.022  0.2870 -0.3840 -0.2004
10640TIP3    H153411   0.382   3.568   5.930  1.3549 -0.5694  0.0047
10640TIP3    H253412   0.287   3.540   6.044  0.3130 -0.7531 -0.8969
10641TIP3   OH253413   2.511   1.062  17.141  0.4899  0.0069 -0.5492
10641TIP3    H153414   2.498   1.099  17.229  2.5264 -2.3379  0.8876
10641TIP3    H253415   2.423   1.053  17.106 -0.3692  1.4207  1.0709
10642TIP3   OH253416   5.159   4.937   2.502  0.3683  0.2790  0.2633
10642TIP3    H153417   5.175   4.910   2.412  2.1127 -0.0894  0.6486
10642TIP3    H253418   5.138   5.031   2.496 -2.2055 -0.2957 -0.7400
10643TIP3   OH253419   0.711   2.906  14.808 -0.4760 -0.5074  0.3228
10643TIP3    H153420   0.797   2.942  14.830 -1.4194  1.0747  1.6243
10643TIP3    H253421   0.656   2.982  14.792 -2.0757 -1.4116  1.2125
10644TIP3   OH253422   5.991   0.850   4.703 -0.6258 -0.4093  0.1369
10644TIP3    H153423   5.916   0.900   4.670  1.2634  1.9757 -0.8080
10644TIP3    H253424   6.027   0.904   4.773  2.0017  0.1210 -1.4927
10645TIP3   OH253425   3.219   5.150   2.525 -0.2913  0.0478  0.3461
10645TIP3    H153426   3.282   5.093   2.481 -1.6705 -2.5315  1.5575
10645TIP3    H253427   3.272   5.196   2.591  0.8408  0.2081 -0.6281
10646TIP3   OH253428   3.640   1.681   4.041  0.4650 -0.1621  0.1437
10646TIP3    H153429   3.655   1.739   3.966  0.6126 -1.9167 -1.2295
10646TIP3    H253430   3.717   1.693   4.097  0.5911  0.7874 -0.2169
10647TIP3   OH253431   6.602   2.916  16.673 -0.1134  0.2416  0.2164
10647TIP3    H153432   6.548   2.932  16.751 -0.6037  0.5094 -0.1752
10647TIP3    H253433   6.598   2.821  16.661  0.4156  0.1320  0.8348
10648TIP3   OH253434   6.523   3.077  16.452  0.2704  0.6664 -1.1308
10648TIP3    H153435   6.428   3.081  16.438  0.0748 -0.7323 -0.3417
10648TIP3    H253436   6.535   3.008  16.517  1.8741  0.5563 -1.5087
10649TIP3   OH253437   6.005   0.161  14.609  0.1923  0.8363 -0.4384
10649TIP3    H153438   5.985   0.242  14.563  0.7452  2.1666  1.5464
10649TIP3    H253439   5.971   0.175  14.697  0.7890 -0.8854  0.1038
10650TIP3   OH253440   2.135   2.515  15.699  0.3729 -0.0468  0.3800
10650TIP3    H153441   2.121   2.572  15.774  0.3863 -1.2768  1.3588
10650TIP3    H253442   2.075   2.548  15.632  0.5491  1.2342  0.8249
10651TIP3   OH253443   1.175   2.520  11.530 -0.0378 -0.3118  0.0348
10651TIP3    H153444   1.100   2.461  11.523 -1.1404  0.4767  3.3782
10651TIP3    H253445   1.239   2.472  11.583  0.5811  0.1560 -0.2727
10652TIP3   OH253446   3.135   6.190   1.207 -0.2713  0.1272  0.2710
10652TIP3    H153447   3.208   6.147   1.161 -0.2693  1.0631 -0.6520
10652TIP3    H253448   3.165   6.197   1.298 -0.2778 -1.7923  0.4617
10653TIP3   OH253449   3.816   2.470   2.807  0.4833  0.0298  0.2944
10653TIP3    H153450   3.825   2.565   2.806  1.2489  0.0351 -2.7708
10653TIP3    H253451   3.722   2.455   2.797  0.3040  0.4087  1.2416
10654TIP3   OH253452   2.740   2.237   5.343  0.4331  0.3598  0.0229
10654TIP3    H153453   2.685   2.163   5.318  0.9406 -0.1858  0.5166
10654TIP3    H253454   2.829   2.206   5.331  0.6931  1.6770 -2.0848
10655TIP3   OH253455   3.677   6.531  15.223 -0.5678 -0.0969  0.7351
10655TIP3    H153456   3.624   6.564  15.150 -0.8779 -0.4351  0.8046
10655TIP3    H253457   3.630   6.454  15.254  0.0820 -0.5232  0.6638
10656TIP3   OH253458   5.134   2.944   5.743 -0.0956  0.5051  0.4732
10656TIP3    H153459   5.083   2.946   5.662  1.8399 -1.1411 -0.8859
10656TIP3    H253460   5.116   2.857   5.780  1.0809  0.2070  0.3837
10657TIP3   OH253461   5.157   2.878   0.658 -0.5746 -0.3445  0.1457
10657TIP3    H153462   5.220   2.845   0.722  1.0590  1.0598 -0.6645
10657TIP3    H253463   5.143   2.804   0.598  0.3197 -0.6778  0.3294
10658TIP3   OH253464   3.830   1.222   2.883  0.6933  0.8754 -0.4154
10658TIP3    H153465   3.919   1.195   2.909  1.6978  2.6286 -1.7731
10658TIP3    H253466   3.839   1.316   2.864 -0.6453  0.4317 -3.8473
10659TIP3   OH253467   1.273   1.911  12.034 -0.0745  0.1456 -0.1666
10659TIP3    H153468   1.262   1.824  11.996  0.4521 -0.6033  1.2967
10659TIP3    H253469   1.363   1.912  12.067 -0.5461  0.6475  1.2037
10660TIP3   OH253470   3.987   0.599   4.027 -0.0102  0.0748  0.8363
10660TIP3    H153471   3.893   0.611   4.039 -0.1074 -0.2897  0.4608
10660TIP3    H253472   4.002   0.506   4.040 -0.6454 -1.1459 -4.6152
10661TIP3   OH253473   6.786   6.768  16.999 -0.3716 -0.7874  0.2781
10661TIP3    H153474   6.859   6.823  16.972 -1.8704  0.4231 -1.6178
10661TIP3    H253475   6.769   6.712  16.923 -2.3025  0.0082  0.0569
10662TIP3   OH253476   0.209   2.939  14.591 -0.0899 -0.7213 -0.4836
10662TIP3    H153477   0.189   2.900  14.506 -3.1874  0.0985 -0.2545
10662TIP3    H253478   0.209   2.864  14.651  0.4841 -1.0988 -0.9331
10663TIP3   OH253479   4.418   2.941  12.299  0.1312 -0.0751  0.0755
10663TIP3    H153480   4.401   2.977  12.386  3.1316  0.3421  0.5838
10663TIP3    H253481   4.509   2.913  12.302  0.1804 -0.4843 -2.8065
10664TIP3   OH253482   2.313   2.138   5.346  0.3652  0.3522  0.0044
10664TIP3    H153483   2.236   2.121   5.401 -0.4611 -1.2387 -1.5367
10664TIP3    H253484   2.282   2.202   5.281  0.2583 -0.3957 -0.7049
10665TIP3   OH253485   4.612   6.328  11.924 -0.1688  0.0299 -0.0390
10665TIP3    H153486   4.633   6.386  11.997  2.5472 -1.7927  0.7860
10665TIP3    H253487   4.560   6.382  11.864  1.1371  2.8891  1.2178
10666TIP3   OH253488   2.137   4.438   4.898  0.7431 -0.4234 -0.1266
10666TIP3    H153489   2.088   4.411   4.820 -0.8381  2.6876 -0.3799
10666TIP3    H253490   2.118   4.370   4.963  0.2115 -1.8973 -1.7504
10667TIP3   OH253491   2.962   0.514   5.509  0.1923  0.3228 -0.5064
10667TIP3    H153492   3.042   0.519   5.561  0.7673 -0.3761 -1.2920
10667TIP3    H253493   2.970   0.432   5.460 -1.6732 -0.5226  0.4735
10668TIP3   OH253494   5.020   3.042  11.010 -0.4526  0.5016  0.1118
10668TIP3    H153495   5.018   3.132  10.978 -1.6912 -0.1069 -1.7506
10668TIP3    H253496   4.935   3.030  11.053 -1.0990 -0.2501 -1.2853
10669TIP3   OH253497   3.722   3.433   5.701 -0.4973 -0.2962 -0.1910
10669TIP3    H153498   3.653   3.454   5.764  0.3627 -1.0302  1.0535
10669TIP3    H253499   3.758   3.518   5.675 -0.4100 -0.0039  0.8479
10670TIP3   OH253500   5.317   0.075   0.967 -0.3240 -0.3492 -0.2187
10670TIP3    H153501   5.333   0.026   1.048  0.4080 -3.6776 -2.2254
10670TIP3    H253502   5.223   0.063   0.951 -1.1263  2.6126  1.3503
10671TIP3   OH253503   0.601   0.611  16.241 -0.0311 -0.4189  0.2868
10671TIP3    H153504   0.632   0.686  16.291  1.6612 -0.7852 -0.1326
10671TIP3    H253505   0.674   0.590  16.182 -0.8491 -1.7658 -0.3000
10672TIP3   OH253506   4.905   5.388  15.263 -0.0745 -0.4018 -0.6828
10672TIP3    H153507   4.827   5.363  15.213  1.1090  0.4610 -3.1741
10672TIP3    H253508   4.973   5.398  15.196  1.6718  0.7911  1.1616
10673TIP3   OH253509   5.235   1.331  13.031  0.0847 -0.0209  0.6587
10673TIP3    H153510   5.205   1.263  12.970 -0.0675  0.6924 -0.0655
10673TIP3    H253511   5.330   1.331  13.021  0.0741 -0.0273  0.5552
10674TIP3   OH253512   5.234   5.027  11.136 -0.4250 -0.5824 -0.1423
10674TIP3    H153513   5.245   5.028  11.041  2.9662  0.5827  0.1455
10674TIP3    H253514   5.230   5.119  11.161  1.3229 -0.7727  1.0037
10675TIP3   OH253515   3.310   1.417  16.472  0.0616  0.6310 -0.1676
10675TIP3    H153516   3.378   1.350  16.475 -1.4826 -1.0240 -0.5887
10675TIP3    H253517   3.318   1.456  16.385 -0.3328 -0.4418 -0.6927
10676TIP3   OH253518   3.145   6.170  15.493 -0.5148 -0.3415 -0.2920
10676TIP3    H153519   3.176   6.249  15.536 -0.2089  0.6274 -2.1622
10676TIP3    H253520   3.065   6.146  15.540  0.1462  0.2358  1.1854
10677TIP3   OH253521   2.645   4.222  13.419 -0.1246 -0.1288 -0.5263
10677TIP3    H153522   2.586   4.185  13.353 -0.1287 -0.1753 -0.4969
10677TIP3    H253523   2.682   4.146  13.464 -0.7408 -0.0880  0.0721
10678TIP3   OH253524   3.540   4.861   2.670 -0.5880 -0.1065 -0.2556
10678TIP3    H153525   3.558   4.883   2.579 -0.4453 -0.7188 -0.3792
10678TIP3    H253526   3.613   4.806   2.696 -0.3542  0.5035  0.3949
10679TIP3   OH253527   5.852   2.011  15.980  0.1511 -0.4938  0.2419
10679TIP3    H153528   5.930   1.959  15.997  0.4989  0.4031  1.5320
10679TIP3    H253529   5.840   2.064  16.059  0.2433  1.9275 -1.2698
10680TIP3   OH253530   2.957   6.210  15.851 -0.1840  0.1969  0.1674
10680TIP3    H153531   2.903   6.171  15.919 -1.1767  2.4486  0.7589
10680TIP3    H253532   3.046   6.212  15.888 -0.3162 -0.4598  0.5355
10681TIP3   OH253533   2.566   2.074   3.519  0.7507  0.1585 -0.2339
10681TIP3    H153534   2.655   2.107   3.525  0.8781  0.0972 -1.5086
10681TIP3    H253535   2.554   2.053   3.426 -0.0210 -1.4240  0.1863
10682TIP3   OH253536   1.890   1.062   3.610 -0.3720  0.1052 -0.0136
10682TIP3    H153537   1.977   1.029   3.587 -0.3412 -0.6686  1.1456
10682TIP3    H253538   1.834   0.985   3.604 -1.1234  0.7289 -1.3786
10683TIP3   OH253539   2.775   3.178  16.572  0.1137  0.3267 -0.4184
10683TIP3    H153540   2.785   3.272  16.585  1.5794  0.2550 -0.8704
10683TIP3    H253541   2.864   3.143  16.576 -0.3472 -0.9602 -0.8199
10684TIP3   OH253542   0.404   3.071   2.849 -0.5541  0.2127  0.3157
10684TIP3    H153543   0.376   2.999   2.906 -2.9942 -0.0143 -1.0560
10684TIP3    H253544   0.361   3.149   2.886 -1.3453  0.2287 -0.6014
10685TIP3   OH253545   0.505   0.744  12.353  0.4768 -0.2776 -0.0309
10685TIP3    H153546   0.461   0.726  12.436 -3.2324 -1.8098 -2.0807
10685TIP3    H253547   0.485   0.835  12.333 -0.4297 -0.4970 -0.1614
10686TIP3   OH253548   1.441   2.513   3.436  0.5411  0.0839 -0.2378
10686TIP3    H153549   1.377   2.537   3.369 -0.5831 -0.1337  0.7241
10686TIP3    H253550   1.450   2.418   3.427  1.2353  0.1953 -0.7951
10687TIP3   OH253551   4.659   4.293  16.245 -0.6434 -0.4957  0.0868
10687TIP3    H153552   4.703   4.208  16.249 -0.1930 -0.2374  1.8498
10687TIP3    H253553   4.567   4.273  16.265 -0.5182 -0.5720  0.6100
10688TIP3   OH253554   0.186   1.210   4.085 -0.2505 -0.3579 -0.0298
10688TIP3    H153555   0.123   1.176   4.149 -0.0810  0.7897  0.7811
10688TIP3    H253556   0.202   1.300   4.114  1.1832 -0.3914 -0.6783
10689TIP3   OH253557   4.645   1.236   1.530  0.1695  0.4614  0.1231
10689TIP3    H153558   4.662   1.254   1.623 -1.0207 -0.3074  0.5101
10689TIP3    H253559   4.561   1.192   1.529  0.4586 -0.1135 -1.2803
10690TIP3   OH253560   5.880   0.886  14.726 -0.0983  0.2167  0.2911
10690TIP3    H153561   5.944   0.955  14.746  0.9611 -0.3213 -1.0579
10690TIP3    H253562   5.807   0.932  14.686  0.6437  0.5816 -0.6908
10691TIP3   OH253563   2.557   1.501   5.030 -0.1728 -0.3113 -0.2189
10691TIP3    H153564   2.572   1.536   4.943  0.8573  0.8847  0.4041
10691TIP3    H253565   2.503   1.567   5.074 -2.7477 -1.9799 -0.6397
10692TIP3   OH253566   4.292   0.213  14.437 -0.4615  0.3038  0.1408
10692TIP3    H153567   4.229   0.266  14.487 -0.0352 -2.3617  3.8854
10692TIP3    H253568   4.376   0.228  14.480  0.0482 -1.7230 -0.0428
10693TIP3   OH253569   1.012   6.382  16.454  0.3165  0.6423  0.4507
10693TIP3    H153570   0.992   6.295  16.488  0.8240 -0.1083 -1.0567
10693TIP3    H253571   1.106   6.378  16.433  0.1938  1.3117 -0.2607
10694TIP3   OH253572   2.167   5.468   1.046 -0.1732 -0.0471  0.1988
10694TIP3    H153573   2.075   5.441   1.047  0.3243 -1.9283  2.0425
10694TIP3    H253574   2.215   5.390   1.074  2.0718  0.6899 -1.3308
10695TIP3   OH253575   5.704   6.088  13.054  0.2822  0.3938 -0.6007
10695TIP3    H153576   5.637   6.122  12.995 -0.8701  0.0119  0.4507
10695TIP3    H253577   5.665   6.010  13.093  1.2939  0.2348  0.1434
10696TIP3   OH253578   0.412   2.328   1.664  0.6134  0.0893 -0.2059
10696TIP3    H153579   0.392   2.422   1.663 -0.6112 -0.1395 -1.7591
10696TIP3    H253580   0.496   2.321   1.619  0.8856  0.4669  0.2359
10697TIP3   OH253581   1.262   0.380  10.155 -0.3393 -0.5270 -0.2893
10697TIP3    H153582   1.178   0.358  10.193 -0.3171 -1.3150 -0.6604
10697TIP3    H253583   1.316   0.301  10.167 -0.2373 -0.7005 -1.6300
10698TIP3   OH253584   4.881   6.348  14.894  0.0588  0.0618 -0.1106
10698TIP3    H153585   4.793   6.361  14.928  0.1268 -1.1416  0.5706
10698TIP3    H253586   4.930   6.426  14.922 -0.3782 -0.0252  0.9180
10699TIP3   OH253587   2.704   1.022   5.758  0.1129 -0.4156 -0.1672
10699TIP3    H153588   2.723   0.930   5.743 -0.0554 -0.5638  0.4781
10699TIP3    H253589   2.751   1.044   5.839 -0.5089 -0.1628  0.1361
10700TIP3   OH253590   1.514   5.840  13.450  0.0131 -0.1012 -0.3720
10700TIP3    H153591   1.502   5.915  13.391  0.1016  0.4496  0.3008
10700TIP3    H253592   1.608   5.839  13.468  0.0448 -0.5169 -0.5568
10701TIP3   OH253593   6.631   6.429  12.218 -0.0031  0.3100 -0.3211
10701TIP3    H153594   6.562   6.397  12.160  0.2823 -0.2298 -0.3657
10701TIP3    H253595   6.673   6.500  12.169 -0.3682  0.4812 -0.3900
10702TIP3   OH253596   4.537   4.102   3.397 -0.4309  0.6023 -0.3455
10702TIP3    H153597   4.532   4.038   3.326 -2.6822  0.4175 -0.0900
10702TIP3    H253598   4.528   4.187   3.353  0.1412  0.6171 -0.4460
10703TIP3   OH253599   6.661   5.767  11.933 -0.0149  0.7972 -0.7257
10703TIP3    H153600   6.750   5.762  11.966 -0.4658  0.5460  0.4788
10703TIP3    H253601   6.668   5.743  11.840  0.9492 -0.7633 -0.2721
10704TIP3   OH253602   0.675   2.962  12.085 -0.1851  0.6793  0.0310
10704TIP3    H153603   0.621   2.933  12.011 -0.7864  1.1453  0.2687
10704TIP3    H253604   0.764   2.938  12.061 -0.6548 -1.5738  0.3263
10705TIP3   OH253605   5.901   3.855   3.996 -0.1559  0.3494  0.6146
10705TIP3    H153606   5.880   3.763   4.008 -1.2835  0.5263  0.0639
10705TIP3    H253607   5.996   3.859   4.006  0.1238 -1.1465 -1.0435
10706TIP3   OH253608   3.832   1.609  15.280 -0.0318  0.1242 -0.6358
10706TIP3    H153609   3.913   1.601  15.329 -0.7129 -1.2451  0.3271
10706TIP3    H253610   3.838   1.542  15.212 -0.4405 -0.1599 -0.4001
10707TIP3   OH253611   4.565   1.002  10.494 -0.8392  0.6582 -0.0820
10707TIP3    H153612   4.489   1.017  10.438  0.4973  1.8689 -1.7213
10707TIP3    H253613   4.551   0.916  10.532 -3.0172  0.8591 -0.2922
10708TIP3   OH253614   6.462   1.728   4.227  0.2224  0.4178  0.3944
10708TIP3    H153615   6.374   1.737   4.264 -0.5831  0.6016 -1.4481
10708TIP3    H253616   6.464   1.638   4.193  0.0281  1.0023 -1.2437
10709TIP3   OH253617   2.923   5.543   4.338 -0.0738 -0.3695  0.1996
10709TIP3    H153618   2.979   5.583   4.272  0.9663 -3.4153 -0.9677
10709TIP3    H253619   2.982   5.524   4.412 -0.6432  0.5886  0.9225
10710TIP3   OH253620   6.166   3.060   4.429  0.0160  0.0155 -0.0410
10710TIP3    H153621   6.108   3.109   4.370 -0.1652 -0.7515 -0.5215
10710TIP3    H253622   6.252   3.101   4.416  0.1167 -0.5461 -1.3504
10711TIP3   OH253623   0.395   0.231  16.940 -0.2094  0.0898  0.4252
10711TIP3    H153624   0.437   0.243  16.855 -1.0490  1.6323  0.1965
10711TIP3    H253625   0.373   0.319  16.969 -1.9165 -0.5376  1.2121
10712TIP3   OH253626   3.354   3.612   2.978  0.7334 -0.0385  0.6964
10712TIP3    H153627   3.333   3.563   2.899  0.8765  1.4274 -0.2822
10712TIP3    H253628   3.274   3.659   3.000  1.5605  2.0534 -0.4701
10713TIP3   OH253629   0.242   5.056   0.198 -0.1762  0.5530  0.5120
10713TIP3    H153630   0.267   5.113   0.125  0.8517 -2.4142 -1.6332
10713TIP3    H253631   0.322   5.008   0.219 -1.8566 -3.1249 -0.7623
10714TIP3   OH253632   3.191   2.306  14.334 -0.1457  0.1822  0.1816
10714TIP3    H153633   3.203   2.286  14.427  1.4789 -0.2456 -0.0922
10714TIP3    H253634   3.271   2.353  14.310 -1.1429  1.5185 -0.6962
10715TIP3   OH253635   0.757   3.801  15.127  0.3871 -0.0343  0.2638
10715TIP3    H153636   0.663   3.815  15.117  0.7016  1.9604 -0.4286
10715TIP3    H253637   0.796   3.843  15.050  1.8250 -1.2639  0.2766
10716TIP3   OH253638   1.622   1.541   6.326 -0.3886  0.3300  0.0743
10716TIP3    H153639   1.605   1.461   6.375 -1.1021 -0.1520 -0.9332
10716TIP3    H253640   1.716   1.541   6.310  0.2784  1.5737  3.2376
10717TIP3   OH253641   0.629   1.148   5.033  0.0390 -0.1497 -0.4909
10717TIP3    H153642   0.577   1.216   5.076 -0.0448 -0.1002 -0.6732
10717TIP3    H253643   0.564   1.081   5.009 -0.0557  0.2920 -1.4738
10718TIP3   OH253644   0.144   3.084  13.966 -0.2281  0.1472  0.2174
10718TIP3    H153645   0.083   3.047  14.030 -0.2188  1.8126  1.2507
10718TIP3    H253646   0.110   3.056  13.881 -2.7163  1.3620  0.7179
10719TIP3   OH253647   5.669   6.739  13.054 -0.2253  0.0556 -0.7412
10719TIP3    H153648   5.694   6.788  12.976  0.8247 -2.0092 -1.7875
10719TIP3    H253649   5.682   6.647  13.030 -1.4611 -0.7343  1.3318
10720TIP3   OH253650   3.785   3.239  16.704  0.4935 -0.4241  0.2556
10720TIP3    H153651   3.815   3.323  16.738 -2.8596  1.0127  0.0206
10720TIP3    H253652   3.775   3.254  16.610  1.1313 -1.5488 -0.0106
10721TIP3   OH253653   4.124   0.245  11.709  0.2534  0.2430  0.4323
10721TIP3    H153654   4.139   0.271  11.618 -1.2897  0.6437  0.2534
10721TIP3    H253655   4.029   0.252  11.720  0.1558 -1.9083  1.4486
10722TIP3   OH253656   5.489   0.805  17.025  0.2890 -0.6260  0.1214
10722TIP3    H153657   5.552   0.796  16.954 -0.5891 -2.1891 -0.5105
10722TIP3    H253658   5.460   0.896  17.020 -0.1529 -0.8304 -1.8919
10723TIP3   OH253659   0.591   0.950   1.122 -0.2317  0.0027 -0.6443
10723TIP3    H153660   0.616   0.954   1.029  2.9044 -0.6012  0.0560
10723TIP3    H253661   0.554   0.862   1.133  2.9030 -1.4428 -0.6797
10724TIP3   OH253662   5.193   6.105   0.055  0.0128  0.6954  0.4171
10724TIP3    H153663   5.275   6.057   0.052  1.0973  2.4936 -1.3115
10724TIP3    H253664   5.162   6.105  -0.035 -2.6994 -1.1361  1.2322
10725TIP3   OH253665   4.138   1.847  14.172  0.2469 -0.5469  0.1649
10725TIP3    H153666   4.105   1.929  14.134 -0.9885 -0.8933  0.4510
10725TIP3    H253667   4.071   1.783  14.151  0.7748 -1.2971  0.7441
10726TIP3   OH253668   0.447   5.425  13.082 -0.0513  0.4974 -0.8156
10726TIP3    H153669   0.523   5.413  13.140 -2.1887 -0.8528  1.9382
10726TIP3    H253670   0.411   5.510  13.108 -0.5474  0.2680 -0.7483
10727TIP3   OH253671   2.058   0.890   1.531  0.1038  0.0826 -0.5579
10727TIP3    H153672   1.985   0.875   1.591  1.5775 -1.3795  0.9838
10727TIP3    H253673   2.068   0.807   1.484  1.3685 -0.0782 -0.0431
10728TIP3   OH253674   3.208   4.477  10.776 -0.0076  0.2089  0.3973
10728TIP3    H153675   3.181   4.569  10.773 -1.3377 -0.1763  0.0816
10728TIP3    H253676   3.141   4.434  10.829  1.0197 -0.4605  1.1926
10729TIP3   OH253677   1.794   3.041  13.939  0.4877 -0.1458 -0.1929
10729TIP3    H153678   1.861   3.014  14.002 -0.1014 -0.5336  0.2896
10729TIP3    H253679   1.715   3.051  13.992 -0.4342 -2.0842 -1.0889
10730TIP3   OH253680   3.494   3.580   4.059 -0.1854 -0.0889  0.1649
10730TIP3    H153681   3.470   3.655   4.114 -2.3257 -1.0280  0.6163
10730TIP3    H253682   3.430   3.581   3.988 -0.2136 -1.4495  0.1516
10731TIP3   OH253683   6.528   0.445   5.537 -0.2378  0.0748 -0.0229
10731TIP3    H153684   6.497   0.533   5.515 -0.9341 -0.1566  0.0179
10731TIP3    H253685   6.618   0.459   5.567  0.0809  0.6294 -1.1717
10732TIP3   OH253686   1.929   0.780  12.487  0.0720  0.5826 -0.6492
10732TIP3    H153687   1.948   0.688  12.503 -1.4598  0.5030  0.9947
10732TIP3    H253688   2.007   0.813  12.442 -0.3142 -2.0190 -3.5208
10733TIP3   OH253689   6.262   3.523  16.138  1.0518  0.6494  0.4304
10733TIP3    H153690   6.166   3.525  16.145  1.0901  2.7285  0.8081
10733TIP3    H253691   6.293   3.564  16.218  2.3265 -0.6401  0.6478
10734TIP3   OH253692   0.331   3.900   2.251 -0.2612 -0.3715 -0.1787
10734TIP3    H153693   0.246   3.906   2.296 -0.3463  0.5500 -0.4315
10734TIP3    H253694   0.357   3.991   2.238  1.0415 -0.6469  0.3827
10735TIP3   OH253695   1.231   1.826   1.712 -0.0933  0.4114  1.0002
10735TIP3    H153696   1.182   1.903   1.684 -0.6558  0.2533  1.5324
10735TIP3    H253697   1.270   1.792   1.631 -2.4932 -0.6165  0.1547
10736TIP3   OH253698   6.332   3.339  14.831  0.3217 -0.1094 -0.1668
10736TIP3    H153699   6.392   3.322  14.759 -0.2058 -0.6712 -0.4866
10736TIP3    H253700   6.300   3.252  14.857  0.1166  0.1279  0.4019
10737TIP3   OH253701   0.916   2.142   4.687  0.0006  0.0452 -0.1346
10737TIP3    H153702   1.009   2.129   4.671  0.2580  1.1382  0.3481
10737TIP3    H253703   0.903   2.236   4.675 -0.5100  0.3529  2.3816
10738TIP3   OH253704   5.789   3.395  16.968 -0.2744  0.1223  0.5148
10738TIP3    H153705   5.835   3.422  16.888  0.0237  1.4913  1.1222
10738TIP3    H253706   5.715   3.455  16.974 -1.0667 -0.8400  0.5676
10739TIP3   OH253707   1.401   2.087  14.929  0.2656 -0.1441 -0.2246
10739TIP3    H153708   1.471   2.031  14.962 -1.3923 -1.8609  0.5863
10739TIP3    H253709   1.365   2.039  14.855  1.3625  1.8223 -2.1613
10740TIP3   OH253710   5.115   2.440  12.404 -0.4972 -0.5512 -0.0360
10740TIP3    H153711   5.070   2.473  12.481 -2.1803 -1.7190 -0.4767
10740TIP3    H253712   5.075   2.486  12.330  1.8981  1.4406 -0.2262
10741TIP3   OH253713   6.089   4.952  14.479 -0.4091 -0.2124  0.0731
10741TIP3    H153714   6.167   5.004  14.496 -1.0055  0.2441  1.5399
10741TIP3    H253715   6.060   4.923  14.565 -0.2880 -2.7304 -0.6546
10742TIP3   OH253716   0.394   0.649  11.971 -0.1797 -0.6640  0.0433
10742TIP3    H153717   0.301   0.630  11.987 -0.5416  1.5646  0.9907
10742TIP3    H253718   0.395   0.695  11.888  0.3773 -2.4437 -0.9897
10743TIP3   OH253719   6.637   0.849  14.086  0.2393  0.5989  0.4852
10743TIP3    H153720   6.631   0.762  14.047  1.0082  1.3827 -1.4714
10743TIP3    H253721   6.729   0.857  14.113  0.3482  1.0839 -0.0222
10744TIP3   OH253722   2.432   3.392  14.251 -0.9031  0.3224 -0.1613
10744TIP3    H153723   2.514   3.355  14.217 -0.3759  1.6244 -0.3311
10744TIP3    H253724   2.438   3.379  14.346 -0.7783 -0.1105 -0.2239
10745TIP3   OH253725   2.772   6.068   3.027 -0.2532 -0.2926  0.1150
10745TIP3    H153726   2.802   6.074   2.936 -0.9962  0.2676 -0.1059
10745TIP3    H253727   2.716   6.145   3.039 -0.6901 -0.7090  0.8453
10746TIP3   OH253728   3.040   2.443  11.556  0.1129  0.2683 -0.2306
10746TIP3    H153729   3.051   2.413  11.646 -0.3484  0.8034  0.0104
10746TIP3    H253730   3.094   2.383  11.504 -0.2697 -0.5581  0.3010
10747TIP3   OH253731   2.248   6.393  14.664  1.0339  0.1190 -0.7712
10747TIP3    H153732   2.289   6.468  14.707 -3.7129  2.0649  1.0342
10747TIP3    H253733   2.274   6.402  14.572  3.2451  1.9819 -0.0711
10748TIP3   OH253734   0.614   0.912   5.590 -0.3466  0.2242  0.3846
10748TIP3    H153735   0.586   1.000   5.616 -0.9443  0.2299 -0.2529
10748TIP3    H253736   0.588   0.856   5.663  2.0710  0.8654  1.8753
10749TIP3   OH253737   2.392   5.735  12.697 -0.1440  0.1006  0.2388
10749TIP3    H153738   2.330   5.797  12.659  0.9241  0.8752 -0.2958
10749TIP3    H253739   2.338   5.671  12.743 -1.2701  3.2551  3.7870
10750TIP3   OH253740   0.484   0.187   1.827  0.1088 -0.0612  0.3888
10750TIP3    H153741   0.441   0.154   1.748 -0.5453 -0.2079  0.8020
10750TIP3    H253742   0.544   0.118   1.852  0.4136  0.0369 -0.0459
10751TIP3   OH253743   5.637   5.543   3.943  0.7401  0.2168  0.2347
10751TIP3    H153744   5.680   5.510   4.022 -0.8041  1.3146  1.6008
10751TIP3    H253745   5.677   5.494   3.871  0.7135 -2.3377  1.8567
10752TIP3   OH253746   5.373   3.339   4.163 -0.3714 -0.3776  0.0696
10752TIP3    H153747   5.375   3.426   4.204 -1.0894  0.3234 -1.3032
10752TIP3    H253748   5.440   3.289   4.209  0.0810  0.9126  0.8706
10753TIP3   OH253749   6.075   3.505  15.620  0.9171  0.6325  0.3528
10753TIP3    H153750   6.102   3.463  15.539 -0.0124 -0.9744  0.8414
10753TIP3    H253751   6.143   3.481  15.683  0.4719 -0.0462  0.5900
10754TIP3   OH253752   4.233   0.932   1.937  0.0206  0.2448  0.1403
10754TIP3    H153753   4.314   0.903   1.980  0.6636  0.3242 -0.9757
10754TIP3    H253754   4.216   0.864   1.872  0.0565  1.0062 -0.6852
10755TIP3   OH253755   0.454   4.528  13.541 -0.2332  0.2908 -0.2887
10755TIP3    H153756   0.367   4.522  13.579  0.3883  1.1082  1.3859
10755TIP3    H253757   0.476   4.438  13.518  0.7079 -1.1083  4.7266
10756TIP3   OH253758   3.312   4.306  12.136 -0.1240  0.6910 -0.1540
10756TIP3    H153759   3.258   4.360  12.195  1.5468 -1.5766  3.8914
10756TIP3    H253760   3.402   4.320  12.168  1.5059  1.8302 -4.5276
10757TIP3   OH253761   1.131   4.379  10.530  0.0978 -0.4677 -0.2941
10757TIP3    H153762   1.197   4.337  10.586 -0.3721 -0.8868 -0.0341
10757TIP3    H253763   1.147   4.473  10.539 -2.4873 -0.1571  3.9421
10758TIP3   OH253764   1.251   6.648  15.297  0.0482 -0.6239 -0.7985
10758TIP3    H153765   1.287   6.592  15.227 -0.9026 -2.1191 -0.1349
10758TIP3    H253766   1.202   6.715  15.250 -0.3502 -1.4421 -1.5979
10759TIP3   OH253767   4.708   2.889  12.386 -0.0085 -0.1013  0.3960
10759TIP3    H153768   4.746   2.929  12.464  0.0729  1.0992 -0.2421
10759TIP3    H253769   4.718   2.954  12.317 -2.3577 -0.1097 -0.0503
10760TIP3   OH253770   1.542   0.390  15.911  0.1087 -0.0833 -0.0680
10760TIP3    H153771   1.601   0.423  15.844  0.4420 -1.5273 -0.5093
10760TIP3    H253772   1.474   0.343  15.863 -1.0856  1.0103  0.4708
10761TIP3   OH253773   2.722   2.661   2.467  0.2783  0.0583  0.0972
10761TIP3    H153774   2.735   2.677   2.373 -2.2213 -0.2517 -0.3678
10761TIP3    H253775   2.698   2.746   2.503 -1.0252 -0.2316 -0.0303
10762TIP3   OH253776   5.212   6.539   3.506 -0.0744  0.1977 -0.0998
10762TIP3    H153777   5.157   6.501   3.437  0.1728  0.3953 -0.4083
10762TIP3    H253778   5.152   6.597   3.554  0.0832  1.1824 -1.0502
10763TIP3   OH253779   4.678   2.528   4.393 -0.2159 -0.0475 -0.1449
10763TIP3    H153780   4.698   2.600   4.333 -0.5103  0.2002  0.0459
10763TIP3    H253781   4.584   2.535   4.408 -0.1987 -0.3023  0.0960
10764TIP3   OH253782   6.530   3.446   1.182 -0.6315 -0.3930 -0.3195
10764TIP3    H153783   6.469   3.474   1.114 -0.4680 -1.2688 -0.8476
10764TIP3    H253784   6.538   3.351   1.170  0.6820 -0.3296 -0.1400
10765TIP3   OH253785   3.383   3.596   6.085 -0.6685  0.4225 -0.2516
10765TIP3    H153786   3.294   3.620   6.108 -0.6772  0.1718 -0.0196
10765TIP3    H253787   3.400   3.515   6.133 -0.6423 -0.0475 -1.0301
10766TIP3   OH253788   2.301   2.843  11.338 -0.0628  0.3590 -0.2112
10766TIP3    H153789   2.232   2.792  11.381  1.4557 -1.0085  0.7375
10766TIP3    H253790   2.280   2.839  11.245 -0.6084 -1.0942 -0.0556
10767TIP3   OH253791   4.791   2.641  16.156 -0.1930 -0.3043  0.2664
10767TIP3    H153792   4.807   2.582  16.082 -1.4291 -0.2449 -0.0774
10767TIP3    H253793   4.712   2.606  16.198 -0.4993  0.6534  0.5211
10768TIP3   OH253794   5.810   0.701  13.782 -0.2765 -0.0771 -0.6947
10768TIP3    H153795   5.878   0.645  13.820 -1.8826 -0.2187  2.2579
10768TIP3    H253796   5.744   0.640  13.749 -0.9324  0.0396  0.3710
10769TIP3   OH253797   5.634   2.826   4.995  0.1790 -0.1740  0.7058
10769TIP3    H153798   5.692   2.802   4.923  0.0334  0.2568  0.4398
10769TIP3    H253799   5.691   2.871   5.058 -0.2055  2.3203 -0.5661
10770TIP3   OH253800   4.390   5.263  12.486 -0.5910 -0.4629  0.0943
10770TIP3    H153801   4.485   5.259  12.476 -0.6428 -1.5205 -0.0901
10770TIP3    H253802   4.359   5.177  12.457 -1.9114  0.9425 -3.2563
10771TIP3   OH253803   6.386   5.790  11.959  0.3673 -0.3323 -0.6298
10771TIP3    H153804   6.481   5.784  11.948  0.3745  0.0624 -0.8070
10771TIP3    H253805   6.351   5.748  11.880  0.3939 -0.3626 -0.6260
10772TIP3   OH253806   4.961   5.992   0.611  0.4006  0.2539 -0.5400
10772TIP3    H153807   4.868   5.980   0.589  0.7574 -1.9313 -1.0252
10772TIP3    H253808   4.963   5.987   0.706  0.2145 -1.5775 -0.6051
10773TIP3   OH253809   0.598   1.684  16.955 -0.1892  0.7186 -0.1228
10773TIP3    H153810   0.541   1.703  16.881 -0.1400  1.2047 -0.0380
10773TIP3    H253811   0.564   1.602  16.991 -1.0790  1.2042  0.1658
10774TIP3   OH253812   4.480   5.018  16.824 -0.0202  0.5038 -0.4471
10774TIP3    H153813   4.509   4.988  16.738 -0.7970  1.2447 -0.9764
10774TIP3    H253814   4.445   5.106  16.809  1.8320  1.5558  0.9960
10775TIP3   OH253815   1.234   6.781   2.465  0.3406 -0.0257 -0.5958
10775TIP3    H153816   1.152   6.807   2.507  0.7701 -0.3634  0.4758
10775TIP3    H253817   1.257   6.855   2.409 -0.7175  0.0503 -0.9592
10776TIP3   OH253818   0.415   4.836  14.656 -0.2039  0.1284  0.0462
10776TIP3    H153819   0.432   4.930  14.650  0.9663 -0.1281 -1.1895
10776TIP3    H253820   0.322   4.829  14.676  0.0148  1.5632  1.9025
10777TIP3   OH253821   2.221   2.857  15.141 -0.3361 -0.1977 -0.0962
10777TIP3    H153822   2.168   2.783  15.169  0.4140 -0.3637  0.9203
10777TIP3    H253823   2.164   2.933  15.153 -0.4513 -0.4056  0.6778
10778TIP3   OH253824   3.444   5.863   5.789 -0.0783  0.2478  0.0231
10778TIP3    H153825   3.459   5.814   5.708 -0.4856 -0.5999  0.4474
10778TIP3    H253826   3.524   5.852   5.840  0.5639  1.5901 -0.6532
10779TIP3   OH253827   2.678   2.961   0.228  0.4065  0.5257 -0.3267
10779TIP3    H153828   2.598   2.925   0.188 -0.9090  0.8791  1.8044
10779TIP3    H253829   2.704   3.032   0.169 -1.7582  1.3951 -0.3382
10780TIP3   OH253830   5.679   5.821   1.103  0.5622 -0.4226 -0.1898
10780TIP3    H153831   5.760   5.804   1.152  0.0156 -0.1821  0.8258
10780TIP3    H253832   5.631   5.738   1.106 -0.8668  0.3916  2.4090
10781TIP3   OH253833   4.896   5.251  16.577  0.0759 -0.5616 -0.2140
10781TIP3    H153834   4.916   5.344  16.564  0.3266 -0.8012 -1.7744
10781TIP3    H253835   4.979   5.206  16.560 -0.0945 -1.0832  0.3206
10782TIP3   OH253836   2.199   4.805   0.765 -0.0322 -0.0450 -0.0297
10782TIP3    H153837   2.198   4.767   0.853  0.8535  2.4660  1.1794
10782TIP3    H253838   2.108   4.808   0.738 -0.2203 -1.8001  0.3366
10783TIP3   OH253839   2.929   0.821   3.211  0.1355 -0.5063 -0.4025
10783TIP3    H153840   3.020   0.836   3.235  0.3059 -1.9089 -0.1198
10783TIP3    H253841   2.932   0.788   3.122 -0.0867 -0.6503 -0.3588
10784TIP3   OH253842   1.774   0.224   1.492 -0.5241  0.2785 -0.1489
10784TIP3    H153843   1.804   0.157   1.430  0.6905  0.8354 -0.1865
10784TIP3    H253844   1.751   0.299   1.437 -1.2486  0.1399 -0.0520
10785TIP3   OH253845   1.010   2.693   4.967  0.2439  0.5455 -0.5536
10785TIP3    H153846   0.961   2.660   5.043  0.5378 -2.3959 -1.5284
10785TIP3    H253847   1.099   2.704   4.999  1.0395 -3.3336 -0.9246
10786TIP3   OH253848   2.741   6.037   3.365  0.1221 -0.2879 -0.2292
10786TIP3    H153849   2.744   6.121   3.410 -0.3744 -0.6794  0.5656
10786TIP3    H253850   2.739   6.059   3.272  1.1631  0.5381 -0.0730
10787TIP3   OH253851   3.636   1.055   1.186 -0.5540 -0.2043  0.3762
10787TIP3    H153852   3.704   1.042   1.251  2.6398  1.4029 -2.3522
10787TIP3    H253853   3.621   1.150   1.184  1.0817  0.1125 -2.5535
10788TIP3   OH253854   3.333   2.095   2.130  0.0846  0.1844 -0.2193
10788TIP3    H153855   3.308   2.012   2.170 -1.0683  0.5900 -0.0686
10788TIP3    H253856   3.343   2.075   2.037  1.5107 -0.4769  0.0456
10789TIP3   OH253857   4.070   4.467   5.952  0.1290 -0.1254  0.6374
10789TIP3    H153858   4.091   4.471   6.046  1.0121  1.9641  0.3923
10789TIP3    H253859   4.155   4.463   5.909 -0.2721 -0.9694 -0.1195
10790TIP3   OH253860   5.259   3.474   2.344 -0.7346 -0.3838 -0.4936
10790TIP3    H153861   5.273   3.553   2.396 -2.3270 -1.0810  1.1054
10790TIP3    H253862   5.273   3.402   2.406 -0.2956 -1.3464 -1.6656
10791TIP3   OH253863   3.483   4.781   0.264 -0.4504  0.8049  0.4365
10791TIP3    H153864   3.576   4.767   0.282 -0.5471 -0.2637  0.1609
10791TIP3    H253865   3.477   4.787   0.169 -0.8593 -0.7579  0.3462
10792TIP3   OH253866   3.574   0.050  15.359  0.1951  0.8671 -0.4724
10792TIP3    H153867   3.553   0.099  15.439 -0.2669  1.3099 -0.8529
10792TIP3    H253868   3.489   0.023  15.325  0.4815 -1.0832  0.2439
10793TIP3   OH253869   4.310   6.138   5.555 -0.6033  0.2832  0.7779
10793TIP3    H153870   4.334   6.156   5.465 -1.0070  1.4892  0.8828
10793TIP3    H253871   4.279   6.048   5.555 -1.3462  0.5213 -0.4566
10794TIP3   OH253872   2.807   2.265   1.226  0.1306  0.2824 -0.4983
10794TIP3    H153873   2.865   2.293   1.296  0.1882  0.2750 -0.5429
10794TIP3    H253874   2.720   2.265   1.265  0.5088 -3.2428  0.6925
10795TIP3   OH253875   4.881   5.441   5.573 -0.2864  0.7138 -0.6541
10795TIP3    H153876   4.905   5.504   5.641  0.1393 -0.4002  0.2658
10795TIP3    H253877   4.932   5.363   5.595 -0.2422  0.2942 -2.1919
10796TIP3   OH253878   2.072   3.871   2.207 -0.0990  0.6990  0.1123
10796TIP3    H153879   2.147   3.813   2.219 -0.2595  0.9376  2.7488
10796TIP3    H253880   1.997   3.813   2.199  0.2368  0.4773 -2.0193
10797TIP3   OH253881   3.403   3.498   2.605  0.1068 -0.3990  0.1384
10797TIP3    H153882   3.439   3.583   2.577  0.4480  0.4104  2.7927
10797TIP3    H253883   3.471   3.461   2.661 -1.1269 -1.1894  1.1519
10798TIP3   OH253884   4.739   5.383   4.459 -0.0298 -0.0532  0.6566
10798TIP3    H153885   4.764   5.334   4.381 -0.8481 -2.1723  1.6354
10798TIP3    H253886   4.677   5.449   4.427 -1.4483 -1.7859 -0.3461
10799TIP3   OH253887   3.455   1.760  16.601  0.2240 -0.4737  0.3319
10799TIP3    H153888   3.493   1.706  16.532 -0.4854  0.4188 -0.7706
10799TIP3    H253889   3.364   1.771  16.576  0.5513  2.0216 -0.0141
10800TIP3   OH253890   0.834   3.923  14.886 -0.4663 -0.3604 -0.0832
10800TIP3    H153891   0.925   3.943  14.908 -0.4150  0.9672 -1.3536
10800TIP3    H253892   0.833   3.918  14.791 -1.8426  0.2674 -0.1223
10801TIP3   OH253893   3.503   2.303  12.534  0.2239 -0.1787 -0.1417
10801TIP3    H153894   3.477   2.322  12.444  1.4309  1.1135 -0.2472
10801TIP3    H253895   3.458   2.370  12.586  2.1174  1.1964 -0.1801
10802TIP3   OH253896   6.546   5.356  10.733  0.4583 -0.4476 -0.4454
10802TIP3    H153897   6.507   5.332  10.648 -0.1773 -0.3150 -0.1965
10802TIP3    H253898   6.472   5.354  10.794  0.7795  0.1617 -0.0328
10803TIP3   OH253899   5.168   2.936  11.529  0.5900 -0.5349 -0.5686
10803TIP3    H153900   5.149   3.010  11.587 -1.0397 -0.0308 -1.6776
10803TIP3    H253901   5.210   2.871  11.585  0.7423  0.6575  0.7429
10804TIP3   OH253902   0.601   4.174   0.881  0.1923 -0.2699 -0.7389
10804TIP3    H153903   0.595   4.078   0.882 -0.4271 -0.2573 -1.9374
10804TIP3    H253904   0.547   4.201   0.807  0.1087  1.0349 -0.2283
10805TIP3   OH253905   4.982   2.346  13.251  0.6171 -0.0558 -0.0697
10805TIP3    H153906   4.988   2.300  13.335  0.0172  0.3001  0.1740
10805TIP3    H253907   4.927   2.290  13.197 -0.2227  0.4230  0.2706
10806TIP3   OH253908   0.415   4.027   6.223  0.4077  0.0833 -0.4350
10806TIP3    H153909   0.354   4.031   6.297  0.9793  2.2730 -0.0170
10806TIP3    H253910   0.420   4.118   6.192 -0.1581 -0.8373 -3.4719
10807TIP3   OH253911   3.590   6.063  12.121 -0.0987 -0.2709  0.2364
10807TIP3    H153912   3.606   6.059  12.216 -0.0591  0.3263  0.2565
10807TIP3    H253913   3.498   6.038  12.111 -0.8074  1.9362  0.6693
10808TIP3   OH253914   4.729   2.286  15.208 -0.0355 -0.6165 -0.3416
10808TIP3    H153915   4.642   2.324  15.217 -0.2073 -0.9469 -0.5826
10808TIP3    H253916   4.777   2.350  15.155  0.8201  1.0697  2.2787
10809TIP3   OH253917   6.314   4.444   2.304 -0.1805  0.5246  0.0942
10809TIP3    H153918   6.285   4.516   2.360  0.6861  1.4366 -0.5843
10809TIP3    H253919   6.276   4.464   2.218 -0.9330 -0.4944  0.1664
10810TIP3   OH253920   0.520   1.259   0.539  0.2282  0.1436 -0.3844
10810TIP3    H153921   0.509   1.173   0.499 -0.1184  0.1702 -0.3559
10810TIP3    H253922   0.468   1.253   0.620  1.5224 -0.1619  0.4480
10811TIP3   OH253923   4.822   5.720  16.419 -0.4019  0.1608  0.0130
10811TIP3    H153924   4.786   5.763  16.341 -1.0772 -0.0127  0.2274
10811TIP3    H253925   4.874   5.788  16.462  0.0009  0.2500 -0.5983
10812TIP3   OH253926   3.744   1.834  10.859 -0.4519  0.1205  0.2325
10812TIP3    H153927   3.698   1.793  10.933 -0.1541 -1.6530 -0.5122
10812TIP3    H253928   3.676   1.885  10.815 -0.8592  0.4201  1.1713
10813TIP3   OH253929   5.105   6.580  16.022  0.2449  0.6635 -0.1628
10813TIP3    H153930   5.125   6.668  16.052  1.3537  1.1546 -2.1378
10813TIP3    H253931   5.190   6.537  16.015 -0.3923 -1.6596  3.5384
10814TIP3   OH253932   0.217   0.457  13.464  0.3895 -0.4075 -0.3024
10814TIP3    H153933   0.274   0.387  13.432  0.6700 -0.5305  0.4580
10814TIP3    H253934   0.128   0.424  13.449  0.4985 -0.1324 -1.6735
10815TIP3   OH253935   2.818   0.101  14.990  0.2744 -0.0926  0.4003
10815TIP3    H153936   2.760   0.176  14.976  0.0320 -0.2962  0.3091
10815TIP3    H253937   2.759   0.026  15.000  0.3864  0.0557  2.7997
10816TIP3   OH253938   6.565   2.374   2.112 -0.1950  0.4131  0.4591
10816TIP3    H153939   6.564   2.427   2.192  3.4816  1.3335  0.1128
10816TIP3    H253940   6.494   2.408   2.059 -1.1717  1.4606  2.3344
10817TIP3   OH253941   2.142   0.259   3.460  0.5855  0.1223  0.2296
10817TIP3    H153942   2.228   0.300   3.473  0.8521 -0.3862  0.1235
10817TIP3    H253943   2.124   0.270   3.367  1.7713 -2.0522 -0.3418
10818TIP3   OH253944   4.804   1.392  15.527  0.4354 -0.2224 -0.5588
10818TIP3    H153945   4.776   1.352  15.609  0.1254  0.9117 -0.1008
10818TIP3    H253946   4.725   1.435  15.493  0.8690  0.3841 -0.8079
10819TIP3   OH253947   0.418   2.770   5.491 -0.2964 -0.3110 -0.3312
10819TIP3    H153948   0.491   2.768   5.553  0.2417  0.8022 -0.8897
10819TIP3    H253949   0.458   2.794   5.407 -1.2668  0.1269 -0.6914
10820TIP3   OH253950   1.149   6.155   0.435 -0.1683 -0.0033  0.7767
10820TIP3    H153951   1.144   6.221   0.367 -1.1132  0.5514  1.3543
10820TIP3    H253952   1.199   6.196   0.505 -0.3602 -0.0601  0.9505
10821TIP3   OH253953   3.859   1.569  14.653 -0.5015  0.1750  0.5337
10821TIP3    H153954   3.764   1.559  14.649 -0.4384  0.0047 -0.7829
10821TIP3    H253955   3.885   1.519  14.730 -1.3056 -1.2338 -0.0699
10822TIP3   OH253956   6.446   0.280  12.742 -0.2010 -0.1779  0.1771
10822TIP3    H153957   6.426   0.284  12.649  2.1944 -1.1822 -0.4616
10822TIP3    H253958   6.456   0.371  12.769  0.3128  0.0914 -0.8718
10823TIP3   OH253959   0.447   2.141   4.790  0.4269 -0.2269 -0.5478
10823TIP3    H153960   0.515   2.172   4.850 -1.0121 -1.0623  1.6512
10823TIP3    H253961   0.459   2.046   4.788 -1.8500 -0.6423  1.5378
10824TIP3   OH253962   4.656   6.791   0.667 -0.1783 -0.6477  0.2492
10824TIP3    H153963   4.740   6.757   0.696  0.1456 -0.9640 -1.0443
10824TIP3    H253964   4.594   6.758   0.733  0.2967 -2.7536 -0.2843
10825TIP3   OH253965   0.285   5.047  16.549 -0.2310  0.0738 -0.1837
10825TIP3    H153966   0.294   4.952  16.544 -1.9338 -0.2257  1.3576
10825TIP3    H253967   0.357   5.076  16.604 -0.3318 -0.4785  0.2506
10826TIP3   OH253968   3.982   4.915  15.216 -0.0502 -0.9515 -0.3151
10826TIP3    H153969   4.004   4.914  15.123  0.7884  1.1342 -0.2054
10826TIP3    H253970   3.906   4.972  15.222  0.4319 -0.3487  0.3392
10827TIP3   OH253971   1.365   5.626   0.657  0.3266  0.6490 -1.1255
10827TIP3    H153972   1.310   5.591   0.727 -0.7631 -0.5994 -2.5141
10827TIP3    H253973   1.346   5.720   0.656 -0.4522  0.5096 -0.4248
10828TIP3   OH253974   5.604   0.029   5.671  0.0134  0.2844  0.0835
10828TIP3    H153975   5.691   0.009   5.704  0.1202  1.9098  0.8460
10828TIP3    H253976   5.564   0.084   5.738 -1.9244 -1.0837  0.1389
10829TIP3   OH253977   3.598   1.500   2.757  0.7759 -0.2693 -0.0773
10829TIP3    H153978   3.599   1.492   2.661  1.9748 -0.0359 -0.1019
10829TIP3    H253979   3.630   1.589   2.773  3.0060 -1.1518  0.5903
10830TIP3   OH253980   0.084   5.077  10.455 -0.1602  0.2425  0.4143
10830TIP3    H153981   0.123   4.993  10.430  1.1560  1.1501 -0.6824
10830TIP3    H253982   0.132   5.142  10.404 -1.0713  1.6884  1.3456
10831TIP3   OH253983   5.832   4.437  16.394 -0.1175 -0.8799 -0.3086
10831TIP3    H153984   5.777   4.371  16.352 -1.8659  0.7272 -0.7379
10831TIP3    H253985   5.853   4.499  16.324 -0.0968 -0.0185  0.4289
10832TIP3   OH253986   1.592   1.112   2.805 -0.2311 -0.0165 -0.2582
10832TIP3    H153987   1.501   1.135   2.787 -0.1470  0.4409 -0.1044
10832TIP3    H253988   1.591   1.083   2.897 -0.0856  0.7293 -0.0176
10833TIP3   OH253989   1.795   3.785  16.860  0.6772 -0.2096 -0.1677
10833TIP3    H153990   1.765   3.860  16.809 -0.2098 -0.5492 -0.1513
10833TIP3    H253991   1.837   3.824  16.937 -2.0004  0.2966  1.1377
10834TIP3   OH253992   2.554   3.169  12.864  0.3996  0.5658 -0.0246
10834TIP3    H153993   2.638   3.202  12.833  0.3769  0.5776 -0.0732
10834TIP3    H253994   2.544   3.208  12.952  0.4352  0.5802 -0.0266
10835TIP3   OH253995   0.140   4.220  15.237  0.3193  0.4437  0.0946
10835TIP3    H153996   0.207   4.221  15.169  1.1311  3.0486  0.8115
10835TIP3    H253997   0.062   4.254  15.194  0.5872  1.2263  0.2043
10836TIP3   OH253998   1.056   3.474   0.551  0.0372  0.3835  0.1729
10836TIP3    H153999   0.988   3.425   0.505 -1.4440  2.2067  0.3286
10836TIP3    H254000   1.133   3.417   0.547 -1.3552 -1.5588 -0.3726
10837TIP3   OH254001   6.602   5.704   4.713  0.0016 -0.3703 -0.1618
10837TIP3    H154002   6.673   5.646   4.743  0.0416 -1.8164 -2.7294
10837TIP3    H254003   6.535   5.697   4.780  1.5424 -0.3900  1.4531
10838TIP3   OH254004   5.146   3.246  12.176  0.0560  0.2261  0.0033
10838TIP3    H154005   5.174   3.295  12.098  0.6854 -0.3775 -0.1526
10838TIP3    H254006   5.073   3.297  12.210  1.6030  2.0950  0.6937
10839TIP3   OH254007   5.467   1.354   5.534 -0.5136 -0.0078 -0.3715
10839TIP3    H154008   5.552   1.357   5.578 -0.6557 -1.4329  0.0541
10839TIP3    H254009   5.479   1.294   5.461 -1.1559 -0.2604 -0.2816
10840TIP3   OH254010   0.219   2.389   1.045  0.4350 -0.2862 -0.0651
10840TIP3    H154011   0.203   2.483   1.045 -1.7912 -0.5961 -0.4484
10840TIP3    H254012   0.254   2.370   1.132  0.2893  0.8065  0.2373
10841TIP3   OH254013   0.676   3.881  11.901 -0.4634  0.7309  0.0792
10841TIP3    H154014   0.640   3.936  11.832 -0.5957  0.6874  0.1135
10841TIP3    H254015   0.645   3.920  11.982 -0.4252  0.6998  0.1082
10842TIP3   OH254016   0.029   5.835  15.012 -0.6061  0.2101  0.2103
10842TIP3    H154017   0.007   5.917  15.057  1.6799  0.3165  1.2745
10842TIP3    H254018  -0.002   5.766  15.071 -2.0175  0.2621 -0.4220
10843TIP3   OH254019   1.366   2.855   2.519 -0.1479  1.0290  0.0049
10843TIP3    H154020   1.331   2.819   2.437  1.2652 -1.8616  0.5365
10843TIP3    H254021   1.289   2.883   2.568 -1.3390 -0.4530 -0.9144
10844TIP3   OH254022   4.192   2.385  14.804  0.1619  0.3031  0.1825
10844TIP3    H154023   4.252   2.405  14.732  1.9480 -3.2246  0.4917
10844TIP3    H254024   4.106   2.383  14.763  0.6182  2.0418 -0.9990
10845TIP3   OH254025   4.514   2.764   2.235 -0.0401  0.4696 -0.0477
10845TIP3    H154026   4.534   2.682   2.278 -0.6145  0.0531 -0.5472
10845TIP3    H254027   4.453   2.808   2.294 -0.5816  0.0415 -0.2749
10846TIP3   OH254028   6.242   4.572   2.085 -0.1132 -0.2658 -0.0218
10846TIP3    H154029   6.224   4.521   2.006  1.8369 -1.4616  0.2538
10846TIP3    H254030   6.224   4.663   2.059  0.8970 -0.5744 -2.0249
10847TIP3   OH254031   4.226   6.518   5.853  0.1863 -0.1622 -0.0544
10847TIP3    H154032   4.145   6.507   5.902  0.8300 -1.3197  0.8265
10847TIP3    H254033   4.211   6.471   5.771 -1.0839  2.2241 -1.2989
10848TIP3   OH254034   0.675   4.035   4.058  0.2742  0.0036  0.6460
10848TIP3    H154035   0.593   4.071   4.024  0.1062 -0.0150  1.0218
10848TIP3    H254036   0.673   3.942   4.035  0.8547  0.2876 -0.6067
10849TIP3   OH254037   0.742   1.615   1.946 -0.0207 -0.1565  0.4531
10849TIP3    H154038   0.765   1.564   2.024 -1.0061  0.7023  1.3403
10849TIP3    H254039   0.671   1.565   1.905 -0.0343 -0.2068  0.5383
10850TIP3   OH254040   5.314   6.609   1.146  0.1409 -0.1865  0.2382
10850TIP3    H154041   5.309   6.608   1.051  0.7476 -0.9447  0.2106
10850TIP3    H254042   5.299   6.519   1.173 -1.9193  0.3321  0.9830
10851TIP3   OH254043   6.096   3.248   6.387  0.0244 -0.1436  0.5275
10851TIP3    H154044   6.039   3.175   6.411 -1.7875  1.2045  0.5255
10851TIP3    H254045   6.036   3.318   6.360  1.7508  0.6590 -1.5384
10852TIP3   OH254046   0.542   5.896   2.691  0.4191  0.2955 -0.5567
10852TIP3    H154047   0.605   5.901   2.762  0.7048  1.8049 -0.8763
10852TIP3    H254048   0.493   5.816   2.707  1.9310 -0.5245  0.1005
10853TIP3   OH254049   1.353   3.730  11.940 -0.1343  0.1464 -0.3475
10853TIP3    H154050   1.347   3.754  12.032  2.2318 -2.0993  0.4920
10853TIP3    H254051   1.314   3.643  11.935  1.3944 -0.5374 -1.0591
10854TIP3   OH254052   2.515   5.556  12.417 -0.3200  0.1344 -0.1625
10854TIP3    H154053   2.538   5.623  12.481 -0.6479  0.4127 -0.3345
10854TIP3    H254054   2.512   5.474  12.467  0.2877  0.2121  0.0083
10855TIP3   OH254055   0.913   5.195  10.461  0.1163  0.5238 -0.7586
10855TIP3    H154056   0.977   5.156  10.401  1.4859  2.7986 -0.9024
10855TIP3    H254057   0.935   5.288  10.462 -1.5074  0.9607  1.3208
10856TIP3   OH254058   3.558   5.188  14.029 -0.3764 -0.1811 -0.1641
10856TIP3    H154059   3.628   5.173  13.965  1.4494  1.1514  1.3578
10856TIP3    H254060   3.529   5.278  14.011  0.2069  0.2345  0.8402
10857TIP3   OH254061   1.831   1.787   4.970 -0.1473 -0.0158  0.6028
10857TIP3    H154062   1.814   1.712   4.914 -0.1196  1.0448 -0.8613
10857TIP3    H254063   1.770   1.776   5.043 -0.2899 -1.3285  0.3192
10858TIP3   OH254064   6.600   6.559   0.441  0.1863 -0.4312  0.6208
10858TIP3    H154065   6.551   6.492   0.490  0.1639 -0.9982 -0.1480
10858TIP3    H254066   6.601   6.525   0.351  1.5838 -0.1901  0.5349
10859TIP3   OH254067   3.999   1.618   1.705  0.2822  0.1314 -0.2468
10859TIP3    H154068   4.041   1.615   1.791  0.5122 -0.1862 -0.3713
10859TIP3    H254069   3.960   1.705   1.701 -0.2558 -0.0771  0.4293
10860TIP3   OH254070   0.170   2.862   1.489  0.9865 -0.2113  0.0120
10860TIP3    H154071   0.111   2.933   1.516  0.1202 -0.9036  0.0066
10860TIP3    H254072   0.179   2.874   1.395  0.3752 -0.4399 -0.0810
10861TIP3   OH254073   5.804   2.679   3.616  0.2503  0.4103 -0.3258
10861TIP3    H154074   5.776   2.752   3.670  0.3718 -1.0435  1.8241
10861TIP3    H254075   5.898   2.693   3.603  0.2171  0.7857 -0.1720
10862TIP3   OH254076   6.271   6.746  13.302  0.2903 -0.4122 -0.3918
10862TIP3    H154077   6.360   6.764  13.332  0.3971 -0.0627 -0.9138
10862TIP3    H254078   6.222   6.732  13.383  0.6550  0.1776 -0.0550
10863TIP3   OH254079   0.321   3.546   5.414  0.8833 -0.1021 -0.4390
10863TIP3    H154080   0.386   3.608   5.448 -2.9515  3.0442  2.1062
10863TIP3    H254081   0.348   3.530   5.324  3.7763  2.9791 -0.3263
10864TIP3   OH254082   1.963   0.789   3.126  0.5286  0.2790 -0.1190
10864TIP3    H154083   2.057   0.802   3.143  0.7498 -1.1177 -0.1422
10864TIP3    H254084   1.960   0.710   3.072 -0.7376 -0.3273  0.8115
10865TIP3   OH254085   1.261   2.319   4.346 -0.2598  0.2646 -0.2747
10865TIP3    H154086   1.225   2.259   4.412 -0.8959  1.5621  0.5989
10865TIP3    H254087   1.187   2.376   4.322 -0.4798 -1.0545 -3.2433
10866TIP3   OH254088   1.290   1.108  15.757 -0.0083  0.2793 -0.5236
10866TIP3    H154089   1.319   1.111  15.666 -2.1802  0.3754 -1.2782
10866TIP3    H254090   1.298   1.016  15.782 -0.3576  0.0668 -1.1677
10867TIP3   OH254091   4.902   5.519  16.634 -0.2646  0.0994  0.5887
10867TIP3    H154092   4.843   5.573  16.582  1.4319  1.2815 -0.2005
10867TIP3    H254093   4.941   5.581  16.697  1.2321 -0.3188  0.0992
10868TIP3   OH254094   0.370   0.066  10.353  0.5699 -0.2184 -0.2662
10868TIP3    H154095   0.437   0.115  10.307 -0.1236  0.6209 -0.4128
10868TIP3    H254096   0.290   0.116  10.339  0.5358  0.7737  2.9185
10869TIP3   OH254097   1.020   5.991   3.662  0.1317 -0.1200  0.3586
10869TIP3    H154098   1.099   6.004   3.610 -0.4767  1.2443 -0.2615
10869TIP3    H254099   0.992   6.079   3.686 -1.2696 -0.5701  0.4722
10870TIP3   OH254100   5.356   2.412   4.644  0.2294 -0.2015 -0.3733
10870TIP3    H154101   5.371   2.392   4.552 -0.4390 -1.9589 -0.1459
10870TIP3    H254102   5.419   2.357   4.692  0.3851  0.4852  0.2333
10871TIP3   OH254103   3.551   2.931   4.286  0.4082 -0.7788 -0.7381
10871TIP3    H154104   3.538   3.022   4.314 -0.7865 -1.2560  0.3647
10871TIP3    H254105   3.645   2.925   4.269  0.7880  0.2740  0.7128
10872TIP3   OH254106   3.098   3.344   0.684 -0.1092  0.4820 -0.0139
10872TIP3    H154107   3.190   3.372   0.685  0.2147 -0.4815 -0.6179
10872TIP3    H254108   3.081   3.313   0.773  1.5642 -3.4649 -0.8235
10873TIP3   OH254109   4.636   2.516   5.928 -0.1625 -0.0470  0.0345
10873TIP3    H154110   4.691   2.518   6.006  0.0851  2.2025 -0.1335
10873TIP3    H254111   4.698   2.510   5.855 -0.1561  1.5362 -0.1136
10874TIP3   OH254112   4.524   2.189  12.872  0.7848  0.0136  0.6981
10874TIP3    H154113   4.428   2.191  12.871  0.7931  0.2001 -0.4776
10874TIP3    H254114   4.549   2.276  12.902  0.5942  0.3155 -0.0106
10875TIP3   OH254115   4.803   6.219   1.776  0.6040 -0.3542 -0.0238
10875TIP3    H154116   4.767   6.209   1.864  0.0718 -1.4529 -0.3566
10875TIP3    H254117   4.734   6.189   1.718  1.0568  0.1022 -0.8186
10876TIP3   OH254118   3.275   6.640   5.072 -0.3439 -0.5440 -0.1451
10876TIP3    H154119   3.330   6.637   5.151  0.7645  0.2572 -0.8529
10876TIP3    H254120   3.186   6.630   5.104 -0.0097  0.8801  1.3379
10877TIP3   OH254121   0.132   0.818  15.315  0.3484 -0.4570 -0.1418
10877TIP3    H154122   0.216   0.809  15.271 -0.6038  0.2333 -2.2308
10877TIP3    H254123   0.107   0.910  15.300 -1.0824 -0.8321 -0.1739
10878TIP3   OH254124   5.964   1.405  10.842  0.0300  0.1154  0.6684
10878TIP3    H154125   5.965   1.500  10.831  1.0541 -0.0644 -1.2846
10878TIP3    H254126   6.056   1.381  10.850 -0.3045 -0.5467  3.5623
10879TIP3   OH254127   3.109   3.632  15.105  0.1766  0.2847 -0.2408
10879TIP3    H154128   3.101   3.723  15.077 -0.6369  0.5627  0.8232
10879TIP3    H254129   3.174   3.634  15.176 -0.4029  0.1770  0.3044
10880TIP3   OH254130   3.554   5.092  11.662  0.1391  0.4046  0.1877
10880TIP3    H154131   3.492   5.021  11.646  0.0774  0.1906  1.3077
10880TIP3    H254132   3.581   5.121  11.575 -1.4284  0.4204 -0.3137
10881TIP3   OH254133   0.198   3.924  15.185  0.2726 -0.1733 -0.2977
10881TIP3    H154134   0.238   3.963  15.107 -0.3065  1.7175  0.2792
10881TIP3    H254135   0.158   3.999  15.231  0.4808 -1.2464  1.7429
10882TIP3   OH254136   5.940   0.388   3.989  0.6520 -0.4714  0.1844
10882TIP3    H154137   5.886   0.316   3.957 -0.2352  0.0679  0.4201
10882TIP3    H254138   5.923   0.391   4.083  0.7493 -0.0215  0.1904
10883TIP3   OH254139   1.983   6.067  13.511 -0.3521 -0.9773 -0.4607
10883TIP3    H154140   2.063   6.110  13.541  0.2102 -0.6590 -2.3106
10883TIP3    H254141   1.915   6.134  13.518 -0.0913 -0.7064 -0.5347
10884TIP3   OH254142   5.403   3.570   6.346 -0.1406 -0.3910  0.0935
10884TIP3    H154143   5.407   3.481   6.380  2.3449 -0.0951  0.8201
10884TIP3    H254144   5.492   3.604   6.357 -0.9477  2.1238 -0.3350
10885TIP3   OH254145   6.107   3.172  16.709 -0.0406  0.1601  0.0750
10885TIP3    H154146   6.091   3.177  16.614  1.4269  0.7357 -0.1692
10885TIP3    H254147   6.020   3.180  16.748 -0.4439  2.9985 -1.1339
10886TIP3   OH254148   3.569   6.131  11.758  0.1654  0.1287 -0.3002
10886TIP3    H154149   3.626   6.206  11.779  0.7443 -0.5476  0.6301
10886TIP3    H254150   3.593   6.108  11.668 -0.9919  1.8912 -1.1158
10887TIP3   OH254151   6.785   4.876   3.180 -0.1728  0.2190  0.0471
10887TIP3    H154152   6.824   4.950   3.227  0.5162  0.2998 -0.6548
10887TIP3    H254153   6.785   4.805   3.244  2.5417 -0.2520 -0.3596
10888TIP3   OH254154   5.160   4.418  12.734 -0.1165  0.2391  0.1967
10888TIP3    H154155   5.179   4.327  12.711 -0.2066  0.4487 -0.7353
10888TIP3    H254156   5.238   4.449  12.780  0.2174 -0.0802 -0.1528
10889TIP3   OH254157   5.804   6.715  13.998 -0.2903 -0.3464  0.0233
10889TIP3    H154158   5.752   6.684  13.924 -1.2524 -1.3137  1.0576
10889TIP3    H254159   5.893   6.685  13.980 -0.0009  1.4619 -1.8475
10890TIP3   OH254160   6.430   5.013   5.724  0.3315 -0.0478  0.8912
10890TIP3    H154161   6.448   5.096   5.680 -0.2121 -0.4864 -0.1918
10890TIP3    H254162   6.338   5.020   5.752 -1.5482 -2.1156 -3.7041
10891TIP3   OH254163   2.466   4.935  12.154  0.4188 -0.0323 -0.2354
10891TIP3    H154164   2.477   4.846  12.187  1.4652  0.0541 -0.3233
10891TIP3    H254165   2.375   4.956  12.173  0.5748 -0.5434  1.2233
10892TIP3   OH254166   1.930   2.548  13.565 -0.0834  0.4190 -0.5591
10892TIP3    H154167   2.016   2.588  13.555  0.1576 -0.0996 -0.5852
10892TIP3    H254168   1.895   2.587  13.645 -0.0926  1.1036 -0.8927
10893TIP3   OH254169   5.101   5.116  11.453  0.2933  1.2467  0.3121
10893TIP3    H154170   5.038   5.186  11.471 -3.0808 -1.5030  0.2209
10893TIP3    H254171   5.074   5.081  11.368  1.7835 -0.2588  0.4191
10894TIP3   OH254172   4.972   2.890  16.650  0.0590 -0.4682 -0.1460
10894TIP3    H154173   4.969   2.859  16.559  1.3909  1.0639 -0.7504
10894TIP3    H254174   5.063   2.880  16.676  0.0401  0.7089  0.4301
10895TIP3   OH254175   4.724   0.329  16.638 -0.2076  0.4459  0.4016
10895TIP3    H154176   4.637   0.291  16.641  0.5949 -1.3961  1.6998
10895TIP3    H254177   4.718   0.407  16.693 -0.5745 -0.7481  2.1238
10896TIP3   OH254178   6.587   2.568   0.567  0.3296  0.4846  0.8609
10896TIP3    H154179   6.604   2.497   0.630 -1.9769 -0.8740  0.0788
10896TIP3    H254180   6.503   2.604   0.595 -1.1901 -0.7190 -1.8520
10897TIP3   OH254181   4.196   3.453   2.687  0.1374 -0.1493 -0.2841
10897TIP3    H154182   4.253   3.377   2.679  0.6641  0.0257  1.3881
10897TIP3    H254183   4.181   3.481   2.597 -0.8057 -2.7318 -1.0289
10898TIP3   OH254184   5.420   1.104   0.130  0.2294  0.0816 -0.2673
10898TIP3    H154185   5.450   1.063   0.212  0.4433  0.8315  0.0442
10898TIP3    H254186   5.327   1.082   0.125 -0.1230  1.1575  0.9056
10899TIP3   OH254187   6.244   6.002  16.101 -0.2600  0.2156  0.7639
10899TIP3    H154188   6.324   5.957  16.072 -0.0247  1.0899 -0.0074
10899TIP3    H254189   6.235   6.076  16.040 -1.7922  0.0017  0.6962
10900TIP3   OH254190   6.208   1.594   2.663  0.6224  0.3165  0.1640
10900TIP3    H154191   6.139   1.658   2.682  0.3288  0.8993 -2.4644
10900TIP3    H254192   6.282   1.647   2.633  2.2550 -0.3093  2.7769
10901TIP3   OH254193   6.149   5.087  11.454 -0.7916 -0.2682 -0.2234
10901TIP3    H154194   6.114   5.166  11.411 -2.1963  0.0051  1.3295
10901TIP3    H254195   6.244   5.096  11.445 -0.9816 -0.2457 -3.2245
10902TIP3   OH254196   4.642   6.372  15.027  0.6102  0.0204  0.0731
10902TIP3    H154197   4.596   6.339  15.104 -0.8653  0.6931 -0.4646
10902TIP3    H254198   4.697   6.442  15.060  1.0287 -0.5984  0.7028
10903TIP3   OH254199   3.137   2.602  12.066  0.2491  0.4095  0.4324
10903TIP3    H154200   3.156   2.694  12.083 -1.5632  1.1338 -1.0608
10903TIP3    H254201   3.119   2.564  12.152  1.5173  1.2902  1.1197
10904TIP3   OH254202   0.945   1.622  12.979 -0.0519  0.0912 -0.1759
10904TIP3    H154203   1.036   1.639  12.957  0.5043 -0.0780  1.8074
10904TIP3    H254204   0.931   1.531  12.954  0.6116 -0.1656  0.3584
10905TIP3   OH254205   1.485   2.761  12.591 -0.6861 -0.0581 -0.2933
10905TIP3    H154206   1.442   2.846  12.601 -1.1162 -0.5510  3.4091
10905TIP3    H254207   1.578   2.779  12.598 -0.8077  0.0948  1.1733
10906TIP3   OH254208   3.199   3.408  14.013 -0.4454  0.1541 -0.2316
10906TIP3    H154209   3.117   3.386  14.058 -0.1078  0.8531  0.7383
10906TIP3    H254210   3.267   3.396  14.079  0.4358 -1.7980 -1.4007
10907TIP3   OH254211   3.882   3.890   6.171  0.2373 -0.3769  0.1051
10907TIP3    H154212   3.872   3.798   6.194  3.6245 -0.5595  1.3964
10907TIP3    H254213   3.888   3.936   6.255  1.3413  0.5986 -0.4650
10908TIP3   OH254214   6.494   1.770  15.308  0.1207 -0.2549  0.0979
10908TIP3    H154215   6.435   1.819  15.366 -0.3925  1.1952 -1.5848
10908TIP3    H254216   6.582   1.791  15.340  0.0544  3.3959 -1.6586
10909TIP3   OH254217   5.447   3.531  13.267 -0.2361  0.0563  0.4866
10909TIP3    H154218   5.441   3.451  13.320 -1.8248 -0.0147  0.2531
10909TIP3    H254219   5.541   3.542  13.250 -0.0054 -1.8662  0.3456
10910TIP3   OH254220   2.983   4.283  15.012  0.1922 -0.3349  0.1307
10910TIP3    H154221   2.963   4.259  14.922  3.6347 -2.8991 -0.1350
10910TIP3    H254222   2.909   4.250  15.063 -1.2510  0.1296 -1.5723
10911TIP3   OH254223   5.291   5.154   5.602 -0.4114 -0.0831 -0.6001
10911TIP3    H154224   5.259   5.242   5.581 -0.3310 -0.3979 -2.1842
10911TIP3    H254225   5.326   5.121   5.519 -1.1368 -1.9047 -0.2198
10912TIP3   OH254226   2.541   0.457   2.843  0.6334  0.3123  0.1229
10912TIP3    H154227   2.602   0.439   2.914  1.4199  2.1610 -0.0404
10912TIP3    H254228   2.554   0.549   2.822 -1.9017  0.6659 -0.2303
10913TIP3   OH254229   1.375   3.633   4.174 -0.1992  0.0545  0.1840
10913TIP3    H154230   1.308   3.696   4.201 -0.6094  0.6956 -2.1462
10913TIP3    H254231   1.429   3.680   4.112  1.4530 -0.9706  0.7808
10914TIP3   OH254232   4.584   4.539   2.260 -0.2831  0.8298 -0.0879
10914TIP3    H154233   4.616   4.543   2.350  3.4613  1.1698 -1.2686
10914TIP3    H254234   4.497   4.578   2.264 -0.3451  0.6438  3.3864
10915TIP3   OH254235   0.886   6.718   3.741  0.3823 -0.1820 -0.0223
10915TIP3    H154236   0.952   6.787   3.734 -1.4477  1.6940  0.1645
10915TIP3    H254237   0.933   6.643   3.776  2.4031  1.0791  0.1204
10916TIP3   OH254238   1.228   5.653   4.428 -0.1780  0.2548 -0.4286
10916TIP3    H154239   1.303   5.688   4.382  0.5306 -1.2076 -0.4583
10916TIP3    H254240   1.165   5.725   4.432  0.9707  1.3084 -0.9519
10917TIP3   OH254241   2.289   6.415   0.598 -0.3088 -0.4202 -0.0648
10917TIP3    H154242   2.239   6.470   0.658  0.6547  1.4784 -0.9087
10917TIP3    H254243   2.233   6.339   0.582 -2.0867  0.7364  0.4579
10918TIP3   OH254244   2.426   6.750  13.200  0.2395 -0.0181  0.0287
10918TIP3    H154245   2.406   6.665  13.239 -3.1819  0.8532  0.4994
10918TIP3    H254246   2.355   6.765  13.138  0.1697  2.8878  0.6707
10919TIP3   OH254247   2.094   0.170   1.242  0.0624  0.2089 -0.1423
10919TIP3    H154248   2.082   0.265   1.235  0.3292  0.4003  1.6195
10919TIP3    H254249   2.150   0.147   1.168 -0.9026  1.2325 -1.2392
10920TIP3   OH254250   4.222   1.015  14.614  0.1798 -0.5468 -0.2317
10920TIP3    H154251   4.278   0.955  14.664 -0.3441 -1.9938 -1.2869
10920TIP3    H254252   4.138   1.013  14.659  0.5172  0.4071  0.4588
10921TIP3   OH254253   4.365   2.478  12.774  0.0794 -0.1259 -0.0539
10921TIP3    H154254   4.357   2.522  12.690 -1.0849  0.4930  0.3634
10921TIP3    H254255   4.398   2.546  12.834  0.7330 -0.5144  0.0389
10922TIP3   OH254256   4.794   3.074   3.226 -0.7499  0.3346 -0.4194
10922TIP3    H154257   4.886   3.079   3.200 -0.6713 -0.6142 -0.3512
10922TIP3    H254258   4.761   3.163   3.214  0.8551  1.4085  2.2078
10923TIP3   OH254259   5.319   2.887   5.482  0.2782  0.4835 -0.5408
10923TIP3    H154260   5.251   2.917   5.421  0.7426  1.4452 -0.6111
10923TIP3    H254261   5.364   2.968   5.509  1.0747 -0.0880 -0.1177
10924TIP3   OH254262   3.259   3.001   5.880 -0.1427  0.3368 -0.4078
10924TIP3    H154263   3.164   3.005   5.868 -0.1390  0.6838 -0.3043
10924TIP3    H254264   3.270   2.963   5.967 -0.1939  1.0425 -0.0886
10925TIP3   OH254265   1.214   5.498   5.955 -0.2476 -0.0132  0.0831
10925TIP3    H154266   1.238   5.560   6.024  1.8997 -1.9932  1.2846
10925TIP3    H254267   1.143   5.446   5.993 -0.7428  0.4636 -0.1801
10926TIP3   OH254268   5.245   4.386  10.647  0.4143  0.2413 -0.2214
10926TIP3    H154269   5.308   4.418  10.583  0.0644  0.9827 -0.2005
10926TIP3    H254270   5.173   4.449  10.645  0.0031 -0.1953  0.2791
10927TIP3   OH254271   2.639   1.840   4.251  0.5337  0.0245 -0.1207
10927TIP3    H154272   2.669   1.903   4.317  1.5017 -0.1761 -0.3618
10927TIP3    H254273   2.550   1.869   4.230  1.1012  1.5667 -0.5204
10928TIP3   OH254274   3.463   6.587  13.352 -0.1101  0.1668  0.0398
10928TIP3    H154275   3.479   6.509  13.298  0.2897  0.0475  0.3230
10928TIP3    H254276   3.371   6.583  13.375  0.3035 -1.2022  1.5698
10929TIP3   OH254277   5.853   0.028   3.686 -0.1967  0.2121  1.2918
10929TIP3    H154278   5.787   0.095   3.701 -1.1496 -0.5420  0.6071
10929TIP3    H254279   5.828  -0.044   3.744  1.2351  0.6835  2.5694
10930TIP3   OH254280   6.443   0.554   4.135  0.4591 -0.3886  0.0136
10930TIP3    H154281   6.525   0.504   4.139 -0.3541 -2.0040 -1.7132
10930TIP3    H254282   6.415   0.562   4.226  1.1340 -2.2828  0.4401
10931TIP3   OH254283   1.554   2.208  12.314  0.2371 -0.1865  0.0390
10931TIP3    H154284   1.650   2.205  12.317  0.2479 -0.7459 -0.6728
10931TIP3    H254285   1.534   2.255  12.233 -0.0932 -0.4044 -0.0070
10932TIP3   OH254286   0.567   6.225   2.216  0.1405  0.2030 -0.0834
10932TIP3    H154287   0.598   6.149   2.165 -2.1438 -0.0009 -1.3331
10932TIP3    H254288   0.550   6.190   2.303  0.1193 -0.4875 -0.3560
10933TIP3   OH254289   2.555   0.436   2.178 -0.3695  0.3526 -0.0950
10933TIP3    H154290   2.505   0.516   2.164 -0.1177  0.7225  0.9907
10933TIP3    H254291   2.523   0.375   2.112 -1.2804  1.0204 -0.2845
10934TIP3   OH254292   4.792   6.405   2.790 -0.0428 -0.0158  0.3581
10934TIP3    H154293   4.812   6.495   2.813 -0.0174  0.1296 -0.2230
10934TIP3    H254294   4.809   6.399   2.696  0.2835 -0.7164  0.4532
10935TIP3   OH254295   0.974   2.920  13.011 -0.0508  0.2522 -0.2054
10935TIP3    H154296   0.913   2.846  13.013  0.5720 -0.2714 -0.1260
10935TIP3    H254297   0.925   2.993  13.049 -0.4610 -0.2897  0.3222
10936TIP3   OH254298   0.528   6.409  15.106  0.2209  0.0926 -0.5825
10936TIP3    H154299   0.529   6.383  15.014  2.7765  0.4768 -0.7155
10936TIP3    H254300   0.458   6.356  15.145  0.4820 -1.6167 -2.3140
10937TIP3   OH254301   2.198   6.427   3.784  0.1820  0.2457  0.0645
10937TIP3    H154302   2.183   6.412   3.691  1.1643 -1.3073  0.1172
10937TIP3    H254303   2.115   6.405   3.826 -0.7743  2.4904 -0.5424
10938TIP3   OH254304   2.248   1.092  17.038 -0.1869 -0.6065  0.2741
10938TIP3    H154305   2.189   1.161  17.007  1.2693 -0.2759 -2.0692
10938TIP3    H254306   2.235   1.020  16.976  0.1532 -1.4672  1.1778
10939TIP3   OH254307   1.258   6.126   4.302  0.6790  0.2630  0.0938
10939TIP3    H154308   1.275   6.093   4.390  0.4268 -0.5408 -0.1538
10939TIP3    H254309   1.344   6.125   4.259  0.6918  0.0529  0.1255
10940TIP3   OH254310   6.084   2.577  14.495  0.4709  0.8410 -0.0678
10940TIP3    H154311   6.044   2.633  14.562 -1.3039  0.8662 -1.0796
10940TIP3    H254312   6.077   2.629  14.414  2.3833  0.7311 -0.3493
10941TIP3   OH254313   5.214   0.641   0.657 -0.2602 -0.1080 -0.0398
10941TIP3    H154314   5.189   0.577   0.591 -0.1283  0.4787 -0.6737
10941TIP3    H254315   5.292   0.684   0.620  0.2325 -0.2539  0.8126
10942TIP3   OH254316   1.459   2.176   1.831  0.2442 -0.1364  0.5039
10942TIP3    H154317   1.367   2.175   1.857  0.6055  0.3262  1.8734
10942TIP3    H254318   1.487   2.085   1.840  0.2538 -0.0533  1.3645
10943TIP3   OH254319   4.267   5.550  12.695 -0.0768  0.3541 -0.1986
10943TIP3    H154320   4.245   5.519  12.607 -2.9908 -0.2075  0.5988
10943TIP3    H254321   4.336   5.615  12.682  1.7940 -1.9117 -2.5396
10944TIP3   OH254322   6.181   1.561  13.150 -0.7301  0.3767 -0.0300
10944TIP3    H154323   6.167   1.550  13.244  0.3382  1.0809  0.2323
10944TIP3    H254324   6.129   1.492  13.110 -1.0818 -0.0325  1.0827
10945TIP3   OH254325   3.082   1.029  12.804 -0.0149 -0.2353 -0.2357
10945TIP3    H154326   3.155   0.967  12.795 -0.9943 -1.2481 -1.5083
10945TIP3    H254327   3.041   1.031  12.718 -0.8056  1.2092  0.1464
10946TIP3   OH254328   2.099   5.521   2.501 -0.0694 -0.0894 -0.1838
10946TIP3    H154329   2.029   5.579   2.470 -1.3378 -0.0826  2.4689
10946TIP3    H254330   2.056   5.462   2.562  1.7765 -1.9224 -0.5315
10947TIP3   OH254331   0.931   1.780  14.321 -0.0444  0.1505  0.2746
10947TIP3    H154332   0.851   1.791  14.372 -0.6663 -0.1134 -0.6155
10947TIP3    H254333   0.955   1.688  14.333 -0.8608 -0.2328 -0.8241
10948TIP3   OH254334   2.395   6.630  14.783 -0.2042 -0.0547 -0.0491
10948TIP3    H154335   2.458   6.695  14.754 -0.0144 -0.2862 -0.1545
10948TIP3    H254336   2.416   6.616  14.875  0.1311 -0.3964 -0.1752
10949TIP3   OH254337   3.727   2.865   6.622 -0.1334  0.0219 -0.4641
10949TIP3    H154338   3.663   2.871   6.551  0.4740 -2.0379 -1.2549
10949TIP3    H254339   3.809   2.894   6.582  0.0213 -0.2188 -0.3202
10950TIP3   OH254340   0.129   5.333  16.077 -0.0433 -0.1650 -0.0102
10950TIP3    H154341   0.224   5.319  16.079  0.0887  0.6068 -0.2189
10950TIP3    H254342   0.116   5.411  16.132 -0.5108 -0.0604 -0.2632
10951TIP3   OH254343   6.337   2.439   1.976  0.1308  0.0374 -0.6610
10951TIP3    H154344   6.313   2.526   1.947 -0.5443 -0.4719 -1.6597
10951TIP3    H254345   6.305   2.380   1.908  0.2806 -1.0251  0.1526
10952TIP3   OH254346   0.488   0.575   1.131  0.0291 -0.0952  0.0860
10952TIP3    H154347   0.415   0.633   1.109 -0.4928 -1.0102 -0.6469
10952TIP3    H254348   0.543   0.575   1.053  0.7725  0.5223  0.6074
10953TIP3   OH254349   3.478   0.310  14.774  0.3917  0.1998 -0.3889
10953TIP3    H154350   3.511   0.221  14.788 -0.0687  0.3030  1.6106
10953TIP3    H254351   3.523   0.363  14.841  0.9035  1.5563 -1.7460
10954TIP3   OH254352   0.892   1.100   1.703 -0.0821  0.4218 -0.4624
10954TIP3    H154353   0.870   1.036   1.771 -1.2381  0.0529 -1.1523
10954TIP3    H254354   0.813   1.155   1.695  0.7919  1.7917 -0.0622
10955TIP3   OH254355   3.896   5.124  16.366 -0.6681 -0.2633  0.2797
10955TIP3    H154356   3.927   5.212  16.344 -0.8830 -0.2370  0.0776
10955TIP3    H254357   3.973   5.080  16.401 -0.4288 -0.1603 -0.1069
10956TIP3   OH254358   2.642   6.528   4.502  0.1704  0.0936  0.1767
10956TIP3    H154359   2.580   6.505   4.571 -1.2231 -3.8328 -2.0367
10956TIP3    H254360   2.726   6.492   4.533 -0.1025 -0.2804  0.4929
10957TIP3   OH254361   6.156   2.405  11.759  0.1761  0.2621 -0.2089
10957TIP3    H154362   6.246   2.416  11.788  0.3537  0.2993 -0.7623
10957TIP3    H254363   6.103   2.427  11.835  0.6515 -0.8428  0.4580
10958TIP3   OH254364   3.013   1.651  13.718  0.1817  0.0383 -0.4593
10958TIP3    H154365   3.005   1.708  13.794 -0.1370 -1.3526  0.5935
10958TIP3    H254366   2.967   1.570  13.744  2.4890 -1.5389 -1.0205
10959TIP3   OH254367   5.194   1.701  13.526  0.0549 -0.0522 -0.5948
10959TIP3    H154368   5.201   1.789  13.491 -0.3331  0.1999 -0.0527
10959TIP3    H254369   5.222   1.710  13.618 -1.9904 -0.0683  0.0787
10960TIP3   OH254370   3.052   3.405  17.003  0.0386  0.7132  0.0475
10960TIP3    H154371   3.145   3.428  17.005  0.0114  0.7643  1.7328
10960TIP3    H254372   3.029   3.388  17.094 -1.6236  0.7272 -0.3363
10961TIP3   OH254373   3.180   0.486   3.967  0.4224 -0.3583 -0.4502
10961TIP3    H154374   3.087   0.480   3.990  0.8225 -0.0604  1.4484
10961TIP3    H254375   3.201   0.579   3.975  1.0493 -0.5212 -0.0572
10962TIP3   OH254376   6.589   5.604   2.259  0.2334 -0.1963 -0.0568
10962TIP3    H154377   6.660   5.669   2.266  1.1541 -1.0629 -1.0014
10962TIP3    H254378   6.630   5.529   2.216 -0.9145 -1.2551  0.6408
10963TIP3   OH254379   3.925   5.912   4.912  0.0311 -0.3475 -0.0794
10963TIP3    H154380   3.906   5.833   4.963 -0.3974 -0.8818 -1.0269
10963TIP3    H254381   3.977   5.967   4.970 -1.9295 -0.1360  1.5837
10964TIP3   OH254382   0.452   1.443  12.670  0.3956  0.2522 -0.2262
10964TIP3    H154383   0.380   1.434  12.733  2.6236 -0.1624  2.4665
10964TIP3    H254384   0.447   1.363  12.617  0.7356 -1.3753  2.0684
10965TIP3   OH254385   1.988   4.297   3.938  0.0849 -0.6941 -0.3779
10965TIP3    H154386   1.991   4.218   3.992 -1.8661 -1.2720 -1.0178
10965TIP3    H254387   2.045   4.277   3.864 -0.0246 -1.3202 -0.3028
10966TIP3   OH254388   5.613   2.344   1.044  0.4454 -0.5328 -0.0478
10966TIP3    H154389   5.706   2.365   1.033  0.4854  1.7849  3.2735
10966TIP3    H254390   5.568   2.428   1.035 -1.2303 -1.4048 -0.3069
10967TIP3   OH254391   4.264   0.949   1.210 -0.1587 -0.1321 -0.1071
10967TIP3    H154392   4.328   1.017   1.191 -1.5105  1.0584 -0.5793
10967TIP3    H254393   4.291   0.875   1.155  1.1547  0.1078  0.1827
10968TIP3   OH254394   6.760   6.227   5.041  0.5541  0.2324 -0.7866
10968TIP3    H154395   6.748   6.192   4.952  0.2197 -1.3084 -0.1770
10968TIP3    H254396   6.850   6.258   5.042  0.8498 -0.5584 -1.4142
10969TIP3   OH254397   3.940   5.959  13.761  0.4123  0.6779  0.0374
10969TIP3    H154398   4.016   6.002  13.799  0.3893  0.8117 -0.0674
10969TIP3    H254399   3.962   5.865  13.761  2.0444  0.9265 -3.1549
10970TIP3   OH254400   5.754   3.289  13.026  0.0231  0.1895  0.0236
10970TIP3    H154401   5.789   3.207  12.991  0.5452  0.4091  0.0337
10970TIP3    H254402   5.667   3.296  12.988  0.4724  0.2844 -1.0055
10971TIP3   OH254403   5.398   3.446   1.375  0.1582  0.1748  0.3539
10971TIP3    H154404   5.348   3.368   1.352  1.4094 -0.7997  0.7812
10971TIP3    H254405   5.369   3.468   1.464 -0.5304  0.4893  0.0586
10972TIP3   OH254406   2.165   6.059  15.793 -0.3288  0.5008 -0.5370
10972TIP3    H154407   2.172   6.154  15.800 -1.5986  0.5408  0.7956
10972TIP3    H254408   2.190   6.027  15.880 -2.0877 -0.1927 -0.2336
10973TIP3   OH254409   5.625   6.396  11.677  0.2498 -0.2125  0.0128
10973TIP3    H154410   5.552   6.381  11.737 -0.8305 -0.7861 -1.3860
10973TIP3    H254411   5.594   6.362  11.593  1.5188  1.0056 -0.9899
10974TIP3   OH254412   1.750   6.023   2.583 -0.2309 -0.3005  0.9390
10974TIP3    H154413   1.806   5.967   2.636  0.6130 -0.5607 -0.1927
10974TIP3    H254414   1.684   5.964   2.545  0.2685 -0.4349  0.2619
10975TIP3   OH254415   5.728   0.090   0.864  0.5386 -0.2415 -0.4903
10975TIP3    H154416   5.643   0.133   0.854  0.6930  0.0649 -0.5103
10975TIP3    H254417   5.718   0.006   0.819  0.3217 -0.1051 -0.7010
10976TIP3   OH254418   4.627   3.987  17.113  0.0654 -0.0359  0.0985
10976TIP3    H154419   4.684   4.059  17.089 -0.6912  0.7471  0.6013
10976TIP3    H254420   4.623   3.989  17.209  0.6537 -1.2346  0.1652
10977TIP3   OH254421   2.392   3.342  11.437 -0.5520  0.3113  0.3183
10977TIP3    H154422   2.339   3.308  11.365  0.1059  1.7581 -0.9186
10977TIP3    H254423   2.473   3.291  11.433  0.2005  1.5485 -1.1582
10978TIP3   OH254424   5.620   5.392  12.480 -0.3721  0.1746 -0.2550
10978TIP3    H154425   5.640   5.379  12.573 -2.0402 -0.1823  0.0822
10978TIP3    H254426   5.645   5.483  12.464  1.0109 -0.0912  0.2269
10979TIP3   OH254427   5.894   5.588   0.405 -0.0290 -0.2084  0.1124
10979TIP3    H154428   5.833   5.647   0.449 -1.2849 -0.8812 -0.6833
10979TIP3    H254429   5.925   5.638   0.329 -1.1212 -0.5586 -0.5828
10980TIP3   OH254430   2.337   2.685   3.412 -0.3699  0.2667  0.1294
10980TIP3    H154431   2.367   2.652   3.328  0.8079  0.2640  0.5394
10980TIP3    H254432   2.345   2.780   3.406  3.6721  0.2023  1.5771
10981TIP3   OH254433   3.421   5.004   6.679  0.0688  0.4898  0.1084
10981TIP3    H154434   3.400   4.911   6.695  0.0527  0.8048  2.1794
10981TIP3    H254435   3.514   5.012   6.700  0.7222  0.5128 -2.4265
10982TIP3   OH254436   3.172   4.564   0.269  0.1716 -0.7203  0.5136
10982TIP3    H154437   3.162   4.627   0.341 -0.0256  0.0299 -0.1539
10982TIP3    H254438   3.192   4.618   0.193  1.5234 -1.5834  0.2150
10983TIP3   OH254439   1.207   4.144   4.750 -0.1106  0.5761  0.2840
10983TIP3    H154440   1.137   4.079   4.750 -0.1375  0.5878 -0.8472
10983TIP3    H254441   1.281   4.099   4.710 -0.4816  1.5815 -1.6506
10984TIP3   OH254442   4.725   0.571  14.584 -0.0518 -0.4102 -0.0850
10984TIP3    H154443   4.798   0.628  14.559  0.0717 -0.6372 -0.2434
10984TIP3    H254444   4.669   0.568  14.506 -1.8721  2.2323  0.9423
10985TIP3   OH254445   2.608   1.569   3.192  0.2406  0.2106  0.2381
10985TIP3    H154446   2.603   1.653   3.146  0.1532 -0.4060 -0.9096
10985TIP3    H254447   2.531   1.520   3.162  0.5117 -0.4392  0.5679
10986TIP3   OH254448   2.405   5.366   5.348  0.4896 -0.1597 -0.7178
10986TIP3    H154449   2.391   5.299   5.415  1.6615 -0.4198 -0.7226
10986TIP3    H254450   2.349   5.439   5.376  3.8880  1.4248  2.9246
10987TIP3   OH254451   2.683   0.165   2.052 -0.3235  0.1733 -0.2311
10987TIP3    H154452   2.589   0.169   2.069 -0.2077  1.2725  0.2193
10987TIP3    H254453   2.702   0.245   2.004  0.6185  0.6595  0.9110
10988TIP3   OH254454   4.033   2.460  11.377  0.1824 -0.2121  0.3067
10988TIP3    H154455   4.070   2.432  11.293 -0.7504  2.3665 -1.0569
10988TIP3    H254456   4.095   2.426  11.442  1.3685 -1.5987 -1.4335
10989TIP3   OH254457   3.353   2.416   0.837 -0.2579  0.0964 -0.0692
10989TIP3    H154458   3.264   2.383   0.827  0.1336 -1.1750  0.4747
10989TIP3    H254459   3.408   2.354   0.789  0.6200 -0.7308  1.9069
10990TIP3   OH254460   2.539   1.883  11.837 -0.0043  0.0239  0.4713
10990TIP3    H154461   2.578   1.880  11.925 -0.1877 -0.5875  0.5366
10990TIP3    H254462   2.536   1.976  11.815  3.1825  0.0719 -0.2684
10991TIP3   OH254463   0.277   0.386  15.979  0.1222 -0.1202  0.2582
10991TIP3    H154464   0.221   0.450  15.935 -1.7648 -1.0111  1.2258
10991TIP3    H254465   0.319   0.337  15.908 -0.3406  0.5658 -0.5021
10992TIP3   OH254466   0.108   6.707   1.788  0.0055  0.1573 -0.2611
10992TIP3    H154467   0.055   6.694   1.709  1.5097  0.3847 -1.3511
10992TIP3    H254468   0.157   6.626   1.797 -1.2025 -0.4406  1.3106
10993TIP3   OH254469   1.096   1.983   2.787  0.1952 -0.2701 -0.0520
10993TIP3    H154470   1.019   1.991   2.843 -0.0099 -0.6242 -0.2768
10993TIP3    H254471   1.094   1.892   2.755  1.4696 -0.7248  1.0394
10994TIP3   OH254472   1.994   3.044   1.709 -0.3241 -0.4614  0.0710
10994TIP3    H154473   2.001   2.969   1.651 -0.1297 -1.9327  1.9121
10994TIP3    H254474   2.067   3.034   1.770  0.2253  1.7103 -0.1484
10995TIP3   OH254475   4.436   0.445   0.720 -0.0048  0.0529 -1.0230
10995TIP3    H154476   4.348   0.462   0.686 -0.1712  0.3345 -0.4611
10995TIP3    H254477   4.441   0.350   0.729 -0.9973  0.1402  0.8782
10996TIP3   OH254478   1.241   0.449  10.443 -0.0675 -0.5884 -0.2813
10996TIP3    H154479   1.249   0.487  10.355 -1.9213  0.6712  0.0367
10996TIP3    H254480   1.219   0.357  10.427 -0.2351 -0.4108 -1.1528
10997TIP3   OH254481   3.909   1.325   6.169 -0.2772 -0.0370 -0.1754
10997TIP3    H154482   3.845   1.322   6.098 -0.0909 -0.6964 -0.3264
10997TIP3    H254483   3.993   1.307   6.127  0.0288  0.9014  0.0077
10998TIP3   OH254484   6.043   5.760  16.614 -0.4052  0.0241 -0.4633
10998TIP3    H154485   5.968   5.793  16.664  0.1976  0.0742  0.4157
10998TIP3    H254486   6.101   5.835  16.605  0.0753 -0.3048 -0.1334
10999TIP3   OH254487   2.088   1.174   2.619 -0.0747 -0.1942 -0.2842
10999TIP3    H154488   2.052   1.094   2.657 -0.7650  0.6873  0.9695
10999TIP3    H254489   2.067   1.167   2.525 -0.9750 -1.0329 -0.0411
11000TIP3   OH254490   1.746   0.017  16.938  0.0242  0.0065  0.5175
11000TIP3    H154491   1.738   0.012  16.843 -1.4463  0.6630  0.5698
11000TIP3    H254492   1.699   0.098  16.962  1.6462  0.6612  1.6808
11001TIP3   OH254493   5.960   6.807  16.962 -0.3721  0.2334  0.5972
11001TIP3    H154494   5.906   6.732  16.983 -0.2067  0.3089  1.3466
11001TIP3    H254495   5.903   6.865  16.912 -0.4873 -0.4000 -0.0126
11002TIP3   OH254496   4.668   6.029  15.170  0.3743 -0.1316  0.4416
11002TIP3    H154497   4.707   6.072  15.093  1.8647 -1.3758  0.4447
11002TIP3    H254498   4.742   5.983  15.211 -0.5153 -0.0026  2.2814
11003TIP3   OH254499   4.061   3.720   5.906  0.2104 -0.0919 -0.2011
11003TIP3    H154500   4.113   3.692   5.982  0.5223 -0.6563 -0.6094
11003TIP3    H254501   3.982   3.667   5.910  0.0727  0.1254 -0.0754
11004TIP3   OH254502   3.119   3.823  16.161  0.5082 -0.3600  0.2453
11004TIP3    H154503   3.126   3.891  16.094 -2.4041 -0.1124  0.0540
11004TIP3    H254504   3.173   3.751  16.128  0.2581  0.2866 -1.7036
11005TIP3   OH254505   4.015   4.900  15.503 -0.7473 -0.3088  0.1445
11005TIP3    H154506   4.006   4.917  15.409 -3.3808 -0.3419  0.3000
11005TIP3    H254507   4.062   4.976  15.536 -2.1127  1.0654 -0.8791
11006TIP3   OH254508   3.562   0.373   0.324 -0.0484 -0.2613  0.1222
11006TIP3    H154509   3.553   0.283   0.292  0.8771  0.3472 -2.0381
11006TIP3    H254510   3.652   0.397   0.305  0.0225  0.8103  1.6263
11007TIP3   OH254511   1.513   3.615  12.961  0.0637  0.5922 -0.4843
11007TIP3    H154512   1.495   3.533  13.007  1.0763  2.2295  3.2900
11007TIP3    H254513   1.430   3.640  12.922 -0.2484 -2.1522 -1.8006
11008TIP3   OH254514   1.222   0.866  12.339  0.4332  0.1337  0.0745
11008TIP3    H154515   1.208   0.952  12.378 -0.4149  0.8714 -1.7496
11008TIP3    H254516   1.136   0.840  12.305  1.0775 -0.5207 -1.1460
11009TIP3   OH254517   2.662   2.145   3.841  0.3918  0.1492 -0.1248
11009TIP3    H154518   2.692   2.233   3.817 -0.0264  1.0422  2.3098
11009TIP3    H254519   2.732   2.087   3.812  1.4167  1.4581 -0.3816
11010TIP3   OH254520   6.157   3.368  11.999 -0.5509 -0.2606  0.1003
11010TIP3    H154521   6.137   3.283  11.961  0.2136 -0.6695  0.5945
11010TIP3    H254522   6.175   3.350  12.092 -1.2587  0.5615  0.4048
11011TIP3   OH254523   6.252   3.905   0.418 -0.6519  0.4135  0.1723
11011TIP3    H154524   6.201   3.980   0.448  1.7624  1.3813  2.1254
11011TIP3    H254525   6.265   3.852   0.497 -0.4886 -0.9891 -0.7506
11012TIP3   OH254526   3.301   3.839   5.538 -0.6433  0.3284 -0.1658
11012TIP3    H154527   3.263   3.905   5.481  1.1178  1.9486  0.4436
11012TIP3    H254528   3.354   3.888   5.600  1.5314 -1.6984 -0.2892
11013TIP3   OH254529   4.665   2.814   6.031 -0.3050  0.4291 -0.1180
11013TIP3    H154530   4.607   2.855   5.967 -0.2354 -0.4567 -0.7566
11013TIP3    H254531   4.657   2.720   6.015  0.4749  0.2394  0.5158
11014TIP3   OH254532   4.589   0.040  10.471  0.1413  0.2083  0.0084
11014TIP3    H154533   4.584  -0.050  10.440 -0.8844  0.4911 -0.6840
11014TIP3    H254534   4.498   0.068  10.480  0.4174  0.7835  1.4218
11015TIP3   OH254535   5.069   2.382   2.231  0.3732 -0.8101 -0.0398
11015TIP3    H154536   5.141   2.444   2.215  0.2888 -1.2701 -2.6745
11015TIP3    H254537   5.002   2.434   2.275  1.4291  0.2131  0.4154
11016TIP3   OH254538   2.648   4.149  11.825  0.2599  0.5353 -0.0783
11016TIP3    H154539   2.615   4.216  11.765 -1.4383 -0.6809 -0.5664
11016TIP3    H254540   2.611   4.173  11.910 -0.0124  0.4633 -0.1742
11017TIP3   OH254541   1.688   3.956  16.692  0.1736  0.2486  0.4293
11017TIP3    H154542   1.729   3.986  16.612  1.1713  0.3498  0.9682
11017TIP3    H254543   1.638   4.032  16.723  1.9403  1.1096  1.3002
11018TIP3   OH254544   0.503   0.031   4.125  0.2219  0.4569  0.1089
11018TIP3    H154545   0.534  -0.059   4.118  2.4488  1.1521  0.0162
11018TIP3    H254546   0.570   0.075   4.177  0.3323  2.5330 -1.6409
11019TIP3   OH254547   1.953   1.439  13.600  0.1665  0.0800 -0.3976
11019TIP3    H154548   1.883   1.436  13.535  1.3616 -1.5970 -1.7134
11019TIP3    H254549   1.921   1.498  13.668 -1.7825  0.6894 -1.7666
11020TIP3   OH254550   6.179   1.936   3.542 -0.3607 -0.0010  0.2596
11020TIP3    H154551   6.115   1.931   3.471 -1.7178  0.5639  1.3961
11020TIP3    H254552   6.211   1.846   3.550 -2.8759 -0.9045  1.2719
11021TIP3   OH254553   5.613   4.593  16.138 -0.7491 -0.5274 -0.3982
11021TIP3    H154554   5.604   4.646  16.217 -0.2647 -0.4080 -0.4167
11021TIP3    H254555   5.524   4.568  16.115 -0.9257 -0.2475 -0.0283
11022TIP3   OH254556   5.489   6.165  12.928 -0.4386 -0.1002 -0.0023
11022TIP3    H154557   5.465   6.251  12.963  1.6329 -0.5825  2.9831
11022TIP3    H254558   5.420   6.107  12.959 -0.2309 -0.0048  0.6502
11023TIP3   OH254559   3.536   1.276   0.790 -0.0677  0.6834  0.1049
11023TIP3    H154560   3.575   1.286   0.877 -1.0431  1.0592  0.5134
11023TIP3    H254561   3.571   1.193   0.757 -1.3942 -0.6080  1.7746
11024TIP3   OH254562   6.229   2.645   3.205 -0.2948 -0.4384  0.0703
11024TIP3    H154563   6.191   2.690   3.281 -1.4562 -0.3964 -0.5162
11024TIP3    H254564   6.191   2.690   3.130  0.8049 -0.5187 -0.5481
11025TIP3   OH254565   3.261   0.372  12.513 -0.0851 -0.8313  0.1327
11025TIP3    H154566   3.238   0.315  12.587 -0.7676 -0.7666 -0.0270
11025TIP3    H254567   3.287   0.312  12.443 -1.7959 -1.0159 -0.3806
11026TIP3   OH254568   6.226   4.459  13.317 -0.2284 -0.3067  0.1735
11026TIP3    H154569   6.259   4.549  13.311 -1.6558  0.2216 -0.1471
11026TIP3    H254570   6.221   4.442  13.411  2.4898 -1.0334  0.2741
11027TIP3   OH254571   3.443   6.815  17.083  0.3469  0.1935  0.1150
11027TIP3    H154572   3.451   6.896  17.033  0.3512  0.1213 -0.0029
11027TIP3    H254573   3.528   6.772  17.074  0.0919 -0.2051 -0.4925
11028TIP3   OH254574   4.733   6.485   0.986  0.6785  0.1878  0.0979
11028TIP3    H154575   4.746   6.580   0.979 -1.4022  0.5188 -0.1037
11028TIP3    H254576   4.802   6.447   0.932  1.4621  1.5869  0.0575
11029TIP3   OH254577   5.086   2.631   2.714  0.1616 -0.7540 -0.4431
11029TIP3    H154578   5.000   2.653   2.750  0.5904  1.1747 -0.4624
11029TIP3    H254579   5.148   2.671   2.774  1.0006 -0.7329 -1.2942
11030TIP3   OH254580   2.090   1.930   5.801 -0.0045 -0.2164  0.4662
11030TIP3    H154581   2.034   2.008   5.793  1.6341  0.9652  0.0573
11030TIP3    H254582   2.080   1.903   5.892  1.2257  1.9630  1.3313
11031TIP3   OH254583   2.582   1.874  14.225  0.5823 -0.1296  0.0808
11031TIP3    H154584   2.562   1.781  14.230 -0.0513  0.0417  1.0124
11031TIP3    H254585   2.676   1.880  14.241  0.3333 -0.4851  1.8374
11032TIP3   OH254586   3.939   4.919   0.199  0.0493 -0.0449  0.3441
11032TIP3    H154587   4.027   4.920   0.162  0.0169 -0.3398  0.2556
11032TIP3    H254588   3.891   4.986   0.151  0.2694  0.2238  0.4983
11033TIP3   OH254589   1.435   2.795  12.066 -0.8251 -0.4311  0.0158
11033TIP3    H154590   1.401   2.747  11.991 -0.5768  2.1353 -1.8586
11033TIP3    H254591   1.374   2.869  12.077 -0.4633 -0.3595  1.9193
11034TIP3   OH254592   0.508   5.760   0.445  0.5291 -0.6170 -0.0125
11034TIP3    H154593   0.478   5.829   0.504 -0.8249 -0.1773 -1.1361
11034TIP3    H254594   0.577   5.802   0.393 -0.4455 -0.0025 -0.8454
11035TIP3   OH254595   0.691   2.041  16.309  0.2425  0.1389 -0.0979
11035TIP3    H154596   0.753   2.113  16.295  0.9768 -0.5413 -0.4577
11035TIP3    H254597   0.693   1.993  16.226 -2.0546  1.0446 -0.7467
11036TIP3   OH254598   0.929   4.056  11.747  0.5929 -0.0229 -0.1850
11036TIP3    H154599   0.974   4.136  11.719  0.8189  0.2278  0.8757
11036TIP3    H254600   0.871   4.084  11.817 -1.2577 -0.3335 -1.5038
11037TIP3   OH254601   6.758   4.428  11.679 -0.2618  0.0342  0.0496
11037TIP3    H154602   6.782   4.521  11.676 -0.1410  0.0572  1.1680
11037TIP3    H254603   6.750   4.402  11.587  0.8479  0.8539 -0.3026
11038TIP3   OH254604   1.306   6.157  15.698 -0.6535 -0.1329  0.0474
11038TIP3    H154605   1.220   6.125  15.669 -0.6860  0.8787 -1.0496
11038TIP3    H254606   1.358   6.162  15.618 -0.1558  1.0293  0.4269
11039TIP3   OH254607   6.545   4.704  11.495 -0.6028 -0.2351  1.0292
11039TIP3    H154608   6.514   4.753  11.418 -1.3869 -0.4876  1.1702
11039TIP3    H254609   6.640   4.704  11.487 -0.6709 -0.1734  0.1076
11040TIP3   OH254610   0.492   3.672  11.390 -0.6688  0.0140 -0.0021
11040TIP3    H154611   0.512   3.675  11.484 -0.6587 -0.8407  0.0301
11040TIP3    H254612   0.524   3.755  11.356  1.2557 -0.5234  0.3687
11041TIP3   OH254613   4.278   3.283  11.866  0.7502 -0.2022  0.6180
11041TIP3    H154614   4.332   3.357  11.892  1.2102 -0.2854 -0.0781
11041TIP3    H254615   4.336   3.207  11.874 -0.0130 -0.6515  2.3379
11042TIP3   OH254616   2.137   6.085  16.129  0.3775 -0.3628 -0.2395
11042TIP3    H154617   2.166   5.997  16.153  1.8648 -0.1560 -1.1660
11042TIP3    H254618   2.218   6.133  16.112 -0.1075  2.2198  3.5522
11043TIP3   OH254619   5.262   1.775  13.216 -0.1187 -0.1417  0.2683
11043TIP3    H154620   5.271   1.727  13.299 -1.6055 -1.9304 -0.5412
11043TIP3    H254621   5.277   1.709  13.148  0.9510  1.2691 -0.9227
11044TIP3   OH254622   3.746   0.941  13.273 -0.2497  0.1665 -0.2320
11044TIP3    H154623   3.755   0.872  13.339 -1.3818 -0.1907 -0.4264
11044TIP3    H254624   3.737   0.893  13.190 -0.6546  0.5483 -0.4163
11045TIP3   OH254625   5.029   0.578  14.251 -0.4442  0.3901 -0.0011
11045TIP3    H154626   4.939   0.611  14.253 -1.0342 -1.1525  1.2315
11045TIP3    H254627   5.023   0.498  14.198  0.5426  1.1118 -1.2478
11046TIP3   OH254628   2.142   1.436   1.146  0.1644  0.1077 -0.0857
11046TIP3    H154629   2.156   1.453   1.052  0.9532 -1.0612 -0.2015
11046TIP3    H254630   2.047   1.426   1.154  0.1114 -0.1246 -0.8345
11047TIP3   OH254631   4.952   4.425  10.412  0.7511 -0.0843 -0.1285
11047TIP3    H154632   5.016   4.423  10.484  0.0270 -0.5640  0.5199
11047TIP3    H254633   4.983   4.494  10.354  0.5149  1.4179  1.4573
11048TIP3   OH254634   1.964   5.108  14.159  0.0599 -0.4980  0.3250
11048TIP3    H154635   1.962   5.192  14.113  0.7166 -0.6381  0.0311
11048TIP3    H254636   1.925   5.046  14.098 -0.2855 -0.4346  0.4825
11049TIP3   OH254637   6.158   1.375   5.408 -0.0389 -0.2224  0.0148
11049TIP3    H154638   6.184   1.296   5.360  0.4178 -0.2692  0.3395
11049TIP3    H254639   6.074   1.352   5.447  0.2781 -0.6857  0.4323
11050TIP3   OH254640   2.956   1.691   3.212  0.1483 -0.2699  0.1225
11050TIP3    H154641   2.902   1.672   3.289  0.4883  0.9896  0.6861
11050TIP3    H254642   3.045   1.701   3.247  0.9197 -2.8506 -0.8555
11051TIP3   OH254643   1.633   3.091  15.249 -0.2252 -0.3613  0.7538
11051TIP3    H154644   1.659   3.001  15.229 -0.4632  0.0240 -1.5111
11051TIP3    H254645   1.667   3.143  15.176  1.7096  1.7798  2.9766
11052TIP3   OH254646   2.156   3.676   4.428  0.4388  0.0905 -0.7638
11052TIP3    H154647   2.062   3.670   4.412 -0.7892  2.1545  3.8706
11052TIP3    H254648   2.171   3.768   4.446  3.1940 -0.3305 -0.5140
11053TIP3   OH254649   4.080   6.602  13.574  0.0391 -0.0450 -0.4460
11053TIP3    H154650   4.042   6.577  13.490  1.5829 -0.3568 -1.0945
11053TIP3    H254651   4.166   6.559  13.576  0.1068  0.0758  1.2263
11054TIP3   OH254652   0.677   5.000  14.528  0.1550  0.2016 -0.8078
11054TIP3    H154653   0.605   4.977  14.470 -1.3283  2.8569 -0.1667
11054TIP3    H254654   0.714   5.080  14.491 -0.4798  1.6657  1.5020
11055TIP3   OH254655   5.215   4.452   3.354 -0.3349  0.3636 -0.2163
11055TIP3    H154656   5.187   4.429   3.266 -0.1983  1.8128 -0.6796
11055TIP3    H254657   5.145   4.422   3.411 -0.4625 -0.5114 -0.8277
11056TIP3   OH254658   5.409   1.237  15.969 -0.4923  0.4977  0.6297
11056TIP3    H154659   5.392   1.331  15.977 -0.4575  0.7802 -1.9683
11056TIP3    H254660   5.322   1.198  15.960 -0.4149  0.4960 -0.1255
11057TIP3   OH254661   0.103   5.044  12.410 -0.3699 -0.0304  0.1630
11057TIP3    H154662   0.168   4.996  12.461  2.1479  1.4849 -1.4383
11057TIP3    H254663   0.151   5.118  12.372 -2.9455  0.9462 -1.4774
11058TIP3   OH254664   6.293   5.388   2.968 -0.3893 -0.4754  0.2918
11058TIP3    H154665   6.305   5.436   2.886 -0.1977 -0.5691  0.2672
11058TIP3    H254666   6.381   5.373   3.001 -0.4477 -0.8363  0.2881
11059TIP3   OH254667   2.216   4.720  12.433 -0.3133  0.2448  0.3989
11059TIP3    H154668   2.279   4.739  12.503  1.8467 -2.1972 -0.7398
11059TIP3    H254669   2.270   4.697  12.358 -2.6039  0.1626 -1.3291
11060TIP3   OH254670   3.628   2.765   2.745 -0.2421 -0.2675  0.3144
11060TIP3    H154671   3.560   2.781   2.811 -0.5833 -0.4874  0.0145
11060TIP3    H254672   3.596   2.692   2.694  0.7466 -1.1300  0.8772
11061TIP3   OH254673   1.327   0.313   3.566 -0.7884 -0.5296 -0.0548
11061TIP3    H154674   1.251   0.309   3.508 -1.8523 -1.0470  1.3187
11061TIP3    H254675   1.399   0.340   3.509 -2.1156  0.6279 -1.2745
11062TIP3   OH254676   4.325   3.485  10.756  0.1393  0.3899 -0.4137
11062TIP3    H154677   4.369   3.410  10.714 -0.2838  0.0763 -0.3071
11062TIP3    H254678   4.244   3.448  10.791 -1.0096  1.2632 -2.0025
11063TIP3   OH254679   3.234   6.628   5.749 -0.2484 -0.5735 -0.1968
11063TIP3    H154680   3.238   6.616   5.844  0.0174  0.1299 -0.1102
11063TIP3    H254681   3.195   6.715   5.737 -0.7651 -0.8709 -0.7447
11064TIP3   OH254682   5.065   6.496  15.089  0.3221 -0.8277 -0.1639
11064TIP3    H154683   5.157   6.522  15.089  0.2377 -0.5344  0.1453
11064TIP3    H254684   5.063   6.417  15.142  0.1002  0.2078  1.4182
11065TIP3   OH254685   5.180   6.180   2.463 -0.1860 -0.2695  0.5481
11065TIP3    H154686   5.261   6.209   2.422 -0.2255 -0.2330  0.4957
11065TIP3    H254687   5.116   6.248   2.441 -1.1590 -1.9768 -2.4174
11066TIP3   OH254688   2.291   0.914  14.726 -0.2891  0.5590 -0.2079
11066TIP3    H154689   2.218   0.857  14.703 -0.0229  0.1527 -0.0728
11066TIP3    H254690   2.315   0.957  14.644  0.8082 -1.0608 -0.7800
11067TIP3   OH254691   2.795   3.224   2.785  0.2021  0.0399 -0.1015
11067TIP3    H154692   2.754   3.228   2.699  0.1704  0.7538 -0.0627
11067TIP3    H254693   2.867   3.288   2.780  1.6531 -1.5515 -0.3394
11068TIP3   OH254694   4.571   2.801   5.462  0.2263 -0.3065  0.1484
11068TIP3    H154695   4.555   2.752   5.381  2.2986 -0.4945 -0.1849
11068TIP3    H254696   4.552   2.738   5.532  2.7127 -1.6348 -0.2699
11069TIP3   OH254697   6.559   6.616   5.919  0.1874 -0.3403  0.9148
11069TIP3    H154698   6.483   6.589   5.866  1.3424 -0.6144 -0.6772
11069TIP3    H254699   6.523   6.681   5.980 -1.3003 -0.3416  0.0988
11070TIP3   OH254700   2.993   4.159   0.938 -0.6148 -0.4022 -0.0222
11070TIP3    H154701   3.034   4.246   0.935 -0.2471 -0.5090  1.3214
11070TIP3    H254702   2.904   4.174   0.907 -0.7976  0.6239  0.9304
11071TIP3   OH254703   0.166   2.322  12.700  0.5435 -0.1523 -0.5593
11071TIP3    H154704   0.252   2.284  12.719  0.7967  0.4797 -0.4085
11071TIP3    H254705   0.185   2.395  12.642  0.2053  0.5568  0.1996
11072TIP3   OH254706   6.113   6.620   2.053  0.3462 -0.1189  0.0941
11072TIP3    H154707   6.122   6.686   2.122 -2.9537  1.3632 -0.6840
11072TIP3    H254708   6.170   6.651   1.982  1.7847 -0.2661  1.1579
11073TIP3   OH254709   4.490   5.079  15.146  0.3659  0.1132  0.2761
11073TIP3    H154710   4.430   5.040  15.083  0.1792  0.3144  0.3297
11073TIP3    H254711   4.446   5.068  15.231  0.9564 -0.8419  0.4699
11074TIP3   OH254712   4.513   2.026   2.252  0.2499 -0.0200 -0.2110
11074TIP3    H154713   4.483   2.007   2.340 -1.5972 -1.8294 -1.1446
11074TIP3    H254714   4.587   1.968   2.238  0.7112  0.4573  0.2164
11075TIP3   OH254715   5.443   0.598   4.711  0.9823 -0.2402  0.5312
11075TIP3    H154716   5.454   0.516   4.759 -1.0500 -1.1181 -0.3675
11075TIP3    H254717   5.486   0.582   4.627 -0.3175 -0.8507 -0.0596
11076TIP3   OH254718   3.673   6.781  14.339  0.2704 -0.0651  0.5226
11076TIP3    H154719   3.668   6.763  14.433 -0.5661  0.2200  0.5458
11076TIP3    H254720   3.752   6.834  14.329  0.3943 -0.1374  1.0564
11077TIP3   OH254721   2.959   4.692  10.595  0.2785 -0.6740  0.0268
11077TIP3    H154722   2.992   4.776  10.627  1.5131 -1.4128  0.7625
11077TIP3    H254723   2.920   4.712  10.510 -0.3993  0.8141  0.6466
11078TIP3   OH254724   0.578   4.203  15.524  0.4862 -0.4878  0.2694
11078TIP3    H154725   0.501   4.250  15.492  0.1113  0.2730  2.1507
11078TIP3    H254726   0.568   4.115  15.488 -1.4950 -0.5259  0.7599
11079TIP3   OH254727   5.069   1.711   4.544  0.1115  0.5959 -0.2031
11079TIP3    H154728   4.997   1.747   4.595 -0.9137 -1.3222 -0.2092
11079TIP3    H254729   5.107   1.643   4.600  1.6690  1.2989 -0.3622
11080TIP3   OH254730   0.086   6.229  13.345 -0.0205  0.0576 -0.1667
11080TIP3    H154731   0.059   6.167  13.278 -0.5566  1.9191 -1.7846
11080TIP3    H254732   0.058   6.190  13.428 -1.8761 -1.0531 -1.2663
11081TIP3   OH254733   5.974   2.269   3.536 -0.3826 -0.1769  0.2596
11081TIP3    H154734   5.893   2.295   3.493  0.0651  0.2475 -0.3613
11081TIP3    H254735   6.028   2.349   3.535 -1.0016  0.4047  3.2448
11082TIP3   OH254736   0.635   3.143   3.729  0.2474  0.0071  0.5246
11082TIP3    H154737   0.552   3.184   3.755  0.1551  0.7274 -0.8216
11082TIP3    H254738   0.652   3.178   3.641  1.9413 -0.1854  0.7536
11083TIP3   OH254739   0.504   5.800   5.852 -0.0337  0.7051  0.0880
11083TIP3    H154740   0.504   5.713   5.812  1.6431 -0.9373  3.2639
11083TIP3    H254741   0.413   5.828   5.848 -1.9895 -3.7367  3.6598
11084TIP3   OH254742   1.941   5.163  16.945 -0.3066 -0.5234  0.5634
11084TIP3    H154743   1.903   5.211  17.019  0.7852 -0.6245  1.2121
11084TIP3    H254744   2.001   5.101  16.985  0.2547 -0.6321 -0.4147
11085TIP3   OH254745   2.525   2.760   1.732  0.6637  0.1626  0.1346
11085TIP3    H154746   2.534   2.759   1.828 -0.0590 -0.7781  0.2167
11085TIP3    H254747   2.490   2.673   1.711  0.9598  0.3035 -1.0049
11086TIP3   OH254748   3.578   5.592   4.403  0.2340 -0.5886 -0.0497
11086TIP3    H154749   3.624   5.534   4.464 -0.7995 -1.4774 -0.0866
11086TIP3    H254750   3.621   5.677   4.414  1.2273 -1.1576  0.6195
11087TIP3   OH254751   0.498   6.815  16.176 -0.2041  0.4666 -0.3536
11087TIP3    H154752   0.503   6.852  16.264  2.8333  0.7702 -0.5522
11087TIP3    H254753   0.423   6.858  16.135 -2.0213 -0.0611  2.1847
11088TIP3   OH254754   5.383   3.706  11.768 -0.0301  0.1140 -0.3347
11088TIP3    H154755   5.382   3.661  11.853 -0.6474  0.2164 -0.2794
11088TIP3    H254756   5.367   3.636  11.704  2.0392 -0.2401 -0.5327
11089TIP3   OH254757   4.065   5.609   0.676 -0.0868  0.0330 -0.0572
11089TIP3    H154758   4.068   5.698   0.643 -0.7250 -0.1712 -0.6696
11089TIP3    H254759   3.973   5.586   0.676 -0.0089 -0.3429  0.8894
11090TIP3   OH254760   5.567   1.747  12.429  0.0312  0.6522  0.0779
11090TIP3    H154761   5.473   1.764  12.440 -0.1653 -0.3477  0.0265
11090TIP3    H254762   5.584   1.764  12.337 -0.5312 -1.0637 -0.3735
11091TIP3   OH254763   6.601   6.521   3.750  0.3865 -0.3196  0.4756
11091TIP3    H154764   6.581   6.615   3.747  1.9264  0.0307  0.6977
11091TIP3    H254765   6.523   6.480   3.711 -1.2620  0.8668  2.3202
11092TIP3   OH254766   3.806   5.479   3.741  0.1966  0.3721  0.1762
11092TIP3    H154767   3.803   5.407   3.678  0.8411 -0.4086  1.0085
11092TIP3    H254768   3.792   5.558   3.688 -1.9577 -0.4373 -0.5489
11093TIP3   OH254769   5.374   5.276   2.454 -0.4977 -0.0090  0.4624
11093TIP3    H154770   5.387   5.188   2.486 -1.1961 -0.1784  0.3018
11093TIP3    H254771   5.356   5.329   2.532  1.3654  0.2979  0.7291
11094TIP3   OH254772   0.992   1.661   0.901 -1.0615  0.3454 -0.1857
11094TIP3    H154773   1.070   1.696   0.857 -0.4563  0.0345  0.6219
11094TIP3    H254774   0.933   1.736   0.907 -0.1043  1.0391  0.7912
11095TIP3   OH254775   1.651   5.816   3.766 -0.2765  0.5926  0.0628
11095TIP3    H154776   1.657   5.878   3.693 -2.2058  0.5273 -0.2155
11095TIP3    H254777   1.594   5.746   3.733  0.8883 -0.7451  0.7873
11096TIP3   OH254778   1.585   4.152  13.033 -0.0254 -0.1057  0.5315
11096TIP3    H154779   1.527   4.102  13.090 -3.0522  1.4792 -0.9263
11096TIP3    H254780   1.544   4.146  12.946  1.8145  1.4342 -0.5181
11097TIP3   OH254781   2.765   3.496  15.321 -0.1354  0.0162 -0.2765
11097TIP3    H154782   2.702   3.520  15.388 -0.3063  0.4714 -0.5973
11097TIP3    H254783   2.847   3.538  15.349 -0.1759  0.1054 -0.2933
11098TIP3   OH254784   5.586   1.105  13.320  0.2078 -0.8377 -0.0098
11098TIP3    H154785   5.493   1.088  13.336 -0.1971 -0.0047 -1.3029
11098TIP3    H254786   5.617   1.026  13.276 -0.2588 -0.5825 -0.8355
11099TIP3   OH254787   2.517   4.868  16.560 -0.2012 -0.1550  0.1614
11099TIP3    H154788   2.585   4.885  16.626  1.1910  0.0252 -1.2436
11099TIP3    H254789   2.440   4.915  16.592  0.2947 -0.3825  1.8241
11100TIP3   OH254790   1.129   1.710   3.196 -0.3958 -0.0941  0.6014
11100TIP3    H154791   1.223   1.722   3.183 -0.0073 -1.8236  1.4757
11100TIP3    H254792   1.099   1.794   3.231  1.0333  0.1423  1.3544
11101TIP3   OH254793   4.350   6.057   1.470 -0.7213 -0.6798 -0.3966
11101TIP3    H154794   4.402   6.137   1.484 -1.3343  0.3503 -3.2854
11101TIP3    H254795   4.399   5.988   1.515  1.7726  0.7034 -0.8123
11102TIP3   OH254796   0.146   4.637   4.856 -0.5724 -0.1242 -0.6024
11102TIP3    H154797   0.133   4.697   4.930 -1.7345 -0.5594 -0.4427
11102TIP3    H254798   0.198   4.565   4.893 -0.6116 -0.0333 -0.3640
11103TIP3   OH254799   1.455   2.040  11.283  0.2494  0.0063  0.0364
11103TIP3    H154800   1.388   2.061  11.347  1.0877  3.4173 -0.0332
11103TIP3    H254801   1.446   2.108  11.216  2.2327 -0.8479 -1.1775
11104TIP3   OH254802   5.115   6.217  13.200 -0.1236  0.1422  0.3112
11104TIP3    H154803   5.100   6.123  13.190  0.0479  0.1069  0.3815
11104TIP3    H254804   5.175   6.223  13.275  1.8554  0.1517 -1.2009
11105TIP3   OH254805   0.736   3.853  16.797 -0.2048 -0.2173  0.6871
11105TIP3    H154806   0.710   3.824  16.884 -0.8320 -0.6829  0.3551
11105TIP3    H254807   0.728   3.949  16.800  0.9420 -0.1274  1.4973
11106TIP3   OH254808   2.287   0.942   3.168 -0.0157  0.5021  0.0129
11106TIP3    H154809   2.381   0.938   3.154  0.0417 -1.0089  0.6005
11106TIP3    H254810   2.249   0.936   3.080  0.4322 -0.3592 -0.1318
11107TIP3   OH254811   3.682   4.786   3.002  0.0241 -0.4805  0.4123
11107TIP3    H154812   3.636   4.861   3.038 -2.6051 -0.5077 -2.4981
11107TIP3    H254813   3.758   4.823   2.957 -1.0845  0.4461 -0.7471
11108TIP3   OH254814   4.253   4.557   4.498  0.3955  0.3797 -0.1759
11108TIP3    H154815   4.314   4.488   4.525  0.1278  0.5974  1.0530
11108TIP3    H254816   4.294   4.639   4.526  0.5378  0.7049 -1.2961
11109TIP3   OH254817   3.582   2.604   1.645 -1.0409 -0.2867  0.6269
11109TIP3    H154818   3.641   2.643   1.580 -3.0201 -0.5373 -1.4193
11109TIP3    H254819   3.595   2.658   1.724 -0.3836  1.6471 -0.7229
11110TIP3   OH254820   2.181   3.424  13.690  0.1954  0.0802  0.1817
11110TIP3    H154821   2.236   3.369  13.745  0.1058 -1.3328 -1.0647
11110TIP3    H254822   2.095   3.382  13.691  0.0865  0.2465 -0.6879
11111TIP3   OH254823   1.987   0.178   4.811  0.1333  0.1778  0.6498
11111TIP3    H154824   2.007   0.090   4.844  1.4318  0.7897  1.6324
11111TIP3    H254825   1.961   0.227   4.889 -0.1056  0.7837  0.1948
11112TIP3   OH254826   3.064   3.629  10.695 -0.0448 -0.0440  0.0494
11112TIP3    H154827   3.088   3.718  10.723 -2.5418  0.8182 -0.3126
11112TIP3    H254828   3.037   3.639  10.604 -1.1012 -0.9962  0.2368
11113TIP3   OH254829   0.987   1.924  12.035 -0.4351  0.4310 -0.2396
11113TIP3    H154830   1.081   1.936  12.029 -0.3001  0.3643  1.2419
11113TIP3    H254831   0.957   1.919  11.945  1.0762 -0.3350 -0.7260
11114TIP3   OH254832   2.778   5.890   4.406 -0.3043 -0.5627 -0.4173
11114TIP3    H154833   2.772   5.984   4.418  0.6927 -0.3547 -1.3715
11114TIP3    H254834   2.718   5.870   4.333  0.8379 -0.3661 -1.4481
11115TIP3   OH254835   2.206   4.769  13.677 -0.2071  0.6749  0.7873
11115TIP3    H154836   2.246   4.682  13.672  1.3910  1.4153 -0.3623
11115TIP3    H254837   2.209   4.792  13.770 -0.5584 -0.4399  1.0896
11116TIP3   OH254838   4.720   4.143   5.180  0.3029 -0.1678 -0.1342
11116TIP3    H154839   4.664   4.150   5.257  0.1770  1.5895 -0.3454
11116TIP3    H254840   4.799   4.099   5.211 -0.2269 -0.5384  0.7136
11117TIP3   OH254841   5.374   4.112  14.236 -0.0240 -0.0318  0.9460
11117TIP3    H154842   5.313   4.184  14.223  0.0231 -0.0526  0.5794
11117TIP3    H254843   5.429   4.138  14.310 -0.7088 -0.1717  1.5125
11118TIP3   OH254844   5.975   1.558  12.043  0.4629 -0.0233 -0.0343
11118TIP3    H154845   6.042   1.579  12.107  0.9561 -0.9423 -0.2385
11118TIP3    H254846   5.954   1.642  12.002 -0.0243  0.6196  1.4551
11119TIP3   OH254847   4.926   5.931   3.967  0.0948  0.4551  0.5446
11119TIP3    H154848   4.975   5.850   3.953  1.4174  1.0662  1.3902
11119TIP3    H254849   4.858   5.907   4.030 -0.7541 -0.4026 -0.6372
11120TIP3   OH254850   5.322   0.866   2.617 -0.0543  0.2295  0.2291
11120TIP3    H154851   5.381   0.941   2.616  0.3235 -0.0645  0.1224
11120TIP3    H254852   5.378   0.792   2.642 -0.1252 -0.2520 -0.9793
11121TIP3   OH254853   2.708   0.874  16.663  0.4649 -0.1840  0.1953
11121TIP3    H154854   2.628   0.914  16.699 -0.2135 -1.8143  0.6126
11121TIP3    H254855   2.676   0.813  16.596  1.4182 -0.3399 -0.1340
11122TIP3   OH254856   4.915   0.761  14.522  0.0091  0.3249  0.8083
11122TIP3    H154857   4.919   0.831  14.456 -1.0892  3.0025  3.3732
11122TIP3    H254858   4.983   0.699  14.494 -0.4527  1.2077 -2.8380
11123TIP3   OH254859   1.450   3.162  11.071  0.4175  1.2930 -0.0813
11123TIP3    H154860   1.430   3.164  10.977  2.6587  0.0785 -0.6714
11123TIP3    H254861   1.538   3.200  11.078  0.3588  1.2031  1.5069
11124TIP3   OH254862   5.965   1.813  12.855  0.2712 -0.6378 -0.1210
11124TIP3    H154863   6.047   1.775  12.884 -0.0144  0.8473  3.0441
11124TIP3    H254864   5.897   1.758  12.895 -0.2692 -0.9334 -1.4028
11125TIP3   OH254865   5.936   4.029   4.537 -0.2666  0.0988 -0.7461
11125TIP3    H154866   5.931   3.994   4.626  1.8926  0.6791 -0.3413
11125TIP3    H254867   5.913   3.955   4.481 -0.4559 -0.6164  0.2432
11126TIP3   OH254868   2.645   0.666   3.841 -0.3783 -0.6255 -0.2822
11126TIP3    H154869   2.689   0.688   3.923 -0.3875  0.6756 -0.6103
11126TIP3    H254870   2.614   0.576   3.854  0.5017 -0.7982  0.7516
11127TIP3   OH254871   5.780   1.751   5.077  0.1706 -0.6138 -0.1544
11127TIP3    H154872   5.818   1.663   5.080 -1.4865 -1.3653 -0.4251
11127TIP3    H254873   5.740   1.758   4.991  0.5153  0.5375 -0.2461
11128TIP3   OH254874   1.936   5.587  12.186 -0.4562  0.2106 -0.0273
11128TIP3    H154875   1.915   5.548  12.271  0.1719 -0.8614 -0.3483
11128TIP3    H254876   1.852   5.602  12.144 -0.8042  1.2381  0.9831
11129TIP3   OH254877   1.811   0.331  12.876 -0.0247 -0.3980  0.7606
11129TIP3    H154878   1.786   0.317  12.968 -0.1816 -5.9949  0.1809
11129TIP3    H254879   1.872   0.261  12.857 -1.7353 -0.9278 -3.9865
11130TIP3   OH254880   5.527   6.332  14.340 -0.2028 -0.0823 -0.0892
11130TIP3    H154881   5.580   6.409  14.357  2.6232 -1.9893  0.4455
11130TIP3    H254882   5.549   6.306  14.251 -0.2220 -0.9091  0.1373
11131TIP3   OH254883   5.121   5.587   4.679  0.1820  0.0324  0.1748
11131TIP3    H154884   5.188   5.622   4.620  0.6926 -1.2663 -0.0498
11131TIP3    H254885   5.171   5.551   4.753 -0.3641  0.3974  0.7204
11132TIP3   OH254886   5.337   1.631  14.243 -0.0172 -0.1901 -0.1149
11132TIP3    H154887   5.251   1.616  14.284 -1.0190 -0.5333 -2.2130
11132TIP3    H254888   5.316   1.663  14.155  2.0488  1.5921 -0.0373
11133TIP3   OH254889   5.187   3.948   2.051 -0.3572  0.4890  0.0065
11133TIP3    H154890   5.172   3.871   1.997 -1.1969  0.7882 -0.1930
11133TIP3    H254891   5.102   3.992   2.055  0.3385  1.9718 -0.7674
11134TIP3   OH254892   0.377   4.989  16.276  0.0662 -0.0119 -0.0447
11134TIP3    H154893   0.379   4.978  16.371 -1.2943  0.8291  0.1115
11134TIP3    H254894   0.288   5.020  16.258  0.5024  0.4372 -1.5282
11135TIP3   OH254895   1.652   3.163   0.369 -0.0220 -0.8419 -0.3745
11135TIP3    H154896   1.736   3.188   0.408 -0.2860  1.5033 -1.1607
11135TIP3    H254897   1.672   3.146   0.277 -0.7512  2.6000 -1.2932
11136TIP3   OH254898   2.782   5.342  13.186  0.3295 -0.4975 -0.0748
11136TIP3    H154899   2.711   5.383  13.138  0.9405  1.7565  0.8357
11136TIP3    H254900   2.744   5.322  13.272 -0.3598 -3.2504 -0.9132
11137TIP3   OH254901   4.851   2.789   4.331  0.1950  0.1366  0.1945
11137TIP3    H154902   4.883   2.854   4.394 -0.6904  0.8397 -0.0552
11137TIP3    H254903   4.906   2.802   4.253  0.5020  0.0847  0.4002
11138TIP3   OH254904   6.787   5.274  14.056 -0.3891 -0.3996  0.2896
11138TIP3    H154905   6.766   5.181  14.060 -2.7041  0.0718  0.2998
11138TIP3    H254906   6.846   5.289  14.130 -2.1418 -1.3845  1.9635
11139TIP3   OH254907   3.617   1.457  11.851 -0.0323  0.0742  0.0896
11139TIP3    H154908   3.535   1.443  11.898  1.1146  0.6244  2.4018
11139TIP3    H254909   3.660   1.372  11.853  0.6717  0.4195  1.4874
11140TIP3   OH254910   6.388   2.032  11.364 -0.0939  0.0831 -0.4978
11140TIP3    H154911   6.412   2.041  11.457 -1.0837  0.3650 -0.2565
11140TIP3    H254912   6.469   2.006  11.321  0.8977  1.9972  0.1064
11141TIP3   OH254913   0.815   5.192  12.561  0.0105  0.2980  0.2896
11141TIP3    H154914   0.822   5.220  12.653 -0.8099 -0.4378  0.5993
11141TIP3    H254915   0.727   5.221  12.535 -0.2523 -0.5974  0.1427
11142TIP3   OH254916   2.218   5.615   5.863  0.2045  0.7881 -0.2952
11142TIP3    H154917   2.229   5.681   5.932 -1.4744  0.9817 -0.1493
11142TIP3    H254918   2.141   5.645   5.814 -1.0881 -1.4025  0.2305
11143TIP3   OH254919   2.892   4.161  11.215 -0.6929  0.1652  0.0780
11143TIP3    H154920   2.923   4.202  11.133 -1.7046  3.2703  1.0992
11143TIP3    H254921   2.968   4.164  11.273 -0.9640  1.4371  0.3980
11144TIP3   OH254922   6.539   4.723   5.230  0.0557  0.1083  0.3059
11144TIP3    H154923   6.485   4.645   5.224  1.5707 -0.9655  0.0062
11144TIP3    H254924   6.558   4.732   5.323  0.3077 -0.1870  0.2832
11145TIP3   OH254925   5.618   6.065   1.913  0.2458  0.3893 -0.3623
11145TIP3    H154926   5.696   6.018   1.943  0.1613 -0.2239 -1.0678
11145TIP3    H254927   5.613   6.045   1.820  0.6646  2.4712 -0.8781
11146TIP3   OH254928   4.418   5.139   3.148 -0.5857  0.2431  0.0431
11146TIP3    H154929   4.484   5.073   3.124 -0.8452  0.1376 -0.3900
11146TIP3    H254930   4.451   5.221   3.112 -1.3502 -0.0474 -1.3898
11147TIP3   OH254931   4.162   2.434   0.276 -0.2186  0.1171 -0.0729
11147TIP3    H154932   4.091   2.492   0.303 -0.2293  0.1637 -0.2009
11147TIP3    H254933   4.140   2.349   0.315 -0.3377  0.1344 -0.1029
11148TIP3   OH254934   4.015   1.041   2.529  0.3085  0.0888 -0.1395
11148TIP3    H154935   4.027   1.133   2.552 -1.0083 -0.0075  1.1096
11148TIP3    H254936   4.019   0.995   2.613  0.9445 -1.0061 -0.7451
11149TIP3   OH254937   1.742   5.362   1.182  0.6137 -0.3024  0.1181
11149TIP3    H154938   1.795   5.319   1.249 -0.5606 -1.1339  0.5275
11149TIP3    H254939   1.673   5.299   1.160 -0.6829  1.0454  0.1548
11150TIP3   OH254940   0.332   0.328   0.388 -0.3951 -0.2642 -0.1400
11150TIP3    H154941   0.331   0.411   0.435 -0.9083  1.2951 -2.7152
11150TIP3    H254942   0.413   0.329   0.337 -0.4155 -1.3561 -0.2331
11151TIP3   OH254943   1.075   1.240  13.445 -0.6518 -0.3632  0.2107
11151TIP3    H154944   1.033   1.323  13.466 -1.6667 -1.0120  0.8403
11151TIP3    H254945   1.107   1.207  13.529  1.0310  0.0271 -0.2214
11152TIP3   OH254946   6.224   0.280   5.625 -0.0381 -0.2299  0.2254
11152TIP3    H154947   6.139   0.276   5.582 -0.2295 -1.7281  0.7098
11152TIP3    H254948   6.207   0.317   5.711  0.4256  3.3395 -1.0522
11153TIP3   OH254949   4.089   0.316   0.945  0.6569 -0.5328  0.1671
11153TIP3    H154950   4.007   0.291   0.989  0.8974 -0.2129  0.8041
11153TIP3    H254951   4.124   0.387   0.998  0.6360  0.2915 -0.9020
11154TIP3   OH254952   5.731   5.258   0.106  0.3228 -0.5758 -0.3054
11154TIP3    H154953   5.637   5.249   0.122 -0.1176  1.7126 -1.2260
11154TIP3    H254954   5.745   5.214   0.022 -0.2726  0.4529 -0.9672
11155TIP3   OH254955   2.233   3.005   1.843 -0.2493 -0.0582  0.4337
11155TIP3    H154956   2.292   3.080   1.826  1.4794 -1.1642  1.2687
11155TIP3    H254957   2.255   2.977   1.932 -0.1847 -2.1116 -0.1755
11156TIP3   OH254958   0.548   2.877  17.169 -0.1507  0.2339 -0.5241
11156TIP3    H154959   0.474   2.853  17.225 -1.4563 -0.5611 -2.4765
11156TIP3    H254960   0.538   2.823  17.091  2.1775  0.5632 -1.1292
11157TIP3   OH254961   2.985   6.536   5.490  0.1104 -0.0850  0.2648
11157TIP3    H154962   3.033   6.493   5.419 -0.6718 -1.6608  0.6709
11157TIP3    H254963   3.012   6.628   5.483  3.3292 -0.8658  0.5746
11158TIP3   OH254964   2.239   2.146   2.353 -0.3162 -0.9763 -0.2340
11158TIP3    H154965   2.263   2.229   2.313 -1.4027 -0.3031  0.4566
11158TIP3    H254966   2.160   2.119   2.307 -0.6527 -1.0138  0.3523
11159TIP3   OH254967   0.122   6.567  12.964  0.0182  0.7465 -0.5173
11159TIP3    H154968   0.120   6.478  12.999  2.1540  0.0531 -1.9535
11159TIP3    H254969   0.052   6.568  12.898  0.5282 -0.1497 -1.0861
11160TIP3   OH254970   3.947   6.581   0.466 -0.0586  0.1020 -0.0101
11160TIP3    H154971   3.906   6.662   0.494  0.2293  0.7443 -1.3496
11160TIP3    H254972   3.971   6.536   0.547 -0.4258  1.2508  0.7478
11161TIP3   OH254973   0.417   6.823   3.207 -0.3976  0.1321 -0.4353
11161TIP3    H154974   0.473   6.839   3.130  0.6214 -1.2191 -0.0178
11161TIP3    H254975   0.449   6.740   3.242 -0.8869  0.6981  1.4176
11162TIP3   OH254976   0.397   5.617  11.946  0.8497 -0.1014 -0.5456
11162TIP3    H154977   0.368   5.528  11.967  1.4332 -0.2863 -0.5007
11162TIP3    H254978   0.484   5.605  11.908  0.9331  0.4536 -0.5338
11163TIP3   OH254979   2.535   1.738  12.508  0.1657  0.6743  0.5148
11163TIP3    H154980   2.496   1.676  12.446  0.0570  1.3027 -0.0643
11163TIP3    H254981   2.530   1.694  12.592 -1.0401  0.3760  0.3188
11164TIP3   OH254982   5.796   2.681  14.276  0.3996  0.6350 -0.6119
11164TIP3    H154983   5.723   2.743  14.271  0.1954  0.4575  0.1001
11164TIP3    H254984   5.755   2.595  14.282  0.6424  0.5891  0.6087
11165TIP3   OH254985   5.585   1.738   1.979 -0.0652  0.0713 -0.4707
11165TIP3    H154986   5.558   1.754   2.070  2.3092  1.2333  0.1352
11165TIP3    H254987   5.509   1.761   1.926 -1.0051  0.8771  1.1572
11166TIP3   OH254988   2.394   0.799   2.252  0.3370  0.8730 -0.7247
11166TIP3    H154989   2.366   0.710   2.275  0.6240  1.1772  0.9103
11166TIP3    H254990   2.389   0.848   2.334  1.3106  2.0844 -1.3547
11167TIP3   OH254991   6.455   3.716   0.231 -0.9462 -0.2264 -0.2445
11167TIP3    H154992   6.385   3.678   0.284 -0.6103  2.6717  2.5825
11167TIP3    H254993   6.416   3.730   0.145 -4.1026  1.5977  1.3131
11168TIP3   OH254994   3.072   4.144   5.920  0.2538  0.6732  0.4443
11168TIP3    H154995   3.111   4.110   6.001  0.4519  0.0211  0.0741
11168TIP3    H254996   3.064   4.068   5.863  0.9675  1.2835 -0.4952
11169TIP3   OH254997   3.253   5.117   1.471 -0.2708  0.3027 -0.2180
11169TIP3    H154998   3.301   5.167   1.537  0.1131  0.6254 -0.7366
11169TIP3    H254999   3.269   5.025   1.495 -1.3873  0.4036  1.0297
11170TIP3   OH255000   4.554   1.694  14.247  0.0095 -0.1632 -0.6240
11170TIP3    H155001   4.566   1.649  14.330 -1.0903  0.3545 -0.1734
11170TIP3    H255002   4.624   1.659  14.191  2.2952  1.1956  1.1907
11171TIP3   OH255003   5.417   0.155   3.694 -0.1896  0.2009  0.0427
11171TIP3    H155004   5.467   0.227   3.657 -0.8001  0.6020 -0.0176
11171TIP3    H255005   5.446   0.077   3.646  1.0729  0.2604  0.6675
11172TIP3   OH255006   5.954   4.388  13.547 -0.7679  0.0672  0.1477
11172TIP3    H155007   6.018   4.387  13.618  0.2267  0.8617 -0.7095
11172TIP3    H255008   5.893   4.457  13.572 -0.6821  0.0335  0.4533
11173TIP3   OH255009   1.361   6.618   4.224  0.6784  0.1397  0.1747
11173TIP3    H155010   1.352   6.713   4.216  2.3281  0.3882  0.9594
11173TIP3    H255011   1.407   6.592   4.144 -1.9268 -0.4054 -1.2726
11174TIP3   OH255012   6.023   5.516   1.278 -0.3478  0.1046 -0.4250
11174TIP3    H155013   6.106   5.550   1.311  0.2720 -1.5208 -0.1708
11174TIP3    H255014   6.049   5.444   1.220 -1.5903 -1.5085  0.9314
11175TIP3   OH255015   5.613   1.233   3.064  0.1554  0.4478  0.0634
11175TIP3    H155016   5.653   1.162   3.113 -1.4496 -0.4930  0.0741
11175TIP3    H255017   5.631   1.213   2.973  0.9859  0.8650  0.1181
11176TIP3   OH255018   1.686   2.917   5.021  0.2603 -0.3192  0.1194
11176TIP3    H155019   1.676   2.909   4.926 -1.8890  1.4510  0.1349
11176TIP3    H255020   1.745   2.991   5.033  0.4482 -0.4774  0.1943
11177TIP3   OH255021   4.108   6.703   0.977  0.4465  0.6995 -0.0270
11177TIP3    H155022   4.023   6.702   1.020 -0.1444 -1.3985 -1.1387
11177TIP3    H255023   4.089   6.718   0.885  1.1665 -0.8118 -0.4484
11178TIP3   OH255024   5.507   4.967   2.250 -0.3853 -0.5305  0.5504
11178TIP3    H155025   5.472   5.051   2.222  0.5406 -0.6081 -0.9322
11178TIP3    H255026   5.439   4.903   2.229  0.4179 -0.6356 -1.9873
11179TIP3   OH255027   5.979   6.060   4.595  0.2946 -0.1126  0.2707
11179TIP3    H155028   5.888   6.039   4.613 -0.1813  1.6378  0.0613
11179TIP3    H255029   5.995   6.143   4.641  1.2107  0.5883 -1.2275
11180TIP3   OH255030   6.369   2.782  13.937 -0.0682  0.0401  0.2208
11180TIP3    H155031   6.446   2.770  13.993 -0.3169  2.1258  1.1106
11180TIP3    H255032   6.340   2.693  13.918  1.7298 -0.7851  1.0115
11181TIP3   OH255033   5.490   0.146   4.181 -0.1248  0.0863  0.0654
11181TIP3    H155034   5.448   0.231   4.191  0.7779  0.5308  0.1643
11181TIP3    H255035   5.485   0.127   4.088 -0.8004 -0.0164  0.1116
11182TIP3   OH255036   4.517   0.630   5.684  0.1557  0.1411  0.1602
11182TIP3    H155037   4.423   0.609   5.686  0.0330  0.6792  0.0848
11182TIP3    H255038   4.547   0.597   5.599 -0.2171  1.0147 -0.3267
11183TIP3   OH255039   1.461   6.511   1.944  0.3320  0.3919 -0.2587
11183TIP3    H155040   1.459   6.593   1.994 -0.7744 -0.0229  0.3929
11183TIP3    H255041   1.554   6.494   1.931  0.6427  0.7099  1.3341
11184TIP3   OH255042   6.753   0.929   4.089  0.3621 -0.2874  0.2250
11184TIP3    H155043   6.766   0.981   4.168 -1.9936  1.1483 -0.1983
11184TIP3    H255044   6.762   0.993   4.018 -1.8975 -0.5035 -0.3474
11185TIP3   OH255045   0.231   6.134   6.268  0.3860  0.7251  0.6760
11185TIP3    H155046   0.222   6.136   6.172 -0.1792  1.5321  0.7384
11185TIP3    H255047   0.152   6.090   6.298  1.0931 -0.5458  0.7211
11186TIP3   OH255048   2.908   1.100   2.610  0.3446  0.2715 -0.2092
11186TIP3    H155049   2.874   1.150   2.536 -1.6808  0.2936  0.6715
11186TIP3    H255050   2.875   1.011   2.596  0.7591  0.0493  0.1771
11187TIP3   OH255051   2.778   4.541   0.436  0.1106 -0.0394 -0.7682
11187TIP3    H155052   2.724   4.619   0.427 -0.2600 -0.3754 -1.5946
11187TIP3    H255053   2.715   4.468   0.434  0.1117 -0.3315  2.7504
11188TIP3   OH255054   0.172   3.281   4.846 -0.4724 -0.4565  0.1265
11188TIP3    H155055   0.200   3.350   4.785  0.1009 -2.2132 -1.6998
11188TIP3    H255056   0.077   3.275   4.833 -0.6338  0.3729  0.7763
11189TIP3   OH255057   3.770   4.738  10.758  0.3259 -0.3242  0.1883
11189TIP3    H155058   3.695   4.687  10.788  0.8879 -1.3696 -0.1224
11189TIP3    H255059   3.841   4.675  10.753  1.0274  0.4817 -0.2974
11190TIP3   OH255060   3.322   0.306  11.044  0.0813 -0.0145 -0.3499
11190TIP3    H155061   3.393   0.259  11.000 -2.1815 -1.8726 -2.3167
11190TIP3    H255062   3.326   0.394  11.008  1.6525  0.0729 -0.0341
11191TIP3   OH255063   4.137   0.007  11.903  0.2102  0.4094  0.1377
11191TIP3    H155064   4.102   0.075  11.846 -0.7294  0.6253  0.9439
11191TIP3    H255065   4.136   0.046  11.990 -1.3388 -0.9715  0.7771
11192TIP3   OH255066   4.505   1.002   6.121  0.3972  0.2377  0.2670
11192TIP3    H155067   4.472   0.985   6.209 -0.6692  0.4620 -0.0829
11192TIP3    H255068   4.489   1.095   6.106  1.1400  0.3425  0.0608
11193TIP3   OH255069   1.943   3.935   5.536 -0.3220  0.1399  0.1061
11193TIP3    H155070   1.975   3.849   5.509 -1.3139  0.2162 -1.4327
11193TIP3    H255071   2.008   3.966   5.599  0.6618 -1.2399 -0.1891
11194TIP3   OH255072   2.631   1.791   5.272  0.6022 -0.4387 -0.4704
11194TIP3    H155073   2.726   1.806   5.271  0.6389  0.1452  2.5268
11194TIP3    H255074   2.614   1.750   5.357 -1.8004 -0.9920 -1.1375
11195TIP3   OH255075   5.442   1.469   1.299 -0.1306 -0.3079 -0.0057
11195TIP3    H155076   5.518   1.474   1.241 -0.6226  1.9782 -0.5841
11195TIP3    H255077   5.368   1.457   1.239 -0.4968  0.6155  0.2375
11196TIP3   OH255078   2.324   0.674   3.316 -0.4479  0.2751 -0.3218
11196TIP3    H155079   2.410   0.716   3.312 -1.4824  2.5147 -0.8485
11196TIP3    H255080   2.305   0.649   3.225  0.5094 -2.2521  0.0979
11197TIP3   OH255081   5.765   0.038   4.217 -0.3001 -0.2298  0.1496
11197TIP3    H155082   5.815   0.117   4.236  0.6709 -1.0976  1.3929
11197TIP3    H255083   5.676   0.069   4.203  0.1157  1.1160  0.3179
11198TIP3   OH255084   4.391   3.096  12.845 -0.3110 -0.0046 -0.0104
11198TIP3    H155085   4.366   3.094  12.937  0.2351 -0.8586  0.1338
11198TIP3    H255086   4.334   3.030  12.804  1.5007 -1.8630  0.2922
11199TIP3   OH255087   4.258   4.633  13.240  0.2521 -0.3821 -0.4135
11199TIP3    H155088   4.247   4.563  13.177  1.3955 -1.0528  0.0861
11199TIP3    H255089   4.255   4.713  13.188  2.0372 -0.9511 -1.4855
11200TIP3   OH255090   2.265   3.106   5.891  0.9919  0.3215  0.4262
11200TIP3    H155091   2.238   3.102   5.983  0.1829  0.7546  0.2253
11200TIP3    H255092   2.324   3.181   5.887 -0.6650  1.6930  0.2236
11201TIP3   OH255093   0.175   1.062   3.455  0.3976 -0.0781  0.1377
11201TIP3    H155094   0.123   1.122   3.401 -0.2557  1.1914  2.0896
11201TIP3    H255095   0.135   1.066   3.542  3.2780  0.4438  1.5786
11202TIP3   OH255096   0.133   3.223   6.697  0.0446  0.6813  0.8531
11202TIP3    H155097   0.081   3.214   6.618  0.5229 -2.0101  0.7407
11202TIP3    H255098   0.132   3.317   6.717 -0.7722  1.3199 -1.8434
11203TIP3   OH255099   2.228   6.531   5.837 -0.5814 -0.0030  0.4195
11203TIP3    H155100   2.250   6.596   5.903  4.5452  0.6734 -1.4927
11203TIP3    H255101   2.261   6.448   5.873 -0.2532 -0.1304 -0.1644
11204TIP3   OH255102   5.985   3.160  17.007 -0.9178  0.6167  0.0855
11204TIP3    H155103   5.919   3.140  16.941 -0.4758  0.0432 -0.1893
11204TIP3    H255104   5.958   3.244  17.044 -1.2468  0.8653 -0.7186
11205TIP3   OH255105   2.227   5.219  15.584  0.1880  0.1193  0.5754
11205TIP3    H155106   2.147   5.173  15.560  0.3133  0.2526 -0.1296
11205TIP3    H255107   2.286   5.205  15.509  0.3587  1.1032  0.5098
11206TIP3   OH255108   6.084   2.286  14.882  0.1814  0.2779 -0.3946
11206TIP3    H155109   5.995   2.251  14.887  0.7024 -0.9582  0.6375
11206TIP3    H255110   6.116   2.259  14.796 -0.3314  0.4812 -0.6546
11207TIP3   OH255111   1.721   0.603  15.744  0.4143 -0.2120 -0.7420
11207TIP3    H155112   1.775   0.560  15.812 -0.8300 -0.7740 -0.0809
11207TIP3    H255113   1.705   0.691  15.778  0.6455 -0.1498 -0.7921
11208TIP3   OH255114   0.744   6.258  14.556 -0.1263 -0.0337  0.1553
11208TIP3    H155115   0.785   6.194  14.498  0.6532  0.6743 -0.0945
11208TIP3    H255116   0.817   6.309  14.591 -0.6768  0.2511  0.9126
11209TIP3   OH255117   1.600   0.935  14.105  0.2762  0.1241  0.4692
11209TIP3    H155118   1.695   0.924  14.100  0.2100 -0.4671  0.4122
11209TIP3    H255119   1.566   0.879  14.035 -0.2423 -1.8516  2.2064
11210TIP3   OH255120   1.845   2.247  16.160 -0.3010 -0.0788 -0.4603
11210TIP3    H155121   1.935   2.271  16.181 -0.2597  0.0411 -0.7680
11210TIP3    H255122   1.790   2.303  16.215 -0.1857 -1.6656  1.4051
11211TIP3   OH255123   5.751   6.354   4.058 -0.3642 -0.6368 -0.4547
11211TIP3    H155124   5.821   6.407   4.097 -0.6985 -0.3357 -0.2565
11211TIP3    H255125   5.757   6.270   4.103 -0.0676 -0.6441 -0.5068
11212TIP3   OH255126   5.887   5.629   2.470  0.4885  0.3001 -0.3328
11212TIP3    H155127   5.851   5.541   2.480 -0.7584  0.7551 -0.6744
11212TIP3    H255128   5.901   5.659   2.560  0.5191 -0.0888 -0.2053
11213TIP3   OH255129   0.801   2.415  16.375  0.1971 -0.3619 -0.5280
11213TIP3    H155130   0.750   2.352  16.426  1.3254 -0.0073  1.1328
11213TIP3    H255131   0.829   2.480  16.440 -2.0076  2.6436 -2.3471
11214TIP3   OH255132   1.186   6.702   1.679 -0.2357  0.0676  0.5671
11214TIP3    H155133   1.158   6.680   1.590  0.3789  1.0035  0.1298
11214TIP3    H255134   1.143   6.636   1.734 -0.5089 -0.6178 -0.4262
11215TIP3   OH255135   0.403   1.042   4.044  0.4979 -0.3366 -0.2383
11215TIP3    H155136   0.349   1.120   4.058  2.2511  0.7108  1.1606
11215TIP3    H255137   0.425   1.014   4.133  3.5006  0.2349 -0.7132
11216TIP3   OH255138   0.178   1.168   4.921  0.3233 -0.1447  0.1031
11216TIP3    H155139   0.165   1.078   4.891  0.5361 -0.6778  1.5078
11216TIP3    H255140   0.136   1.171   5.007 -1.8485  1.8272 -0.9328
11217TIP3   OH255141   4.548   3.773  11.846  0.2316  0.0856  0.0420
11217TIP3    H155142   4.626   3.812  11.887  2.3989 -2.9828 -0.7656
11217TIP3    H255143   4.558   3.793  11.753  1.7835 -2.6611 -0.5031
11218TIP3   OH255144   5.110   1.943   1.860  0.1376  0.1176  0.4912
11218TIP3    H155145   5.038   1.985   1.813  0.6376  1.1966  0.6676
11218TIP3    H255146   5.068   1.869   1.906 -1.4367  2.2839  2.7872
11219TIP3   OH255147   4.981   3.699  13.335 -0.2028  0.1609 -0.0543
11219TIP3    H155148   5.020   3.640  13.272 -0.9666  0.5555 -0.9136
11219TIP3    H255149   4.991   3.654  13.419  0.9986 -0.2758 -0.4152
11220TIP3   OH255150   3.648   5.831   5.984 -0.5063 -0.5972 -0.2715
11220TIP3    H155151   3.740   5.811   5.999 -0.4245 -1.9931 -2.2957
11220TIP3    H255152   3.631   5.907   6.040  1.3087 -1.5312  1.6838
11221TIP3   OH255153   4.267   4.646  14.759 -0.0831 -0.5333 -0.2148
11221TIP3    H155154   4.278   4.738  14.733 -0.2469 -0.8750 -1.5708
11221TIP3    H255155   4.354   4.617  14.784  0.2606 -0.4113 -1.2278
11222TIP3   OH255156   5.807   4.850  16.392 -0.4655 -0.1192 -0.6662
11222TIP3    H155157   5.715   4.826  16.403 -0.6579  0.7283 -0.3407
11222TIP3    H255158   5.841   4.786  16.330 -1.4168 -0.0980 -1.2329
11223TIP3   OH255159   4.450   3.572   6.270 -0.0681  0.5703  0.0595
11223TIP3    H155160   4.508   3.496   6.261  1.2818  1.5110  0.4824
11223TIP3    H255161   4.410   3.562   6.356 -0.2213  0.1438 -0.0557
11224TIP3   OH255162   1.148   1.509  11.507 -0.0895 -0.0289  0.2316
11224TIP3    H155163   1.124   1.445  11.439  1.0894 -0.3860  0.1329
11224TIP3    H255164   1.173   1.587  11.457  0.2256 -0.1024  0.2716
11225TIP3   OH255165   0.318   5.787  14.876 -0.0896 -0.5475 -0.0750
11225TIP3    H155166   0.245   5.779  14.815 -0.9409  0.4708  0.7905
11225TIP3    H255167   0.278   5.804  14.961  1.1536  2.2848  0.0689
11226TIP3   OH255168   4.150   0.044  11.066 -0.0609 -0.5361 -0.1284
11226TIP3    H155169   4.055   0.049  11.070 -0.0673 -1.5006  1.7646
11226TIP3    H255170   4.180   0.073  11.152  1.1850 -3.0347  0.3657
11227TIP3   OH255171   1.439   0.149  12.981 -0.2110 -0.3291 -0.3840
11227TIP3    H155172   1.350   0.118  12.966 -0.2625  0.1766 -1.1471
11227TIP3    H255173   1.429   0.221  13.044 -0.2423 -0.8429  0.2123
11228TIP3   OH255174   2.598   2.762   1.989  0.3871  0.3047  0.2209
11228TIP3    H155175   2.687   2.781   2.020  0.4104  0.2077  0.2142
11228TIP3    H255176   2.546   2.756   2.069  0.3218  0.6819  0.2107
11229TIP3   OH255177   3.560   4.285  14.220  0.0383 -0.4931  0.4976
11229TIP3    H155178   3.473   4.290  14.259 -0.4694  1.5814 -0.7492
11229TIP3    H255179   3.557   4.206  14.165 -0.8428 -0.7848  0.9449
11230TIP3   OH255180   4.832   6.291  13.362 -0.1919 -1.0422 -0.2224
11230TIP3    H155181   4.926   6.304  13.358 -0.0822 -1.9037 -0.5079
11230TIP3    H255182   4.820   6.214  13.418 -0.7199 -0.9884 -0.2553
11231TIP3   OH255183   6.324   2.517   4.849 -0.6533  0.3594  0.2581
11231TIP3    H155184   6.416   2.524   4.876 -0.6727 -1.4939  0.9298
11231TIP3    H255185   6.289   2.605   4.860  1.2694  1.3202 -0.8901
11232TIP3   OH255186   3.641   0.794  11.061  0.6568 -0.5119 -0.5637
11232TIP3    H155187   3.675   0.873  11.020 -0.0851  0.2471  0.2502
11232TIP3    H255188   3.555   0.781  11.022 -0.1093  0.2894  0.8040
11233TIP3   OH255189   4.254   2.878   3.734  0.4955 -0.3695  0.0291
11233TIP3    H155190   4.233   2.966   3.765  1.0360 -0.2525  0.0643
11233TIP3    H255191   4.328   2.891   3.674 -1.9097 -0.2541 -3.2281
11234TIP3   OH255192   1.154   3.088  12.395  0.0414 -0.3778 -0.0443
11234TIP3    H155193   1.181   3.171  12.354 -1.5473 -0.0135 -0.4101
11234TIP3    H255194   1.099   3.114  12.469  0.7894 -1.0961  0.7899
11235TIP3   OH255195   4.017   6.527   3.119 -0.0442  0.0966 -0.1880
11235TIP3    H155196   4.029   6.474   3.198 -0.4711 -0.5978 -0.5798
11235TIP3    H255197   4.047   6.614   3.144 -0.7695  0.0432  0.9376
11236TIP3   OH255198   5.643   5.806   4.823 -0.1156 -0.0771 -0.6509
11236TIP3    H155199   5.614   5.759   4.745  2.7366 -0.5319 -1.5479
11236TIP3    H255200   5.710   5.867   4.792  0.0512  0.8007  1.2426
11237TIP3   OH255201   5.463   6.240   2.692 -0.5706 -0.0733  0.0527
11237TIP3    H155202   5.548   6.264   2.653  0.3904 -0.1792  1.9736
11237TIP3    H255203   5.408   6.218   2.617  1.3351 -0.7601 -1.2367
11238TIP3   OH255204   0.258   5.363  15.545  0.2127  0.3848  0.3759
11238TIP3    H155205   0.286   5.363  15.637  1.0569 -1.7812  0.1735
11238TIP3    H255206   0.164   5.346  15.549 -0.5095  3.7157  0.8942
11239TIP3   OH255207   0.817   5.589   0.255 -0.3452 -0.0679 -0.1385
11239TIP3    H155208   0.770   5.616   0.334 -1.0853  0.0319 -0.6140
11239TIP3    H255209   0.754   5.539   0.204  0.4597 -1.1251 -0.1512
11240TIP3   OH255210   4.321   5.740  10.446  0.0559 -0.2085  0.2814
11240TIP3    H155211   4.247   5.788  10.483 -0.8525 -1.0861 -0.3367
11240TIP3    H255212   4.282   5.689  10.375  0.7677 -2.6078  1.5131
11241TIP3   OH255213   3.746   1.961  15.601 -0.0760 -0.0283  0.8046
11241TIP3    H155214   3.783   2.022  15.536  0.5372 -0.1271  1.0551
11241TIP3    H255215   3.812   1.957  15.670 -0.3516 -0.5729  1.0398
11242TIP3   OH255216   4.365   3.458  15.287  0.4657  0.0627  0.1550
11242TIP3    H155217   4.405   3.376  15.257 -1.6345 -0.7670 -0.5569
11242TIP3    H255218   4.392   3.523  15.222 -0.4911 -0.7944 -1.1329
11243TIP3   OH255219   4.872   5.848   2.620  0.2159  0.4650 -0.0753
11243TIP3    H155220   4.842   5.765   2.584 -0.1523 -0.1696  1.6012
11243TIP3    H255221   4.956   5.864   2.578  2.0499 -2.5671  2.0166
11244TIP3   OH255222   3.124   4.219  16.781  0.3332 -0.1614 -0.3728
11244TIP3    H155223   3.112   4.139  16.730 -1.3103 -2.4796  3.2150
11244TIP3    H255224   3.217   4.219  16.803  0.1968 -1.7461  0.3940
11245TIP3   OH255225   2.957   6.231  16.330 -0.2910 -0.0631 -0.6858
11245TIP3    H155226   2.936   6.172  16.403  0.0135  1.5485  0.7551
11245TIP3    H255227   2.998   6.174  16.265  0.3064 -1.4109  0.7937
11246TIP3   OH255228   3.108   3.023   4.330 -0.1346  0.0100 -0.1766
11246TIP3    H155229   3.020   3.015   4.292 -0.6754 -1.5125  1.2845
11246TIP3    H255230   3.157   3.074   4.266 -1.3029 -1.4440 -2.3589
11247TIP3   OH255231   1.509   2.916   0.258  0.2553  0.6927 -0.0625
11247TIP3    H155232   1.524   2.963   0.340 -0.2267 -1.5153  1.3758
11247TIP3    H255233   1.597   2.889   0.230  0.3160  0.4219  0.3802
11248TIP3   OH255234   1.914   4.185   3.049  0.5017  0.6540  0.3427
11248TIP3    H155235   1.942   4.179   3.140  0.8100  3.1712  0.4865
11248TIP3    H255236   1.914   4.279   3.030 -0.5554  0.2617 -1.9528
11249TIP3   OH255237   5.210   6.608  12.507  0.2184  0.0089  0.3834
11249TIP3    H155238   5.119   6.602  12.477 -0.2549  1.9968  1.2444
11249TIP3    H255239   5.229   6.702  12.504  1.9530 -0.3000  1.0824
11250TIP3   OH255240   0.230   4.834   1.722  0.1519  0.7222  0.4979
11250TIP3    H155241   0.229   4.758   1.781 -1.2083 -2.1414 -2.8201
11250TIP3    H255242   0.303   4.887   1.752 -0.0602 -0.8125  4.2541
11251TIP3   OH255243   4.374   5.772   3.042 -0.6291 -0.0837  0.6029
11251TIP3    H155244   4.451   5.823   3.018 -1.9333  1.5127 -0.4785
11251TIP3    H255245   4.400   5.681   3.033  0.4326  0.4210 -2.2110
11252TIP3   OH255246   2.094   1.990   1.479 -0.1525  0.2858 -0.0214
11252TIP3    H155247   2.069   1.919   1.420  2.3557  0.7797 -1.8417
11252TIP3    H255248   2.012   2.016   1.521 -1.8943 -0.8709 -2.4542
11253TIP3   OH255249   1.119   5.477   4.014 -0.1373 -0.1462  0.2398
11253TIP3    H155250   1.122   5.381   4.014  0.2437 -0.1350  0.1021
11253TIP3    H255251   1.209   5.504   4.030  0.0165  0.1960 -1.1154
11254TIP3   OH255252   0.912   2.022   6.527 -0.1478 -0.6106 -0.1193
11254TIP3    H155253   0.988   2.000   6.474 -0.7611 -2.2210 -0.3958
11254TIP3    H255254   0.938   2.001   6.617  0.2077  0.2141 -0.0212
11255TIP3   OH255255   6.322   2.781   3.715  0.1646  0.3117 -0.2886
11255TIP3    H155256   6.303   2.694   3.750  0.2273 -0.5749 -2.3187
11255TIP3    H255257   6.418   2.788   3.719  0.1966  0.0724 -0.5511
11256TIP3   OH255258   0.844   0.168  16.448 -0.0856 -0.8641 -0.1272
11256TIP3    H155259   0.799   0.246  16.415 -0.0944 -0.6038  0.4899
11256TIP3    H255260   0.860   0.115  16.369 -1.6111 -1.0368 -0.3545
11257TIP3   OH255261   0.962   4.346   4.999  0.1778  0.5186 -0.8722
11257TIP3    H155262   0.979   4.256   5.027 -0.4526 -0.0716 -2.3133
11257TIP3    H255263   1.048   4.383   4.981  0.4486  0.2626 -0.1435
11258TIP3   OH255264   6.591   1.379  10.753 -0.0215 -0.1053 -0.8168
11258TIP3    H155265   6.595   1.441  10.826  1.0861 -1.2589  0.1543
11258TIP3    H255266   6.507   1.398  10.710 -0.4873  0.9119  0.4685
11259TIP3   OH255267   4.139   2.523  13.502  0.0493  0.4509  0.4967
11259TIP3    H155268   4.083   2.537  13.425  1.5183  2.3177 -0.3120
11259TIP3    H255269   4.176   2.609  13.520  0.4269 -0.1324  2.8040
11260TIP3   OH255270   3.409   4.416  15.652 -0.0118 -0.3695 -0.7110
11260TIP3    H155271   3.478   4.351  15.638  0.5674  0.3244 -1.1441
11260TIP3    H255272   3.397   4.456  15.566 -1.2427 -0.7431 -0.7386
11261TIP3   OH255273   1.737   0.043   5.211 -0.4206 -0.3140 -0.0246
11261TIP3    H155274   1.739   0.114   5.148  1.1180  1.9402  2.3735
11261TIP3    H255275   1.828   0.018   5.223 -0.7612 -1.3533  0.5928
11262TIP3   OH255276   0.802   2.735  16.900  0.7641 -0.2681  0.0002
11262TIP3    H155277   0.708   2.744  16.915  0.7438  1.2196 -0.8396
11262TIP3    H255278   0.814   2.643  16.878 -0.5134 -0.4497 -0.0130
11263TIP3   OH255279   3.168   3.091  13.873 -0.0577  0.0709  0.2714
11263TIP3    H155280   3.095   3.079  13.933 -1.1230  1.4160 -0.6865
11263TIP3    H255281   3.240   3.121  13.928 -0.8802  0.8411  0.9490
11264TIP3   OH255282   1.899   4.577  14.903 -0.4105  0.6200 -0.0797
11264TIP3    H155283   1.821   4.610  14.858 -1.0300 -0.1423  0.4277
11264TIP3    H255284   1.946   4.528  14.836 -1.1706 -0.2482  0.0161
11265TIP3   OH255285   5.288   4.618   5.528 -0.6764  0.2256  0.0499
11265TIP3    H155286   5.296   4.675   5.605 -1.8249  0.0311  0.3379
11265TIP3    H255287   5.267   4.677   5.456 -0.7736  0.2836  0.1252
11266TIP3   OH255288   3.295   4.981  11.528 -0.5105 -0.2578 -0.3163
11266TIP3    H155289   3.220   4.924  11.544 -0.0511 -1.2303 -1.5071
11266TIP3    H255290   3.367   4.921  11.509  0.5443  0.6676  0.6317
11267TIP3   OH255291   4.554   0.643   2.188  0.3970 -0.3629  0.2021
11267TIP3    H155292   4.624   0.602   2.137  0.3500 -1.5254  1.0371
11267TIP3    H255293   4.515   0.706   2.128  2.2198  0.4010 -0.2452
11268TIP3   OH255294   6.335   4.247  10.781 -0.0038  0.4075  0.2059
11268TIP3    H155295   6.411   4.253  10.723 -1.4492 -0.5419 -1.9252
11268TIP3    H255296   6.337   4.157  10.813 -1.6824 -0.6053 -2.1812
11269TIP3   OH255297   5.420   0.391   0.368  0.4023 -0.2866 -0.1054
11269TIP3    H155298   5.392   0.311   0.413 -0.0840  0.4248  0.9009
11269TIP3    H255299   5.512   0.376   0.349  0.7215 -0.5219  1.4247
11270TIP3   OH255300   3.277   3.096  12.051 -0.6557  0.2409  0.0473
11270TIP3    H155301   3.275   3.130  12.141 -2.0948 -1.0146  0.5361
11270TIP3    H255302   3.369   3.103  12.025 -0.2185  0.7105  1.5905
11271TIP3   OH255303   4.899   2.612  13.661  0.0037  0.5452 -0.7845
11271TIP3    H155304   4.817   2.565  13.677  0.1935 -0.0315 -1.4494
11271TIP3    H255305   4.966   2.556  13.699  0.2402  0.2300 -1.6573
11272TIP3   OH255306   4.287   4.117   4.499  0.2928 -1.0118 -0.4204
11272TIP3    H155307   4.333   4.188   4.544  0.8285 -1.9003  0.4696
11272TIP3    H255308   4.234   4.161   4.432 -0.6848  0.3664  1.1807
11273TIP3   OH255309   4.022   4.461   4.605  0.0148 -0.4538 -0.1742
11273TIP3    H155310   3.983   4.549   4.604 -0.8411 -0.8181 -1.0782
11273TIP3    H255311   4.108   4.473   4.567  0.0823  0.0636  0.1198
11274TIP3   OH255312   0.556   3.379   1.436 -0.2091 -0.5752 -0.3226
11274TIP3    H155313   0.629   3.423   1.392 -0.6968  1.8019  1.1025
11274TIP3    H255314   0.478   3.425   1.406 -0.7618 -0.5044  1.1575
11275TIP3   OH255315   0.569   6.801   0.211 -0.4231 -0.4875 -0.1997
11275TIP3    H155316   0.533   6.799   0.122 -1.4250 -0.0942  0.1850
11275TIP3    H255317   0.659   6.768   0.201 -0.6501 -0.8199 -1.2916
11276TIP3   OH255318   1.198   4.992   0.167 -0.2745  0.3652  0.1293
11276TIP3    H155319   1.247   4.999   0.249 -1.7145 -1.0643  1.1751
11276TIP3    H255320   1.202   5.080   0.129  1.0746  0.8664  1.3386
11277TIP3   OH255321   1.438   5.878  11.503 -0.5179  0.3501 -0.5868
11277TIP3    H155322   1.360   5.850  11.551  0.5449 -1.6638  0.1092
11277TIP3    H255323   1.447   5.813  11.433  1.0371 -0.0868 -0.0389
11278TIP3   OH255324   0.693   0.601  13.139  0.2341  0.6836  0.1909
11278TIP3    H155325   0.685   0.696  13.136 -1.8573  0.5223 -0.5879
11278TIP3    H255326   0.642   0.570  13.065 -0.5107 -1.1085  1.3789
11279TIP3   OH255327   4.601   2.850   2.004  0.9190 -0.3526 -0.2167
11279TIP3    H155328   4.573   2.784   2.068  1.2074  0.0204  0.3079
11279TIP3    H255329   4.619   2.800   1.925 -2.2244 -0.5168 -0.9735
11280TIP3   OH255330   1.271   6.713   0.837 -0.5391  0.3172  0.3161
11280TIP3    H155331   1.241   6.639   0.785 -2.2291 -0.1181  1.8442
11280TIP3    H255332   1.294   6.676   0.922  0.9558  1.2125  0.3484
11281TIP3   OH255333   1.641   0.927  12.978 -0.1924  0.1238  0.1716
11281TIP3    H155334   1.555   0.884  12.983 -0.1790  0.0678 -0.0802
11281TIP3    H255335   1.637   0.982  12.900  0.7823 -1.6307 -1.1864
11282TIP3   OH255336   0.873   0.975   5.867 -0.5484  0.2015 -0.0259
11282TIP3    H155337   0.811   0.965   5.939  0.0829 -0.7500  0.3998
11282TIP3    H255338   0.908   0.888   5.852  1.1079  0.7979  0.1341
11283TIP3   OH255339   4.583   5.782  15.473  0.5930 -0.0517 -0.2142
11283TIP3    H155340   4.617   5.783  15.562 -0.8231 -0.7866  0.3623
11283TIP3    H255341   4.550   5.871  15.459 -0.3046 -0.2660  0.4667
11284TIP3   OH255342   1.682   3.933   4.838 -0.1082 -0.6311 -0.4519
11284TIP3    H155343   1.738   3.988   4.783 -1.0759  1.2743  0.3465
11284TIP3    H255344   1.741   3.891   4.899  0.4911  2.0982  1.0289
11285TIP3   OH255345   4.300   5.680   6.272 -0.4597  0.2297 -0.0192
11285TIP3    H155346   4.213   5.654   6.244  0.1339 -1.9547 -0.0099
11285TIP3    H255347   4.359   5.646   6.204  0.3566  2.7805 -0.7220
11286TIP3   OH255348   1.887   2.915   4.422  0.0746 -0.1427 -0.3359
11286TIP3    H155349   1.915   2.877   4.506 -1.4520 -0.9559 -0.1504
11286TIP3    H255350   1.894   2.844   4.360 -1.3962 -0.3329 -0.3060
11287TIP3   OH255351   2.412   1.975   1.238  0.5717 -0.1324  0.2019
11287TIP3    H155352   2.447   1.886   1.230 -2.0588 -1.2397 -0.2285
11287TIP3    H255353   2.404   2.006   1.148 -0.1412 -0.1879  0.2381
11288TIP3   OH255354   5.784   2.930   0.453  0.1129  0.1792  0.2097
11288TIP3    H155355   5.754   2.879   0.378 -1.5080 -0.6270  1.3504
11288TIP3    H255356   5.837   2.869   0.504  0.4282  0.4534  0.2191
11289TIP3   OH255357   2.253   2.431   4.502 -0.0251 -0.2679  0.6910
11289TIP3    H155358   2.272   2.429   4.596 -0.7935  0.6082  0.8812
11289TIP3    H255359   2.171   2.481   4.495  0.9505  1.2843 -0.5734
11290TIP3   OH255360   5.660   6.759   0.397  0.5969  0.6315 -0.4802
11290TIP3    H155361   5.697   6.673   0.374 -0.3025 -0.1037  0.7399
11290TIP3    H255362   5.574   6.740   0.434  0.8887  1.9552  0.9875
11291TIP3   OH255363   0.719   6.802   5.150 -0.3430 -0.0979  0.3288
11291TIP3    H155364   0.708   6.893   5.124 -0.2022  0.3270  1.7150
11291TIP3    H255365   0.785   6.768   5.089  0.7748  1.1695  0.7773
11292TIP3   OH255366   5.830   4.762   5.851  0.1651  0.3187  0.6092
11292TIP3    H155367   5.843   4.669   5.870  1.8415  0.3029 -0.3899
11292TIP3    H255368   5.858   4.808   5.930  0.1793  0.0142  0.7795
11293TIP3   OH255369   0.267   1.940   4.206  0.1977 -0.0455  0.2421
11293TIP3    H155370   0.313   1.874   4.153  0.1846  0.9018 -0.9869
11293TIP3    H255371   0.287   1.916   4.296 -0.5291 -2.2723 -0.1173
11294TIP3   OH255372   6.639   0.786   2.213 -0.2062 -0.4226 -0.1133
11294TIP3    H155373   6.722   0.742   2.196  0.4135  0.8177 -0.4164
11294TIP3    H255374   6.629   0.782   2.308  0.9288  0.6388  0.0767
11295TIP3   OH255375   0.961   6.162   5.950  0.0489 -0.1606  0.0745
11295TIP3    H155376   0.894   6.185   5.885  1.2909 -0.3687 -1.3223
11295TIP3    H255377   0.913   6.160   6.033 -2.2839 -2.8848 -1.1530
11296TIP3   OH255378   0.695   0.987  14.730 -0.1184 -0.3307 -0.5211
11296TIP3    H155379   0.789   0.993  14.746 -0.4599 -1.3015  2.4844
11296TIP3    H255380   0.661   1.075  14.745  0.5544  0.9697 -5.0779
11297TIP3   OH255381   5.168   1.524  11.955  0.0424  0.1301 -0.8224
11297TIP3    H155382   5.244   1.511  12.011 -0.8129  1.2090  0.6435
11297TIP3    H255383   5.200   1.580  11.884  0.6232  0.5505 -0.2362
11298TIP3   OH255384   5.365   5.549   3.813 -0.4545  0.3169 -0.8001
11298TIP3    H155385   5.449   5.534   3.857 -1.0222 -2.6985 -0.5479
11298TIP3    H255386   5.378   5.631   3.765  2.1199  0.7126  0.3959
11299TIP3   OH255387   3.785   3.196  11.079 -0.7813 -0.3455  0.0573
11299TIP3    H155388   3.701   3.166  11.111 -0.2923 -2.1895 -0.2714
11299TIP3    H255389   3.782   3.180  10.984 -0.4787  0.6729 -0.1418
11300TIP3   OH255390   5.366   3.457  12.696 -0.3626  0.3477  0.6067
11300TIP3    H155391   5.281   3.413  12.696 -0.2203  0.0068 -0.7943
11300TIP3    H255392   5.354   3.533  12.753 -1.5400  0.1932  0.5943
11301TIP3   OH255393   2.901   6.056   0.082 -0.6024 -0.3146 -0.0831
11301TIP3    H155394   2.988   6.025   0.056 -0.0374  2.0519 -1.3537
11301TIP3    H255395   2.841   6.012   0.021 -0.0659 -0.3832 -0.5711
11302TIP3   OH255396   5.253   0.679  11.149 -0.2060 -0.6026  0.2670
11302TIP3    H155397   5.235   0.764  11.190 -1.0835  0.0069 -1.3339
11302TIP3    H255398   5.338   0.653  11.186  0.3093  1.1888  0.4550
11303TIP3   OH255399   1.170   1.426   4.249 -0.3305 -0.0707 -0.5618
11303TIP3    H155400   1.207   1.421   4.161  0.8548 -1.0526 -0.0305
11303TIP3    H255401   1.119   1.507   4.249  0.6188  0.5598 -1.7879
11304TIP3   OH255402   0.764   3.074   3.309  0.4045  0.0217 -0.0415
11304TIP3    H155403   0.696   3.031   3.361  0.2030 -0.1480 -0.4447
11304TIP3    H255404   0.806   3.135   3.371 -0.8989  1.0151 -0.0913
11305TIP3   OH255405   2.082   6.556  12.437  0.3266  0.4682 -0.2484
11305TIP3    H155406   2.172   6.544  12.407  0.1639  0.9013 -0.9545
11305TIP3    H255407   2.070   6.651  12.439 -0.1659  0.4128 -0.3439
11306TIP3   OH255408   3.356   6.456   0.306 -0.2558 -0.1765 -0.1157
11306TIP3    H155409   3.302   6.397   0.253  0.8735 -1.1451 -0.2267
11306TIP3    H255410   3.414   6.398   0.355  0.6405  0.8317  0.0491
11307TIP3   OH255411   5.952   2.438  16.058 -0.2665 -0.1333  0.2655
11307TIP3    H155412   6.001   2.404  15.984  0.1912  0.5591  0.2443
11307TIP3    H255413   5.860   2.421  16.036 -0.1866  0.7261 -0.8013
11308TIP3   OH255414   2.521   4.839  13.913  0.7361 -0.2690 -0.4156
11308TIP3    H155415   2.495   4.828  13.822  1.1977  0.1454 -0.6007
11308TIP3    H255416   2.441   4.869  13.957  0.7101  0.2886 -0.8374
11309TIP3   OH255417   2.813   1.338  15.890 -0.9307 -0.3686 -0.6663
11309TIP3    H155418   2.818   1.300  15.802  0.4575 -3.3610  0.5969
11309TIP3    H255419   2.721   1.329  15.915 -0.9366 -1.4756 -1.0363
11310TIP3   OH255420   5.108   0.844   1.115 -0.0545  0.0510 -0.1190
11310TIP3    H155421   5.146   0.931   1.127  0.3171 -0.0823 -0.3033
11310TIP3    H255422   5.134   0.819   1.026 -1.5030  0.4076 -0.6767
11311TIP3   OH255423   5.237   3.862   5.358  0.2008  0.2979 -0.2370
11311TIP3    H155424   5.201   3.875   5.271 -0.5062 -0.8748 -0.1424
11311TIP3    H255425   5.196   3.929   5.412 -0.5644  0.0347 -0.4853
11312TIP3   OH255426   0.067   5.909  11.334 -0.0969  0.1712 -0.0307
11312TIP3    H155427   0.117   5.894  11.414 -0.8888 -0.0782  0.4325
11312TIP3    H255428   0.108   5.853  11.268  0.3354  0.1043  0.2941
11313TIP3   OH255429   4.608   0.651   2.455  0.1555 -0.0686 -0.0872
11313TIP3    H155430   4.574   0.630   2.368 -0.6937 -0.6736  0.3778
11313TIP3    H255431   4.607   0.746   2.459  0.2669 -0.0315 -0.7580
11314TIP3   OH255432   0.457   1.297  14.636  0.3955  0.2832  0.2253
11314TIP3    H155433   0.492   1.373  14.681  0.0139  0.8531 -0.4237
11314TIP3    H255434   0.388   1.264  14.693  0.2534  0.7003  0.2910
11315TIP3   OH255435   1.145   2.933  12.745 -0.6430  0.4815 -0.5052
11315TIP3    H155436   1.137   2.838  12.753 -1.0974  0.6146  1.0832
11315TIP3    H255437   1.232   2.947  12.708 -1.3903 -0.5764 -2.8428
11316TIP3   OH255438   1.140   6.075   2.507  0.3410 -0.1781 -0.1826
11316TIP3    H155439   1.143   6.137   2.435  0.8876  0.0068 -0.0055
11316TIP3    H255440   1.064   6.020   2.488  0.2784  0.0849 -0.7172
11317TIP3   OH255441   2.236   2.263  15.680  0.6282  1.1162  0.2382
11317TIP3    H155442   2.198   2.239  15.765  1.3770  2.1448  0.8936
11317TIP3    H255443   2.197   2.349  15.661  0.1645  0.7209 -0.6692
11318TIP3   OH255444   5.903   5.785   3.440 -0.5771 -0.0502  0.4950
11318TIP3    H155445   5.917   5.732   3.519 -0.2696 -1.7707 -0.6701
11318TIP3    H255446   5.899   5.875   3.473 -0.2021 -0.6887  2.4442
11319TIP3   OH255447   4.656   5.070   1.602 -0.6550  0.2713 -0.0657
11319TIP3    H155448   4.657   4.998   1.540  0.8697 -0.2574  0.5391
11319TIP3    H255449   4.598   5.041   1.672  0.5223 -0.7269  0.5376
11320TIP3   OH255450   2.752   0.820   3.411  0.0096 -0.2659 -0.3004
11320TIP3    H155451   2.692   0.894   3.400  0.8569  0.5674  0.4971
11320TIP3    H255452   2.832   0.848   3.366  0.6954 -0.2345  0.9024
11321TIP3   OH255453   2.603   3.827  16.854  0.1244  0.2683  0.5758
11321TIP3    H155454   2.575   3.914  16.883  0.0364 -0.8180  4.3900
11321TIP3    H255455   2.696   3.836  16.836 -0.1552  1.3885 -0.4480
11322TIP3   OH255456   4.173   5.336   2.022  0.2277 -0.0219  0.8531
11322TIP3    H155457   4.115   5.399   1.979  0.1515 -0.4372  0.3342
11322TIP3    H255458   4.139   5.250   1.995  1.3664 -0.2673  0.1553
11323TIP3   OH255459   6.474   2.704  11.947 -0.3611  0.0561  0.3834
11323TIP3    H155460   6.394   2.757  11.942 -1.2185 -1.3027 -1.3353
11323TIP3    H255461   6.503   2.713  12.038 -1.0381  2.5792  0.4224
11324TIP3   OH255462   4.688   6.622  14.569  0.1166 -0.4520  0.0994
11324TIP3    H155463   4.606   6.623  14.520 -0.6588  0.7820  1.3539
11324TIP3    H255464   4.696   6.710  14.605  1.9448 -0.5795  0.1149
11325TIP3   OH255465   4.547   0.869   5.134 -0.0034 -0.2293  0.1373
11325TIP3    H155466   4.501   0.790   5.161 -0.4521  0.1705  0.5750
11325TIP3    H255467   4.480   0.937   5.133  0.1729 -0.0433 -1.1910
11326TIP3   OH255468   3.371   2.666   0.757  0.1935 -0.2332  0.4497
11326TIP3    H155469   3.438   2.727   0.789  1.4279 -0.3885 -1.6340
11326TIP3    H255470   3.399   2.580   0.788  0.4820 -0.1805  0.3412
11327TIP3   OH255471   4.709   2.430  15.723 -0.2099  0.1002 -0.0563
11327TIP3    H155472   4.776   2.498  15.722 -1.1628  1.0675  0.0720
11327TIP3    H255473   4.725   2.379  15.643  1.5708 -0.6237  0.6962
11328TIP3   OH255474   0.056   5.360   3.655 -0.5016  0.4073 -0.1439
11328TIP3    H155475  -0.004   5.429   3.626 -2.2804 -0.9415  0.1162
11328TIP3    H255476   0.058   5.368   3.750  0.7360  1.2024 -0.2167
11329TIP3   OH255477   6.043   4.835   5.602  0.1389 -0.0675 -0.0495
11329TIP3    H155478   5.960   4.802   5.635  0.0476 -1.5786 -1.6879
11329TIP3    H255479   6.106   4.814   5.671 -0.5631 -0.3127  0.5243
11330TIP3   OH255480   5.772   2.247  17.111 -0.5826  0.2713  0.0533
11330TIP3    H155481   5.799   2.306  17.041  3.2022 -1.5809 -0.2982
11330TIP3    H255482   5.768   2.161  17.069  1.6774 -0.8715  1.9609
11331TIP3   OH255483   2.423   4.665  12.260 -0.2610  0.3980  0.1150
11331TIP3    H155484   2.490   4.674  12.192 -0.6012 -0.6128 -0.3636
11331TIP3    H255485   2.469   4.622  12.333 -0.3608 -0.2460 -0.1934
11332TIP3   OH255486   6.321   0.298  16.448  0.4374  0.4929  0.0764
11332TIP3    H155487   6.289   0.328  16.533 -0.1007  1.1432 -0.3433
11332TIP3    H255488   6.416   0.296  16.457  0.3154 -2.2564  1.6098
11333TIP3   OH255489   2.945   5.666  17.020 -0.0103 -0.3232 -0.1876
11333TIP3    H155490   3.030   5.632  17.046  0.6719  1.0117 -0.6013
11333TIP3    H255491   2.907   5.699  17.101  0.5253  0.4509 -0.2412
11334TIP3   OH255492   5.371   2.956  12.850  0.5408  0.5327  0.6094
11334TIP3    H155493   5.295   3.001  12.814  1.8437  1.7048 -0.7939
11334TIP3    H255494   5.334   2.893  12.913 -1.5348  1.2976  0.2295
11335TIP3   OH255495   1.948   5.000   2.052  0.1387  0.4542 -0.1660
11335TIP3    H155496   1.892   4.926   2.032 -0.3137  0.6458  0.3592
11335TIP3    H255497   1.913   5.035   2.134 -0.6930  2.2562 -1.2318
11336TIP3   OH255498   0.541   3.847  10.809  0.4524 -0.1850 -0.5157
11336TIP3    H155499   0.598   3.771  10.797  0.3405 -0.3116 -0.2391
11336TIP3    H255500   0.457   3.811  10.837  1.5071  0.1819  3.7085
11337TIP3   OH255501   5.240   5.730  16.547  0.1853  0.4718 -0.0866
11337TIP3    H155502   5.305   5.676  16.591 -1.1131 -1.3068 -0.2458
11337TIP3    H255503   5.252   5.712  16.454 -1.5083 -1.1281 -0.0493
11338TIP3   OH255504   3.510   4.428   1.891  0.8370  0.1141  0.0629
11338TIP3    H155505   3.550   4.498   1.942 -0.6730  1.2536 -0.2732
11338TIP3    H255506   3.484   4.469   1.809  0.9942 -1.1248 -0.6277
11339TIP3   OH255507   4.366   1.582   4.099  0.2145  0.1213 -0.1593
11339TIP3    H155508   4.406   1.495   4.096  1.3758  0.6560 -1.5616
11339TIP3    H255509   4.397   1.620   4.181  1.1469 -0.1500 -0.3793
11340TIP3   OH255510   0.084   6.247  10.488 -0.2703 -0.4135 -0.3126
11340TIP3    H155511   0.084   6.259  10.393 -0.7067 -0.7122 -0.3473
11340TIP3    H255512   0.142   6.173  10.503 -0.4720 -0.5851 -0.3739
11341TIP3   OH255513   1.069   5.456   2.571  0.0870 -0.3920  0.5024
11341TIP3    H155514   0.998   5.520   2.572 -2.0970 -2.5848 -0.9569
11341TIP3    H255515   1.116   5.472   2.653 -2.4985  0.8068  1.9064
11342TIP3   OH255516   1.552   6.481   4.663  0.0781 -0.1223 -0.2482
11342TIP3    H155517   1.642   6.495   4.635 -0.0711  3.0399  0.5010
11342TIP3    H255518   1.553   6.496   4.757 -0.9045 -2.3043  0.1895
11343TIP3   OH255519   3.993   6.598  16.926 -0.1858  0.1788  0.1115
11343TIP3    H155520   4.026   6.575  16.839  0.6639  2.6410 -0.2850
11343TIP3    H255521   3.978   6.513  16.969 -0.4173 -1.0994 -2.3172
11344TIP3   OH255522   4.850   6.284  15.922 -0.5160  0.0242 -0.3278
11344TIP3    H155523   4.857   6.370  15.962  1.6583 -0.2582  0.0233
11344TIP3    H255524   4.761   6.281  15.886 -0.6828  2.3441 -0.2429
11345TIP3   OH255525   4.050   2.459  14.067 -0.4169  0.0963 -0.6184
11345TIP3    H155526   4.048   2.405  13.988  1.0037  0.2329 -0.7694
11345TIP3    H255527   3.958   2.482  14.083 -0.8487 -0.9375 -1.5247
11346TIP3   OH255528   2.426   3.140   3.012  0.3328 -0.2418 -0.1349
11346TIP3    H155529   2.375   3.153   2.932  0.2860  2.0366  0.2066
11346TIP3    H255530   2.506   3.096   2.983 -0.0914 -0.2985 -1.2663
11347TIP3   OH255531   5.338   5.286   6.263 -0.2480 -0.0503 -0.0641
11347TIP3    H155532   5.284   5.209   6.278  2.1153 -1.5790  1.0986
11347TIP3    H255533   5.365   5.314   6.351 -0.9112  2.0628 -0.4638
11348TIP3   OH255534   5.358   3.411   6.631 -0.2974  0.3391  0.5874
11348TIP3    H155535   5.268   3.415   6.601 -0.3603 -2.0747  0.2991
11348TIP3    H255536   5.405   3.366   6.561  0.7752  0.0011  1.5016
11349TIP3   OH255537   2.022   2.835   1.541 -0.0821 -0.0973 -0.1804
11349TIP3    H155538   2.106   2.844   1.497  0.9811  1.0156  1.9107
11349TIP3    H255539   1.996   2.744   1.525  1.6358 -0.5372 -0.6629
11350TIP3   OH255540   6.121   4.569  12.267  0.1084  0.0983  0.1876
11350TIP3    H155541   6.167   4.549  12.349 -0.3855 -0.5565  0.3149
11350TIP3    H255542   6.126   4.488  12.216  1.9722  1.0433 -1.2087
11351TIP3   OH255543   2.942   2.096  13.659 -0.0821  0.1148 -0.0603
11351TIP3    H155544   3.026   2.086  13.615 -0.0295  0.4044 -0.0289
11351TIP3    H255545   2.956   2.059  13.746  0.4434  1.4702  0.4505
11352TIP3   OH255546   3.195   6.452  12.681  0.2099  0.5503 -0.0289
11352TIP3    H155547   3.185   6.543  12.706  3.7071  0.6179  1.7738
11352TIP3    H255548   3.160   6.402  12.755  0.0568  0.4803 -0.1485
11353TIP3   OH255549   3.852   0.673  12.521  0.5080  0.3263 -0.2656
11353TIP3    H155550   3.941   0.693  12.551 -0.2080  1.0044  1.5761
11353TIP3    H255551   3.862   0.594  12.468  2.1994  0.3324 -0.0242
11354TIP3   OH255552   4.341   4.443  13.077  0.1166  0.2205  0.3177
11354TIP3    H155553   4.310   4.385  13.008  2.7163  0.3587 -1.0846
11354TIP3    H255554   4.377   4.385  13.143  1.7866  0.1536 -0.6134
11355TIP3   OH255555   4.696   5.650   6.067 -0.3970  0.0322 -0.0546
11355TIP3    H155556   4.614   5.603   6.052  0.4335 -1.4189 -0.2697
11355TIP3    H255557   4.734   5.607   6.143  0.6081  0.0499 -0.5323
11356TIP3   OH255558   3.255   3.174   4.831  0.0695 -0.0063 -0.1096
11356TIP3    H155559   3.299   3.256   4.808 -0.3098  0.5073  0.9118
11356TIP3    H255560   3.209   3.148   4.752 -0.2179  1.0513 -0.3048
11357TIP3   OH255561   3.286   0.704   3.222  0.5300 -0.4486 -0.1129
11357TIP3    H155562   3.221   0.633   3.220  0.6958 -0.6148  0.4372
11357TIP3    H255563   3.241   0.776   3.265  1.2519 -1.1135  1.8332
11358TIP3   OH255564   4.773   1.405   4.193 -0.1590  0.0311 -0.7654
11358TIP3    H155565   4.806   1.437   4.277 -1.2109 -0.5320 -0.1208
11358TIP3    H255566   4.850   1.367   4.151 -0.0363 -1.8401  0.9854
11359TIP3   OH255567   4.700   2.670   0.317 -0.5161  0.1647  0.6825
11359TIP3    H155568   4.756   2.618   0.259 -0.6983 -0.7814  1.3325
11359TIP3    H255569   4.612   2.634   0.304 -0.6133  0.1689  1.2878
11360TIP3   OH255570   0.114   2.878  16.813 -0.6733  0.8625 -0.2079
11360TIP3    H155571   0.207   2.900  16.809 -0.7590  1.0507 -1.6542
11360TIP3    H255572   0.089   2.860  16.722 -2.0496  0.8003  0.1541
11361TIP3   OH255573   5.277   3.133   4.014 -0.5263  0.3548 -0.6271
11361TIP3    H155574   5.307   3.219   4.045  0.3573 -0.2406  0.2173
11361TIP3    H255575   5.228   3.153   3.934 -3.5508  2.0454  1.4480
11362TIP3   OH255576   5.332   0.620  11.743 -0.0678 -0.1068  0.1139
11362TIP3    H155577   5.294   0.686  11.685 -0.5111 -0.0405  0.4705
11362TIP3    H255578   5.377   0.560  11.684 -0.5297 -0.0518 -0.3065
11363TIP3   OH255579   2.312   6.771   4.591 -0.4664 -0.0084 -0.4823
11363TIP3    H155580   2.259   6.851   4.585  0.1588  0.4593 -0.0088
11363TIP3    H255581   2.402   6.801   4.574  0.7370  0.5590  4.9308
11364TIP3   OH255582   0.001   3.809   1.813 -0.0040 -0.5558  0.2916
11364TIP3    H155583  -0.081   3.778   1.775  0.9192 -1.5327 -0.9919
11364TIP3    H255584   0.025   3.741   1.875  0.0103 -0.4405  0.4114
11365TIP3   OH255585   0.956   6.081  14.690 -0.2674 -0.8368 -0.0671
11365TIP3    H155586   0.943   6.084  14.595  0.7815  0.0280 -0.1995
11365TIP3    H255587   1.051   6.075  14.701 -0.4147 -1.5466  0.9259
11366TIP3   OH255588   6.154   0.299  12.027 -0.8422 -0.0260  0.0325
11366TIP3    H155589   6.151   0.320  12.121 -4.7193 -2.5417  0.7008
11366TIP3    H255590   6.143   0.383  11.983 -0.5251  1.0251  1.8419
11367TIP3   OH255591   0.868   5.711   3.192  0.3921 -0.5131 -0.3474
11367TIP3    H155592   0.788   5.716   3.245  0.0552  1.4316 -0.9656
11367TIP3    H255593   0.852   5.638   3.132 -0.6240 -0.5928 -0.0031
11368TIP3   OH255594   5.306   6.448   4.254 -0.2846 -0.1190  0.3758
11368TIP3    H155595   5.368   6.507   4.295  0.8634 -0.1989 -1.1373
11368TIP3    H255596   5.229   6.502   4.236  0.0173  0.4296  0.7067
11369TIP3   OH255597   6.360   4.597   2.580  0.7216  0.4610 -0.6791
11369TIP3    H155598   6.281   4.623   2.533 -0.1415  1.2052  1.1197
11369TIP3    H255599   6.333   4.524   2.634  1.4673  0.2325 -0.6052
11370TIP3   OH255600   5.635   0.427  14.807  0.0187  0.2089  0.0321
11370TIP3    H155601   5.674   0.395  14.888 -0.9458 -0.3615  0.2768
11370TIP3    H255602   5.569   0.491  14.835 -2.5880 -2.2458 -0.0389
11371TIP3   OH255603   4.927   0.778  13.972  0.7918  0.0792  0.2791
11371TIP3    H155604   4.886   0.790  13.886 -0.4319 -1.2239  0.6388
11371TIP3    H255605   4.862   0.812  14.034  0.2692 -1.8287  0.8482
11372TIP3   OH255606   1.428   5.717  11.875  0.0047 -0.1698  0.2569
11372TIP3    H155607   1.380   5.780  11.821 -1.5094 -1.2475  0.2738
11372TIP3    H255608   1.383   5.718  11.959  1.4414  0.4244  1.0490
11373TIP3   OH255609   3.461   0.007   5.706 -0.0662 -0.2848 -0.1273
11373TIP3    H155610   3.417   0.024   5.623  1.4547  1.9640 -0.5959
11373TIP3    H255611   3.393   0.016   5.772 -0.7349  1.1139 -0.9495
11374TIP3   OH255612   4.356   1.127   2.245  0.3385  0.4891 -0.7700
11374TIP3    H155613   4.329   1.035   2.253 -0.6395  0.6621 -1.8027
11374TIP3    H255614   4.424   1.125   2.177  0.6335  0.4734 -0.4749
11375TIP3   OH255615   5.176   4.350  14.024  0.4354 -0.2169  0.1458
11375TIP3    H155616   5.260   4.394  14.015  0.0520  0.5777  0.4170
11375TIP3    H255617   5.120   4.390  13.957 -0.5905  1.3507  1.8692
11376TIP3   OH255618   5.618   6.735  13.547 -0.1704  0.3149 -0.0277
11376TIP3    H155619   5.696   6.712  13.496  0.0667 -0.4527  0.6745
11376TIP3    H255620   5.610   6.830  13.535  1.7743  0.6850  1.1310
11377TIP3   OH255621   4.108   5.767  10.776  0.1995 -0.6554 -0.4887
11377TIP3    H155622   4.021   5.744  10.745 -0.1655 -0.7227  0.5633
11377TIP3    H255623   4.136   5.839  10.719 -0.9112 -0.0297 -0.2570
11378TIP3   OH255624   5.202   2.396  16.301 -0.3014  0.4452 -0.5189
11378TIP3    H155625   5.135   2.457  16.331 -0.9895 -1.4120  2.0216
11378TIP3    H255626   5.153   2.321  16.267  0.5084 -0.0234 -0.6847
11379TIP3   OH255627   3.304   2.935  16.670  0.4311  0.3364 -0.0665
11379TIP3    H155628   3.291   3.007  16.608  0.0937  0.7338  0.4616
11379TIP3    H255629   3.399   2.934  16.686  0.4922  0.3627 -0.4298
11380TIP3   OH255630   3.074   0.601   3.624  0.2716  0.3358 -0.2941
11380TIP3    H155631   3.071   0.695   3.606 -1.7707  0.2095 -0.8236
11380TIP3    H255632   3.117   0.595   3.710 -1.4548  1.9553  0.7749
11381TIP3   OH255633   1.723   0.472  12.655  0.2999 -0.7157 -0.2521
11381TIP3    H155634   1.812   0.490  12.625  1.0527 -1.4151  1.4497
11381TIP3    H255635   1.734   0.425  12.737 -1.6240  1.9702  1.7211
11382TIP3   OH255636   5.657   5.047   5.477  0.6047 -0.1436 -0.2538
11382TIP3    H155637   5.655   5.012   5.566  0.2576  0.2411 -0.1068
11382TIP3    H255638   5.567   5.034   5.444 -0.4935  3.4044  0.9138
11383TIP3   OH255639   3.803   3.830  10.900 -0.0301  0.1989 -0.2060
11383TIP3    H155640   3.738   3.795  10.840 -0.5548 -0.2234  0.5924
11383TIP3    H255641   3.887   3.810  10.859 -0.3567 -0.8298 -0.3954
11384TIP3   OH255642   5.414   5.796   3.645 -0.1947  0.3569 -0.7982
11384TIP3    H155643   5.349   5.800   3.575  0.2789  1.4410 -1.2020
11384TIP3    H255644   5.416   5.885   3.680 -2.0596 -0.5701  2.1510
11385TIP3   OH255645   6.082   1.739   5.222 -0.5043  0.1853 -0.6994
11385TIP3    H155646   6.070   1.746   5.127  1.5552 -0.2642 -1.0533
11385TIP3    H255647   6.170   1.702   5.232 -1.5413 -1.9877  1.3633
11386TIP3   OH255648   1.887   0.926   2.191 -0.9388 -0.5261  0.1558
11386TIP3    H155649   1.896   0.968   2.106  0.0168  2.2808  1.5284
11386TIP3    H255650   1.851   0.839   2.171  1.2269 -0.8371 -3.2424
11387TIP3   OH255651   6.545   6.191  17.000 -0.0053 -0.4204 -0.0088
11387TIP3    H155652   6.560   6.267  17.057 -0.2766  0.3537 -0.9451
11387TIP3    H255653   6.587   6.118  17.046  1.5676  0.5726  0.1877
11388TIP3   OH255654   1.365   0.015   1.828 -0.0867 -0.4019  0.0349
11388TIP3    H155655   1.311  -0.051   1.784 -0.8225  0.7529 -0.8578
11388TIP3    H255656   1.386   0.078   1.759  0.5157  0.3488  0.8874
11389TIP3   OH255657   4.482   3.335   1.066  0.1766 -0.0279  0.0132
11389TIP3    H155658   4.574   3.331   1.041  0.3528  0.7977  0.5028
11389TIP3    H255659   4.471   3.422   1.105 -0.6823 -0.3220  0.4602
11390TIP3   OH255660   4.339   1.913   6.691  0.2903 -0.4069  0.4181
11390TIP3    H155661   4.399   1.881   6.759  0.7301  0.1995  0.3160
11390TIP3    H255662   4.327   1.837   6.633  2.7597  0.0516 -0.8490
11391TIP3   OH255663   3.379   5.635  14.658 -0.1661 -0.7600  0.3613
11391TIP3    H155664   3.345   5.568  14.717 -0.3975 -0.7377  0.2526
11391TIP3    H255665   3.432   5.587  14.595  0.1003 -0.7814  0.5986
11392TIP3   OH255666   5.574   0.586   0.712 -0.9840  0.2372  0.1670
11392TIP3    H155667   5.552   0.677   0.690 -1.2704  0.2935  0.6625
11392TIP3    H255668   5.545   0.576   0.803 -0.1833 -0.1012  0.3875
11393TIP3   OH255669   4.841   6.505   2.533  0.1333  0.1398  0.2349
11393TIP3    H155670   4.879   6.592   2.520  0.6882 -0.1789 -0.3343
11393TIP3    H255671   4.787   6.490   2.455  1.6223 -0.8215 -0.6786
11394TIP3   OH255672   1.926   3.196  15.481  0.1778 -0.3678  0.2693
11394TIP3    H155673   1.951   3.155  15.564 -0.3259  0.0408  0.6265
11394TIP3    H255674   1.967   3.141  15.414  1.9682  0.2239  0.8263
11395TIP3   OH255675   4.762   4.151   2.025 -0.1821  0.0011 -0.1000
11395TIP3    H155676   4.699   4.146   1.953 -0.9325  0.0180  0.5456
11395TIP3    H255677   4.754   4.240   2.058  1.9549  0.8270 -1.5619
11396TIP3   OH255678   2.975   3.708  13.313 -0.0345 -0.0371  0.3784
11396TIP3    H155679   3.039   3.774  13.290  0.8851 -1.0340 -0.0287
11396TIP3    H255680   2.914   3.706  13.239  0.1728  0.0597  0.2050
11397TIP3   OH255681   4.077   2.628  16.291 -0.3907 -0.3837 -0.0497
11397TIP3    H155682   4.035   2.650  16.374 -0.3057  1.8182 -0.5186
11397TIP3    H255683   4.008   2.591  16.237 -0.9154  0.0270  0.3346
11398TIP3   OH255684   2.630   0.097  15.817 -0.2560 -0.2378 -0.4762
11398TIP3    H155685   2.609   0.150  15.740  0.7621  0.5909 -0.2004
11398TIP3    H255686   2.547   0.090  15.864 -0.6253  0.2579 -1.0363
11399TIP3   OH255687   3.669   5.638  16.976  0.3619 -0.8815 -0.0897
11399TIP3    H155688   3.687   5.614  16.885  2.8034 -3.2929  0.8749
11399TIP3    H255689   3.607   5.572  17.007 -1.1787  0.4696 -0.2029
11400TIP3   OH255690   5.161   1.964  11.975  0.1524  0.0686  0.7399
11400TIP3    H155691   5.110   1.899  12.023  0.9285 -0.6185  0.6621
11400TIP3    H255692   5.158   2.042  12.031 -1.7207  0.3489  0.3042
11401TIP3   OH255693   4.505   2.689   0.075  0.1507  0.0052  0.3291
11401TIP3    H155694   4.571   2.633   0.034 -0.8578 -0.9055 -0.0944
11401TIP3    H255695   4.541   2.778   0.067  0.2364 -0.1921 -2.0649
11402TIP3   OH255696   2.528   1.570  15.017  0.6236  0.1164 -0.0560
11402TIP3    H155697   2.472   1.554  15.093 -0.5711  1.9439 -0.4821
11402TIP3    H255698   2.599   1.625  15.049  0.5970  0.1674 -0.0838
11403TIP3   OH255699   1.876   0.822   4.777  0.8477 -0.6892 -0.9364
11403TIP3    H155700   1.799   0.766   4.769 -0.7442  1.4137 -1.3500
11403TIP3    H255701   1.861   0.892   4.713  2.6711  0.2831 -0.3751
11404TIP3   OH255702   1.371   6.261   4.754 -0.8329 -0.3981 -0.2765
11404TIP3    H155703   1.397   6.339   4.704 -2.5710 -0.5044 -1.4232
11404TIP3    H255704   1.391   6.284   4.845  1.1117  0.3430 -0.8247
11405TIP3   OH255705   6.693   6.414   6.048  0.0374 -0.4015 -0.0427
11405TIP3    H155706   6.650   6.425   6.133 -2.0370 -2.2663 -0.7650
11405TIP3    H255707   6.655   6.483   5.993  1.1375  0.5956  0.4075
11406TIP3   OH255708   2.300   5.499  12.772 -0.0532  0.1133  0.4172
11406TIP3    H155709   2.380   5.489  12.823  0.5065  1.9088 -0.0447
11406TIP3    H255710   2.230   5.500  12.838  0.3106 -0.9850  0.8578
11407TIP3   OH255711   4.146   1.611   2.724 -0.1611 -0.2571  0.4148
11407TIP3    H155712   4.131   1.696   2.685  0.0896 -0.0845  0.6896
11407TIP3    H255713   4.066   1.562   2.708  0.4380 -0.6757 -1.5519
11408TIP3   OH255714   0.356   2.584   0.689 -0.6917  0.4990  0.2514
11408TIP3    H155715   0.417   2.623   0.752 -1.3090  0.1295  1.1018
11408TIP3    H255716   0.410   2.525   0.637 -0.5761 -1.2154  2.1678
11409TIP3   OH255717   5.012   4.743  13.061  0.5647  0.0447  0.6674
11409TIP3    H155718   4.959   4.790  12.996  0.2744  0.3708  1.1312
11409TIP3    H255719   4.998   4.650  13.041  0.5086  0.1426  0.2430
11410TIP3   OH255720   4.870   5.657   5.156  0.0185  0.3881  0.0080
11410TIP3    H155721   4.808   5.587   5.137  2.0563 -1.4134 -0.4622
11410TIP3    H255722   4.878   5.706   5.073  0.1614 -0.1706 -0.3111
11411TIP3   OH255723   0.149   0.897  12.147  0.1740 -0.4501  0.2353
11411TIP3    H155724   0.080   0.921  12.085  0.9182 -2.0288 -1.2928
11411TIP3    H255725   0.134   0.804  12.165 -0.7332  0.1897  3.4728
11412TIP3   OH255726   5.290   0.613   2.180 -0.3962  0.0151 -0.5495
11412TIP3    H155727   5.276   0.600   2.274 -1.5926 -1.8767 -0.9250
11412TIP3    H255728   5.384   0.602   2.169 -0.3590 -0.7153  0.3164
11413TIP3   OH255729   5.509   0.718   2.823  0.1123 -0.3998 -0.1476
11413TIP3    H155730   5.457   0.650   2.780  0.1229 -1.3598  1.2864
11413TIP3    H255731   5.449   0.759   2.884  0.5536 -0.3012  0.2298
11414TIP3   OH255732   2.301   2.008   3.480 -0.0992 -0.2445  0.3465
11414TIP3    H155733   2.349   2.078   3.524  0.7272 -0.6929  0.1681
11414TIP3    H255734   2.316   2.022   3.387 -2.7381  1.3543  0.0473
11415TIP3   OH255735   3.438   4.831  12.967 -0.9291 -0.6702 -0.1098
11415TIP3    H155736   3.385   4.875  12.901 -0.8300 -0.9434 -0.3754
11415TIP3    H255737   3.440   4.739  12.939 -0.9692 -0.8076  0.3275
11416TIP3   OH255738   3.999   5.669   3.141  0.0501 -0.1390 -0.2151
11416TIP3    H155739   4.035   5.636   3.223  1.3147  0.6712 -0.4085
11416TIP3    H255740   3.936   5.737   3.168  1.3552  0.9922  0.1023
11417TIP3   OH255741   0.927   4.953   6.397 -0.4992  0.3939 -1.3448
11417TIP3    H155742   0.974   5.009   6.459 -0.8655  0.1972 -0.8893
11417TIP3    H255743   0.919   4.869   6.441 -0.1275  0.0279 -1.9518
11418TIP3   OH255744   5.094   5.379  16.058  0.0293 -0.5171 -0.6378
11418TIP3    H155745   5.007   5.345  16.034 -0.9796  1.4585 -0.0410
11418TIP3    H255746   5.110   5.450  15.996  0.4169  0.2691  0.3392
11419TIP3   OH255747   1.362   1.029   2.511 -0.2167 -0.3163  0.2549
11419TIP3    H155748   1.318   0.966   2.454 -1.1414  0.8452 -0.3781
11419TIP3    H255749   1.338   1.115   2.474  1.3802  0.4025  0.7989
11420TIP3   OH255750   4.011   3.797   5.150  0.1110 -0.0009  0.3064
11420TIP3    H155751   3.934   3.784   5.205 -0.7122 -1.9029 -1.1793
11420TIP3    H255752   4.071   3.726   5.174  0.9333  0.7821  0.6448
11421TIP3   OH255753   0.820   0.363   1.659  0.0781 -0.1397  0.6725
11421TIP3    H155754   0.895   0.315   1.623 -0.0014  0.1658  0.0890
11421TIP3    H255755   0.756   0.296   1.680 -0.0531 -0.2909 -0.1858
11422TIP3   OH255756   6.693   6.079   2.215 -0.8162 -0.3196  0.0263
11422TIP3    H155757   6.725   6.087   2.125  0.0227  1.3195  0.4276
11422TIP3    H255758   6.715   5.990   2.241 -1.4907 -0.9619 -1.5322
11423TIP3   OH255759   0.482   3.053  14.506  0.6295  0.3248  0.3563
11423TIP3    H155760   0.506   3.079  14.595  0.5553  0.1169  0.4366
11423TIP3    H255761   0.392   3.020  14.514  0.7483 -0.0193  0.2640
11424TIP3   OH255762   4.217   4.400   0.827 -0.2183  0.2427 -0.4567
11424TIP3    H155763   4.279   4.341   0.869 -0.8107 -0.7437 -0.9327
11424TIP3    H255764   4.269   4.478   0.807  0.1502  0.6355  1.7634
11425TIP3   OH255765   0.744   5.031   3.996  0.2178  0.0168 -0.2503
11425TIP3    H155766   0.817   4.983   4.035 -0.5065  0.6049  1.9560
11425TIP3    H255767   0.726   5.102   4.057 -1.3764  0.6517 -1.3899
11426TIP3   OH255768   3.806   5.800   5.335 -0.0840  0.8731 -0.0656
11426TIP3    H155769   3.852   5.879   5.362 -1.7696  1.9035 -0.0315
11426TIP3    H255770   3.722   5.832   5.302 -0.8340 -0.9181  0.0032
11427TIP3   OH255771   1.672   3.065  16.458  0.0527  0.2501  0.2741
11427TIP3    H155772   1.645   3.152  16.427  1.7940  0.8096  0.2397
11427TIP3    H255773   1.698   3.078  16.549 -0.7904 -0.4998  0.6424
11428TIP3   OH255774   3.616   0.471  11.958  0.1334  0.0539 -0.0326
11428TIP3    H155775   3.602   0.377  11.973 -0.6190  0.1473 -0.1367
11428TIP3    H255776   3.609   0.511  12.045  1.5206 -0.1009  0.1796
11429TIP3   OH255777   1.269   4.236  10.791  0.5634 -0.1018 -0.2399
11429TIP3    H155778   1.362   4.255  10.803  0.1534  0.8642  1.6914
11429TIP3    H255779   1.262   4.142  10.806  0.9237  0.1842  2.0136
11430TIP3   OH255780   1.924   3.696   5.846 -0.6093 -0.6619 -0.8291
11430TIP3    H155781   1.965   3.613   5.822 -1.1546 -0.6318 -1.9003
11430TIP3    H255782   1.954   3.758   5.779  0.4609  0.2268  0.4155
11431TIP3   OH255783   5.024   6.385  11.601  0.0355  0.3015  0.5099
11431TIP3    H155784   5.077   6.451  11.556  1.0285 -0.4492  0.5398
11431TIP3    H255785   5.069   6.302  11.583  0.0614 -0.1090  2.2720
11432TIP3   OH255786   2.229   3.788  13.598  0.3387 -0.1094 -0.0433
11432TIP3    H155787   2.302   3.736  13.633  0.8688  2.2045  2.6677
11432TIP3    H255788   2.151   3.742  13.627  0.7942  0.0926  1.6159
11433TIP3   OH255789   2.643   0.751   3.127 -0.3480  0.7643  0.3071
11433TIP3    H155790   2.705   0.756   3.199 -1.5310 -0.1116  1.4362
11433TIP3    H255791   2.621   0.842   3.107 -1.7363  1.0092  2.6393
11434TIP3   OH255792   5.957   5.013   5.118 -0.6918  0.1055 -0.1038
11434TIP3    H155793   6.043   4.994   5.156 -0.6197 -0.4490 -0.5282
11434TIP3    H255794   5.975   5.023   5.024 -1.0617  0.1618 -0.1672
11435TIP3   OH255795   0.014   3.395   0.171  0.0032 -0.3359  0.6190
11435TIP3    H155796  -0.027   3.373   0.087  2.3367  0.4986 -0.8487
11435TIP3    H255797  -0.054   3.443   0.219 -0.3811  2.5044 -2.3605
11436TIP3   OH255798   1.904   1.795   5.313  0.3419  0.5255 -0.1191
11436TIP3    H155799   1.948   1.839   5.385  2.4170 -0.6255 -0.6007
11436TIP3    H255800   1.821   1.842   5.303  0.0013  0.7603  2.9313
11437TIP3   OH255801   4.114   0.758  16.030  0.0966  0.3458  1.0304
11437TIP3    H155802   4.103   0.663  16.023 -0.8182  0.5187 -0.3679
11437TIP3    H255803   4.026   0.793  16.015  0.9577  1.5226 -2.2358
11438TIP3   OH255804   4.863   0.282   5.815 -0.1011 -0.2754  0.1430
11438TIP3    H155805   4.842   0.285   5.721  0.4934 -1.7001 -0.0523
11438TIP3    H255806   4.911   0.364   5.830  0.2100 -0.2472 -0.9035
11439TIP3   OH255807   1.653   3.240  12.326  1.0928 -0.2622  0.1376
11439TIP3    H155808   1.612   3.304  12.268  0.1745 -0.9902 -0.0321
11439TIP3    H255809   1.643   3.156  12.280  1.7796 -0.6130  0.6160
11440TIP3   OH255810   2.259   3.497  15.582  0.0165  0.3384  0.2590
11440TIP3    H155811   2.294   3.572  15.630  1.1015 -1.1368  1.9005
11440TIP3    H255812   2.165   3.501  15.597  0.0966  1.1475  0.6300
11441TIP3   OH255813   4.565   0.782  10.653 -0.5379 -0.2208 -0.8164
11441TIP3    H155814   4.561   0.686  10.651 -1.4088 -0.2476  0.7099
11441TIP3    H255815   4.657   0.803  10.669 -0.6943 -0.8984  1.1932
11442TIP3   OH255816   4.356   1.108   3.677  0.2542  0.3489 -0.2480
11442TIP3    H155817   4.271   1.066   3.681  0.2719  0.1242 -1.7719
11442TIP3    H255818   4.377   1.112   3.584  1.0004  2.2361 -0.0540
11443TIP3   OH255819   4.990   2.899   4.544 -0.5708 -0.4737  0.3165
11443TIP3    H155820   4.999   2.863   4.632 -3.5668  1.0150  1.3463
11443TIP3    H255821   5.050   2.974   4.542 -0.3086 -0.6603  1.0098
11444TIP3   OH255822   4.793   3.145   1.770  0.4484 -0.1233 -0.2935
11444TIP3    H155823   4.748   3.226   1.792  1.4516 -0.0525  1.7915
11444TIP3    H255824   4.829   3.160   1.683 -1.6505  0.6088 -1.0968
11445TIP3   OH255825   2.267   1.573   4.882 -0.0009  0.2358  0.4832
11445TIP3    H155826   2.204   1.510   4.917 -1.9204  1.2419 -0.9686
11445TIP3    H255827   2.322   1.596   4.957 -0.7204 -1.3913  1.5789
11446TIP3   OH255828   2.935   0.773  16.903 -0.5040  0.1110 -0.3067
11446TIP3    H155829   2.879   0.846  16.930 -0.8149 -0.1350 -0.2778
11446TIP3    H255830   3.007   0.774  16.965  0.1760  1.1822 -1.0737
11447TIP3   OH255831   4.933   4.770  14.677  0.2880  0.1088  0.0136
11447TIP3    H155832   4.925   4.866  14.685  0.9784  0.2066 -0.4079
11447TIP3    H255833   4.892   4.750  14.593 -1.7218 -0.2316  1.0105
11448TIP3   OH255834   5.709   1.445  12.432  0.1205 -0.0479 -0.0174
11448TIP3    H155835   5.727   1.531  12.470 -4.8906  0.9852  0.8201
11448TIP3    H255836   5.752   1.447  12.347  1.5075  2.6128  0.6272
11449TIP3   OH255837   6.157   3.913   5.066  0.3813 -0.3821  0.1121
11449TIP3    H155838   6.151   3.857   5.143  0.4138  0.0796  0.4599
11449TIP3    H255839   6.143   3.855   4.991  1.6221 -1.0658  0.3922
11450TIP3   OH255840   5.621   4.293   3.530  0.8045 -0.1370  0.1058
11450TIP3    H155841   5.535   4.286   3.489  0.2995 -0.0711  1.1105
11450TIP3    H255842   5.621   4.378   3.573  1.2814 -0.2369  0.3153
11451TIP3   OH255843   2.106   0.690   4.866 -0.5324  0.1975  0.0653
11451TIP3    H155844   2.017   0.716   4.842  0.0897  0.8618 -1.7771
11451TIP3    H255845   2.161   0.744   4.809  1.0708  0.1557  1.5138
11452TIP3   OH255846   1.569   4.491  12.274  0.1157  0.1399  0.1347
11452TIP3    H155847   1.579   4.564  12.335  1.0082 -1.0891  1.5283
11452TIP3    H255848   1.546   4.416  12.329  1.0187 -1.0315 -1.0001
11453TIP3   OH255849   3.347   1.401  11.630 -0.0352  0.1297 -0.4671
11453TIP3    H155850   3.309   1.393  11.718 -0.2148  3.3991 -0.1386
11453TIP3    H255851   3.291   1.346  11.575 -0.4885 -1.2471  1.2648
11454TIP3   OH255852   3.460   3.858  13.313  0.1623 -0.3370 -0.2182
11454TIP3    H155853   3.367   3.842  13.296  0.3401 -0.6876 -0.8699
11454TIP3    H255854   3.486   3.923  13.247  0.6791 -1.1703 -0.8577
11455TIP3   OH255855   4.549   3.306   1.505 -0.1962  0.4253 -0.0712
11455TIP3    H155856   4.578   3.392   1.536 -1.0779  0.1468  1.6092
11455TIP3    H255857   4.614   3.282   1.439 -0.9074  3.1572 -1.9528
11456TIP3   OH255858   1.275   6.458  12.899  0.1470  0.3006  0.4712
11456TIP3    H155859   1.317   6.390  12.846 -1.8984 -0.1453 -0.6937
11456TIP3    H255860   1.292   6.540  12.852 -1.4498 -0.0616 -0.8655
11457TIP3   OH255861   1.925   2.789   5.747  0.1930  0.2325  0.0737
11457TIP3    H155862   1.883   2.714   5.789 -0.4503  0.7062  0.2879
11457TIP3    H255863   1.855   2.853   5.736  0.5910  0.5525 -0.7080
11458TIP3   OH255864   2.933   5.442   6.245 -0.1552  0.5311  0.4289
11458TIP3    H155865   2.971   5.519   6.203  0.0234  0.8714  1.2019
11458TIP3    H255866   3.009   5.390   6.272 -0.2755 -0.4914 -1.0982
11459TIP3   OH255867   5.346   4.478   4.333 -0.1045 -0.1441  0.4957
11459TIP3    H155868   5.315   4.527   4.409 -1.7850  0.9198 -0.7848
11459TIP3    H255869   5.422   4.527   4.302 -0.5502  0.5031  0.4102
11460TIP3   OH255870   0.221   6.451   6.226 -1.0520 -0.3025 -0.0674
11460TIP3    H155871   0.248   6.394   6.298  0.3217  0.9319  0.4668
11460TIP3    H255872   0.200   6.534   6.269 -1.1259  0.1751 -1.0030
11461TIP3   OH255873   5.352   4.514  12.514  0.0324  0.1952  1.1194
11461TIP3    H155874   5.439   4.547  12.537 -0.6953  3.3004 -0.0712
11461TIP3    H255875   5.306   4.510  12.598 -0.0917  3.3432  1.3171
11462TIP3   OH255876   1.462   1.535   4.861  0.1014 -0.7739  0.4962
11462TIP3    H155877   1.450   1.442   4.845 -1.9054 -0.7980  1.7811
11462TIP3    H255878   1.457   1.576   4.775  0.8073 -1.8171 -0.0587
11463TIP3   OH255879   2.474   5.388  15.917  0.3401  0.3357 -0.1635
11463TIP3    H155880   2.533   5.385  15.841 -0.3983 -0.6236 -0.7295
11463TIP3    H255881   2.399   5.334  15.890 -0.4931  1.0035  0.7896
11464TIP3   OH255882   4.198   2.233  16.570 -0.0119 -1.0257 -0.2068
11464TIP3    H155883   4.140   2.288  16.518  0.0032 -0.3431  0.4772
11464TIP3    H255884   4.247   2.182  16.506  0.9860  0.7737 -0.9564
11465TIP3   OH255885   1.353   6.815  12.538  0.0241  0.1024  0.1643
11465TIP3    H155886   1.324   6.800  12.448  0.8284  0.8105 -0.2275
11465TIP3    H255887   1.376   6.908  12.540 -0.1520  0.1359  1.1559
11466TIP3   OH255888   1.026   5.672   2.856 -0.0777  0.3128 -0.2073
11466TIP3    H155889   1.012   5.754   2.903  2.1207 -0.9009  2.9057
11466TIP3    H255890   1.066   5.698   2.773  1.4848  2.4183  1.1111
11467TIP3   OH255891   5.878   6.456   1.165 -0.1482  0.2617 -0.4017
11467TIP3    H155892   5.801   6.506   1.192 -0.3222  1.0326 -2.1700
11467TIP3    H255893   5.911   6.503   1.088  1.5059 -0.6273 -0.2744
11468TIP3   OH255894   4.443   4.738   4.230  0.7051 -0.5192 -0.4484
11468TIP3    H155895   4.495   4.658   4.232 -1.6119 -2.0869  0.0731
11468TIP3    H255896   4.405   4.744   4.318 -0.7909  0.0352 -1.1086
11469TIP3   OH255897   0.327   0.795   1.121 -0.2170 -0.4098  0.2545
11469TIP3    H155898   0.239   0.761   1.136 -0.3976 -0.6528 -1.1860
11469TIP3    H255899   0.314   0.886   1.092  0.1452  0.2385  2.0001
11470TIP3   OH255900   3.263   4.847  16.710 -0.1857 -0.4464  0.2571
11470TIP3    H155901   3.300   4.788  16.645 -0.2924  0.4258 -0.6209
11470TIP3    H255902   3.211   4.910  16.659 -0.5198  0.0759  1.2096
11471TIP3   OH255903   2.840   2.050  15.326  0.5057 -0.1032 -0.1203
11471TIP3    H155904   2.906   1.982  15.308 -0.1842 -1.3761  1.8063
11471TIP3    H255905   2.855   2.074  15.418 -1.8741 -0.7034  0.4985
11472TIP3   OH255906   2.379   4.297  17.033  0.5229 -0.0321  0.6135
11472TIP3    H155907   2.356   4.351  17.109  0.2062 -0.1507  0.6056
11472TIP3    H255908   2.336   4.341  16.959  0.8419  0.0910  0.5028
11473TIP3   OH255909   1.748   0.257  16.327  0.0140  0.5028  0.2460
11473TIP3    H155910   1.837   0.242  16.296  0.3037  2.4566  0.0188
11473TIP3    H255911   1.757   0.317  16.400 -1.0172 -0.6980  1.4261
11474TIP3   OH255912   0.500   3.928  11.245  0.0651 -0.1255 -0.3057
11474TIP3    H155913   0.479   3.868  11.173 -0.0951  0.4154 -0.7235
11474TIP3    H255914   0.491   4.015  11.206  1.5454  0.1684 -0.0785
11475TIP3   OH255915   2.737   4.012  12.812  0.5703  0.2011 -0.6117
11475TIP3    H155916   2.761   4.075  12.880 -0.1565 -0.3757  0.2043
11475TIP3    H255917   2.719   4.066  12.735 -1.0772  1.1205  0.3482
11476TIP3   OH255918   0.649   0.240   5.584  0.3620 -0.5149 -0.0214
11476TIP3    H155919   0.662   0.165   5.526 -1.9462 -0.7272 -0.3514
11476TIP3    H255920   0.686   0.314   5.536 -0.5515 -0.8658 -1.3013
11477TIP3   OH255921   0.966   2.165  16.333  0.2404  0.0209  0.1727
11477TIP3    H155922   1.047   2.159  16.384  1.1858 -1.9965 -1.4055
11477TIP3    H255923   0.974   2.247  16.286  1.2125  0.0210  0.3138
11478TIP3   OH255924   1.972   1.362   2.763 -0.2488  0.5178 -0.3356
11478TIP3    H155925   1.990   1.287   2.707  0.7695 -0.7629  1.5699
11478TIP3    H255926   1.919   1.327   2.834  0.5858  1.4774  0.8125
11479TIP3   OH255927   6.282   1.205  15.824  0.4449  0.2649  0.0246
11479TIP3    H155928   6.376   1.196  15.811  0.4558 -0.7390  0.7301
11479TIP3    H255929   6.244   1.134  15.773 -0.0684  1.7098 -1.6988
11480TIP3   OH255930   4.425   4.207   0.090 -0.5450  0.7841 -0.2414
11480TIP3    H155931   4.360   4.277   0.091 -1.8641 -0.3985 -0.6413
11480TIP3    H255932   4.479   4.225   0.014 -0.4087  1.7557  0.0726
11481TIP3   OH255933   2.975   4.451  17.003 -0.6365 -0.1992  0.0362
11481TIP3    H155934   3.039   4.445  16.931 -1.6388  0.4425 -0.9355
11481TIP3    H255935   2.890   4.448  16.959 -1.2668  0.0796  1.2221
11482TIP3   OH255936   5.529   2.767   0.214 -0.1195  0.1684  0.0835
11482TIP3    H155937   5.509   2.787   0.305 -2.1067 -1.6979  0.1603
11482TIP3    H255938   5.448   2.786   0.167 -0.9563 -3.7056 -0.3679
11483TIP3   OH255939   2.301   4.280   2.206  0.1419 -0.4062 -0.5659
11483TIP3    H155940   2.221   4.228   2.217  0.1066 -0.4830 -1.1996
11483TIP3    H255941   2.320   4.275   2.113 -0.2353  1.2755 -0.7493
11484TIP3   OH255942   6.267   3.778  15.464  0.0076  0.6402 -0.2144
11484TIP3    H155943   6.205   3.710  15.437  2.0177 -0.3690 -2.7033
11484TIP3    H255944   6.335   3.730  15.511  0.0397  1.4062  0.5370
11485TIP3   OH255945   2.354   6.750   3.404  0.1223  0.5406 -0.5637
11485TIP3    H155946   2.407   6.826   3.382  0.2702  1.4060  2.2822
11485TIP3    H255947   2.395   6.714   3.483 -1.4377 -0.9270 -0.3456
11486TIP3   OH255948   0.159   1.371   2.054  0.0112  0.1138 -0.5885
11486TIP3    H155949   0.142   1.285   2.017 -0.6005  0.3321 -0.8253
11486TIP3    H255950   0.197   1.353   2.141  2.1096 -0.4077 -1.5503
11487TIP3   OH255951   2.767   1.285   1.585  0.7683 -0.4955 -0.6178
11487TIP3    H155952   2.720   1.286   1.501 -0.8148 -1.8485  0.1780
11487TIP3    H255953   2.704   1.320   1.648  1.4151 -0.8463  0.2363
11488TIP3   OH255954   4.616   4.281   1.355  0.3475 -0.5047 -0.4756
11488TIP3    H155955   4.536   4.289   1.406  0.4396 -2.0246 -0.0495
11488TIP3    H255956   4.680   4.333   1.403 -0.3273  0.6386 -0.7686
11489TIP3   OH255957   3.935   1.282  17.184  0.4719  0.1742 -0.0521
11489TIP3    H155958   3.940   1.197  17.229  0.3324 -1.3576 -2.6900
11489TIP3    H255959   4.023   1.296  17.150  0.4919  1.1246  0.3690
11490TIP3   OH255960   6.084   2.153  13.055  0.2415 -0.3154 -0.0622
11490TIP3    H155961   6.111   2.131  12.966 -2.5057 -0.8264 -0.8713
11490TIP3    H255962   6.165   2.176  13.100  1.7957 -0.6930 -2.4924
11491TIP3   OH255963   0.069   4.575  15.211 -0.0507 -0.0741  0.5507
11491TIP3    H155964   0.088   4.515  15.284 -1.7127 -0.2486  0.8651
11491TIP3    H255965  -0.025   4.589  15.215  0.0436  1.0809 -0.6919
11492TIP3   OH255966   4.538   6.525  12.645  0.0110 -0.2530 -0.1744
11492TIP3    H155967   4.525   6.614  12.679  0.5337 -0.2954  0.1560
11492TIP3    H255968   4.632   6.521  12.627 -0.1435 -0.4775 -0.9449
11493TIP3   OH255969   3.151   3.178   3.867  0.1338 -0.2682 -0.0337
11493TIP3    H155970   3.062   3.192   3.900 -0.0657 -1.0924 -0.2251
11493TIP3    H255971   3.202   3.153   3.945  0.4151  1.0690  0.2464
11494TIP3   OH255972   3.341   3.452  17.042 -0.1352 -0.1470  0.4203
11494TIP3    H155973   3.323   3.402  17.122 -0.0302 -0.3208  0.3367
11494TIP3    H255974   3.407   3.516  17.068  0.2139 -0.4817  0.3751
11495TIP3   OH255975   2.226   6.287   1.716  0.5160  0.1401 -0.0441
11495TIP3    H155976   2.257   6.365   1.763 -0.6327  1.1076 -0.8406
11495TIP3    H255977   2.144   6.264   1.759 -0.2032  0.6308 -1.1272
11496TIP3   OH255978   3.034   5.230   4.514 -0.3271  0.6869 -0.0241
11496TIP3    H155979   2.950   5.203   4.478 -0.5264  0.9428  0.2491
11496TIP3    H255980   3.037   5.324   4.501 -0.8691  0.9588  1.5550
11497TIP3   OH255981   5.801   6.671   6.219 -0.0109 -0.3818 -0.3811
11497TIP3    H155982   5.890   6.636   6.209  0.0688 -0.9224  1.7677
11497TIP3    H255983   5.759   6.613   6.282 -1.4910  0.6214 -0.3856
11498TIP3   OH255984   4.518   2.951  15.772 -0.1705  0.0876 -0.3531
11498TIP3    H155985   4.586   2.887  15.753  1.9797  2.4273 -0.9487
11498TIP3    H255986   4.449   2.932  15.707 -0.0543 -2.1269  0.0819
11499TIP3   OH255987   6.512   4.010   6.240  0.3840  0.1178 -0.0724
11499TIP3    H155988   6.553   4.088   6.203  0.0234  0.4009  0.1200
11499TIP3    H255989   6.465   4.041   6.317 -2.9302  0.4710 -2.0105
11500TIP3   OH255990   4.898   3.280   2.421 -0.3732 -0.5101 -0.2699
11500TIP3    H155991   4.977   3.315   2.379 -1.3673  1.3018 -0.7051
11500TIP3    H255992   4.929   3.244   2.504  0.8488  0.5782 -0.2293
11501TIP3   OH255993   3.221   1.994  16.681  0.5712 -0.0545  0.1360
11501TIP3    H155994   3.183   2.054  16.745  2.7553 -0.4201  1.8960
11501TIP3    H255995   3.309   2.027  16.666  0.3210 -0.3256 -2.3113
11502TIP3   OH255996   5.501   3.194  12.894 -0.3494  0.1351 -0.0956
11502TIP3    H155997   5.410   3.223  12.894 -0.6510 -0.7354 -1.5830
11502TIP3    H255998   5.496   3.098  12.896  0.5724  0.0759  1.0271
11503TIP3   OH255999   4.222   1.791   1.086  0.5251 -0.2429  0.0457
11503TIP3    H156000   4.197   1.700   1.074  0.0086 -0.0433 -0.4368
11503TIP3    H256001   4.189   1.814   1.173 -1.3215  0.1050 -0.6985
11504TIP3   OH256002   1.517   2.953   4.011  0.0068 -0.3838  0.2044
11504TIP3    H156003   1.604   2.969   4.047  0.6241 -0.7750 -1.0442
11504TIP3    H256004   1.462   2.938   4.087  1.2905 -1.3616  0.9805
11505TIP3   OH256005   1.230   2.624  16.821  1.2112  0.3868 -0.6370
11505TIP3    H156006   1.216   2.597  16.912 -0.0309  0.7192 -0.7088
11505TIP3    H256007   1.272   2.710  16.828 -0.5319  1.2467 -0.3369
11506TIP3   OH256008   5.426   4.256  16.851 -0.3325  0.0371 -0.0710
11506TIP3    H156009   5.353   4.201  16.880  0.7032 -0.9109  0.8226
11506TIP3    H256010   5.476   4.273  16.930  1.1005 -0.3473 -0.8669
11507TIP3   OH256011   2.087   1.465  16.993  0.4545  0.4953 -0.0505
11507TIP3    H156012   2.045   1.379  16.985  2.8658 -0.7247 -0.4547
11507TIP3    H256013   2.090   1.498  16.903  1.3836  0.0251 -0.2062
11508TIP3   OH256014   5.720   5.469   4.174  0.4833  0.2481  0.1064
11508TIP3    H156015   5.665   5.538   4.210 -0.6027 -0.2766 -0.4879
11508TIP3    H256016   5.671   5.388   4.191  1.7919 -0.4057  0.9221
11509TIP3   OH256017   3.703   5.336  16.568  0.1028  0.0240  0.2280
11509TIP3    H156018   3.696   5.267  16.634 -0.5905  0.1860  0.3313
11509TIP3    H256019   3.772   5.394  16.601 -1.6502  1.2684  1.9176
11510TIP3   OH256020   2.174   2.112  13.376 -0.2836  0.1151  0.1456
11510TIP3    H156021   2.120   2.158  13.440 -1.0903  0.6723 -0.8969
11510TIP3    H256022   2.171   2.168  13.298 -0.2462 -1.0938 -0.7494
11511TIP3   OH256023   1.085   1.763  11.369 -0.0975 -0.0337  0.6853
11511TIP3    H156024   1.001   1.751  11.414 -0.2007  0.1218  0.5367
11511TIP3    H256025   1.098   1.857  11.366 -0.9210  0.0733 -1.0839
11512TIP3   OH256026   4.943   4.136   1.350 -0.2332  0.5271  0.1114
11512TIP3    H156027   4.918   4.090   1.271 -0.5129  0.8218  0.0230
11512TIP3    H256028   4.908   4.225   1.338  0.6559  0.8851  0.0940
11513TIP3   OH256029   4.123   2.628  15.925 -0.5834 -0.5626  0.8287
11513TIP3    H156030   4.088   2.539  15.919  1.9241 -1.5510 -2.4948
11513TIP3    H256031   4.067   2.680  15.867  1.5852 -1.6283 -2.5680
11514TIP3   OH256032   4.847   5.805   4.318  0.4239  0.0621  0.4628
11514TIP3    H156033   4.881   5.766   4.398  2.1108 -0.0246 -0.2487
11514TIP3    H256034   4.867   5.898   4.327 -1.7811  0.5124  1.2707
11515TIP3   OH256035   4.516   5.562  13.301  0.5407 -0.4763 -0.0809
11515TIP3    H156036   4.585   5.512  13.257  0.9874  0.1102 -0.0617
11515TIP3    H256037   4.552   5.650  13.308 -0.0962 -0.2361  0.2036
11516TIP3   OH256038   1.231   3.375  13.593  0.2806  0.5754 -0.8656
11516TIP3    H156039   1.300   3.405  13.653 -1.0056 -0.0514  1.0095
11516TIP3    H256040   1.150   3.410  13.631 -0.8430 -1.9060 -0.8258
11517TIP3   OH256041   2.716   2.336  15.927  0.2074  0.4005  0.0534
11517TIP3    H156042   2.712   2.323  16.022 -0.2175 -0.4230 -0.0656
11517TIP3    H256043   2.778   2.408  15.915  1.0423 -0.1493  0.9060
11518TIP3   OH256044   3.885   3.731   5.669 -0.2841 -0.8436  0.1320
11518TIP3    H156045   3.898   3.818   5.629 -0.0311 -0.9920 -0.1127
11518TIP3    H256046   3.846   3.750   5.754 -0.4731 -0.5004 -0.0268
11519TIP3   OH256047   2.254   1.804  16.502 -0.3134  0.0920  0.1145
11519TIP3    H156048   2.305   1.855  16.565 -1.8106  2.6456 -0.5885
11519TIP3    H256049   2.313   1.793  16.427  0.9335 -1.6264  1.2522
11520TIP3   OH256050   6.610   0.243   1.029  0.1606  0.5499 -0.5839
11520TIP3    H156051   6.517   0.250   1.049 -0.0617 -1.1506 -0.8794
11520TIP3    H256052   6.613   0.231   0.934  0.5741 -0.7757 -0.4195
11521TIP3   OH256053   6.367   4.272   3.765 -0.2481  0.2889 -0.3423
11521TIP3    H156054   6.351   4.266   3.860  1.0030 -0.5723 -0.1650
11521TIP3    H256055   6.354   4.183   3.733  0.6721  0.2936 -0.7481
11522TIP3   OH256056   5.915   2.234  11.111 -0.2109 -0.2997 -0.4398
11522TIP3    H156057   5.941   2.294  11.041  5.2277  0.0320  1.4121
11522TIP3    H256058   5.870   2.289  11.175 -1.0965  0.3396 -1.5784
11523TIP3   OH256059   2.067   6.782   0.688 -0.3149  0.0139  0.1080
11523TIP3    H156060   2.155   6.790   0.651  0.2873 -1.2238  1.2019
11523TIP3    H256061   2.033   6.871   0.687  0.5107  0.3470 -1.3597
11524TIP3   OH256062   2.176   1.314  15.984  0.5438  0.0965  0.5501
11524TIP3    H156063   2.240   1.379  16.010  0.5763 -0.0445  0.8316
11524TIP3    H256064   2.096   1.340  16.030  0.1480  0.7881 -0.5009
11525TIP3   OH256065   0.203   2.846  13.334 -0.1770 -0.6176 -0.3027
11525TIP3    H156066   0.207   2.750  13.325  0.3728 -0.6359  0.1044
11525TIP3    H256067   0.293   2.875  13.319 -0.5419 -0.0530 -1.5812
11526TIP3   OH256068   5.589   4.348   4.851  0.3510 -0.3594 -0.8204
11526TIP3    H156069   5.587   4.297   4.932  1.0584  0.4831 -0.2529
11526TIP3    H256070   5.662   4.311   4.801  0.7932  0.0226 -0.4591
11527TIP3   OH256071   0.194   1.151  15.615 -0.9710 -0.1620 -0.7524
11527TIP3    H156072   0.254   1.187  15.679 -2.8369  2.5282 -0.3394
11527TIP3    H256073   0.172   1.064  15.648  2.4964 -1.2388 -0.9073
11528TIP3   OH256074   2.829   5.916  16.008  0.0291 -0.1080  0.2588
11528TIP3    H156075   2.773   5.840  16.021 -0.3994  0.1058 -0.2713
11528TIP3    H256076   2.892   5.888  15.941  0.0952 -0.1144  0.3238
11529TIP3   OH256077   4.697   0.111   3.642 -0.1572 -0.4040  0.3596
11529TIP3    H156078   4.748   0.062   3.707 -1.4719 -1.1997  0.8430
11529TIP3    H256079   4.627   0.051   3.616 -1.1851  0.8171  0.1589
11530TIP3   OH256080   1.424   0.543   4.414 -0.0165  0.0676  0.1380
11530TIP3    H156081   1.445   0.480   4.345  2.7167 -0.7525  1.5724
11530TIP3    H256082   1.389   0.489   4.486 -1.0916  0.6940  0.1142
11531TIP3   OH256083   4.650   1.756   0.357 -0.4806 -0.0334  0.0140
11531TIP3    H156084   4.641   1.667   0.390 -0.0411 -0.0860 -0.0082
11531TIP3    H256085   4.691   1.804   0.429 -1.7161  0.4105  0.4456
11532TIP3   OH256086   2.784   2.738   3.582 -0.9755  0.1190  0.1411
11532TIP3    H156087   2.744   2.713   3.666  0.6091 -0.5315  0.7319
11532TIP3    H256088   2.878   2.732   3.598 -0.6448  0.4963 -1.5487
11533TIP3   OH256089   0.854   6.148   3.866  0.1312  0.2200 -0.2213
11533TIP3    H156090   0.833   6.234   3.828 -0.2172 -0.4677 -1.6655
11533TIP3    H256091   0.769   6.105   3.876  0.4190 -0.7560 -1.5848
11534TIP3   OH256092   3.413   2.472  10.564  0.6401  0.0605 -0.5359
11534TIP3    H156093   3.379   2.480  10.653 -0.8563 -2.3721 -0.8001
11534TIP3    H256094   3.372   2.544  10.516 -1.2409 -0.5753  0.0341
11535TIP3   OH256095   4.166   1.996   0.472  0.1888 -0.7082 -0.1033
11535TIP3    H156096   4.254   2.027   0.491  0.9511 -1.4175 -2.1575
11535TIP3    H256097   4.156   1.917   0.525 -0.1107  0.5582  1.8168
11536TIP3   OH256098   0.583   5.218   6.396 -0.2695  0.0594  0.1496
11536TIP3    H156099   0.574   5.124   6.406 -0.0167  0.0508  0.3077
11536TIP3    H256100   0.571   5.234   6.302  1.6523 -0.3664 -0.2106
11537TIP3   OH256101   4.905   3.575  12.526 -0.4830  0.2276  0.6716
11537TIP3    H156102   4.896   3.577  12.621 -0.6873  1.5153  0.6458
11537TIP3    H256103   4.921   3.666  12.502 -1.3457  0.0551 -0.6210
11538TIP3   OH256104   2.440   2.317  14.978  0.4186 -0.0198 -0.6484
11538TIP3    H156105   2.473   2.373  15.048  0.3160  0.4606 -0.9801
11538TIP3    H256106   2.512   2.256  14.960  0.5190 -0.0190 -0.2640
11539TIP3   OH256107   4.460   3.774  13.146  0.0932 -0.0762 -0.0676
11539TIP3    H156108   4.377   3.763  13.192 -0.6908  0.2796 -1.3466
11539TIP3    H256109   4.516   3.820  13.208 -1.0279  0.6466  0.4271
11540TIP3   OH256110   0.620   1.595  16.143  0.0031  0.2068 -0.1674
11540TIP3    H156111   0.570   1.517  16.119  1.5521 -0.6150 -0.8362
11540TIP3    H256112   0.639   1.638  16.060 -1.4669  1.7553  0.2362
11541TIP3   OH256113   0.422   4.638  11.615 -0.2892  0.0653  0.1081
11541TIP3    H156114   0.355   4.635  11.547 -0.5775  1.8550  0.2673
11541TIP3    H256115   0.384   4.587  11.687 -2.0468  1.9659  0.6287
11542TIP3   OH256116   4.619   1.053  13.805  0.2164 -0.3559  0.0775
11542TIP3    H156117   4.582   0.975  13.846  1.8391 -0.7774  0.8493
11542TIP3    H256118   4.615   1.036  13.711 -1.9727 -0.1320  0.0894
11543TIP3   OH256119   3.712   1.400  17.083  0.6619  0.2706 -0.1079
11543TIP3    H156120   3.698   1.312  17.048  2.0340  0.0349 -0.0917
11543TIP3    H256121   3.795   1.395  17.130  1.7094  2.0457 -1.6661
11544TIP3   OH256122   4.189   1.725  12.334  0.3535 -0.6689 -0.2927
11544TIP3    H156123   4.110   1.704  12.383  1.2016 -0.5158  1.1863
11544TIP3    H256124   4.247   1.650  12.346  1.1070 -0.0403  0.1047
11545TIP3   OH256125   1.279   3.034  12.119 -0.3400 -0.2849 -0.4633
11545TIP3    H156126   1.337   3.091  12.069 -0.1374 -0.7259 -0.7364
11545TIP3    H256127   1.249   3.089  12.192 -0.6856  0.3736 -1.0920
11546TIP3   OH256128   2.944   5.423  15.605 -0.2409 -0.9109 -0.0520
11546TIP3    H156129   2.997   5.435  15.683 -0.7040 -2.2898  0.4963
11546TIP3    H256130   2.855   5.408  15.638 -0.4080 -1.7013 -0.8185
11547TIP3   OH256131   1.933   1.526  12.102 -0.4959 -0.1691  0.1246
11547TIP3    H156132   1.942   1.501  12.010 -1.2987 -1.6921  0.4450
11547TIP3    H256133   1.839   1.532  12.117 -0.3970 -0.7216  1.0454
11548TIP3   OH256134   6.212   1.152   6.050 -0.1716 -0.0373  0.2798
11548TIP3    H156135   6.270   1.179   6.121  0.9819 -0.5843 -0.4227
11548TIP3    H256136   6.230   1.214   5.979 -0.8611  0.1232  0.2365
11549TIP3   OH256137   0.050   3.436  13.796  0.5958 -0.6236  0.1382
11549TIP3    H156138   0.042   3.412  13.704 -2.0985 -3.1140  0.8647
11549TIP3    H256139  -0.039   3.426  13.831  0.6475  3.9285  2.2892
11550TIP3   OH256140   3.417   4.350  14.542 -0.9477  0.1080 -0.3417
11550TIP3    H156141   3.412   4.257  14.564 -0.1448 -0.3294 -1.8762
11550TIP3    H256142   3.325   4.377  14.534 -1.1916 -0.5598  0.0357
11551TIP3   OH256143   2.924   2.927  12.700 -0.2241 -0.0102  0.2771
11551TIP3    H156144   2.843   2.951  12.654  0.6710  1.2867 -0.6980
11551TIP3    H256145   2.939   2.999  12.762  1.2386  0.8655 -1.0091
11552TIP3   OH256146   3.895   0.872  11.574  0.1359  0.1109  0.0428
11552TIP3    H156147   3.942   0.789  11.564 -1.2361 -0.6347 -0.6569
11552TIP3    H256148   3.922   0.924  11.499 -0.6041 -0.5623 -0.7136
11553TIP3   OH256149   5.608   1.496  16.347 -0.0233 -0.4316 -0.1649
11553TIP3    H156150   5.571   1.569  16.297  0.3463 -0.0796  0.0723
11553TIP3    H256151   5.542   1.476  16.413  1.1847  1.8558  1.9128
11554TIP3   OH256152   3.305   1.159   5.864  0.1952 -0.4110  0.4225
11554TIP3    H156153   3.269   1.204   5.787 -0.6130  0.2137  1.1438
11554TIP3    H256154   3.396   1.187   5.867  0.0502  0.1190  0.0845
11555TIP3   OH256155   4.044   1.069   3.008  0.7425 -0.5450 -0.2775
11555TIP3    H156156   4.016   1.004   3.073 -0.7282 -0.2007 -0.5112
11555TIP3    H256157   4.129   1.099   3.038  0.5818 -1.1961  0.8836
11556TIP3   OH256158   3.042   1.476  12.458 -0.6506 -0.0711 -0.2019
11556TIP3    H156159   3.113   1.507  12.513  0.2732  1.9543 -2.3887
11556TIP3    H256160   2.963   1.510  12.499 -0.1568 -0.1796  0.8540
11557TIP3   OH256161   1.890   1.967   4.440  0.2531  0.0499 -0.0192
11557TIP3    H156162   1.827   2.026   4.482  0.6275  0.3414  0.1376
11557TIP3    H256163   1.895   1.997   4.349 -0.0544 -0.1607 -0.1075
11558TIP3   OH256164   4.599   2.335   3.237 -0.9087 -0.1562  0.0273
11558TIP3    H156165   4.667   2.299   3.294 -0.0657  0.3016 -0.6637
11558TIP3    H256166   4.641   2.410   3.194 -1.3137 -0.8475 -1.6559
11559TIP3   OH256167   5.841   5.840   3.178 -1.0297  0.1632 -0.2550
11559TIP3    H156168   5.833   5.794   3.261  0.4782  1.7707  0.8459
11559TIP3    H256169   5.868   5.929   3.202  0.6320  0.3579 -2.4949
11560TIP3   OH256170   1.336   6.209  13.463 -0.1197  0.1912 -0.1034
11560TIP3    H156171   1.286   6.290  13.459 -0.3300  0.0306 -1.8363
11560TIP3    H256172   1.273   6.143  13.492 -0.5905  0.2478 -0.9461
11561TIP3   OH256173   0.377   4.169   2.126  0.1313 -0.0619 -0.1481
11561TIP3    H156174   0.346   4.237   2.186  0.6559 -1.1996  1.4857
11561TIP3    H256175   0.362   4.206   2.039 -0.4787  1.7402  0.6578
11562TIP3   OH256176   3.833   1.023   0.981 -0.0921  0.6366  0.0519
11562TIP3    H156177   3.759   1.021   1.042  0.1218  1.2381  0.3324
11562TIP3    H256178   3.796   0.993   0.898 -0.5302  0.4289  0.3203
11563TIP3   OH256179   2.537   6.229   1.095  0.5287  0.1869  0.0575
11563TIP3    H156180   2.473   6.246   1.165  1.9020  1.0284  1.1566
11563TIP3    H256181   2.562   6.316   1.064  0.9010 -0.1445 -0.5868
11564TIP3   OH256182   0.848   0.646   4.044 -0.3060 -0.0305  0.4615
11564TIP3    H156183   0.754   0.631   4.052 -0.0778 -2.4965 -0.6364
11564TIP3    H256184   0.859   0.739   4.065 -3.2410  0.8655 -1.4005
11565TIP3   OH256185   2.150   0.878   3.652 -0.2122  0.5239  0.2804
11565TIP3    H156186   2.128   0.851   3.741  0.7476 -1.5874 -0.0656
11565TIP3    H256187   2.241   0.850   3.640 -0.0283  1.5696 -1.0826
11566TIP3   OH256188   5.087   2.161   1.294 -0.3221 -0.2844 -0.5947
11566TIP3    H156189   5.161   2.100   1.292 -0.3080 -0.2650 -0.6557
11566TIP3    H256190   5.098   2.215   1.216 -0.2043 -0.0486 -0.4143
11567TIP3   OH256191   3.887   1.442   0.234  0.3698  0.0155  0.4269
11567TIP3    H156192   3.955   1.428   0.299 -0.7141 -0.9118  1.3966
11567TIP3    H256193   3.922   1.401   0.154  0.3086 -1.9189  1.3352
11568TIP3   OH256194   0.038   2.319   2.961  0.3831  0.3287 -0.6604
11568TIP3    H156195  -0.003   2.370   3.031 -1.5420  0.7361 -1.9705
11568TIP3    H256196   0.117   2.368   2.938 -0.2078  1.4875 -0.3254
11569TIP3   OH256197   5.084   6.225  16.179 -0.0793 -0.0435  0.1738
11569TIP3    H156198   5.044   6.310  16.159 -2.0485 -0.8693  0.3387
11569TIP3    H256199   5.017   6.178  16.228  0.6944 -1.9651 -0.5147
11570TIP3   OH256200   4.317   3.797   1.168 -0.6409  0.2645 -0.0553
11570TIP3    H156201   4.249   3.776   1.104  0.6603  0.4922 -1.6017
11570TIP3    H256202   4.362   3.873   1.130  0.5828  0.0008  0.8173
11571TIP3   OH256203   4.118   4.701   5.056 -0.2232 -0.0781 -0.1762
11571TIP3    H156204   4.078   4.785   5.081 -0.9743  0.1966 -2.1448
11571TIP3    H256205   4.090   4.641   5.125 -1.8660  0.7157 -0.0914
11572TIP3   OH256206   2.038   5.520  12.913 -0.0478  0.4744 -0.1463
11572TIP3    H156207   1.980   5.525  12.989  0.5362 -0.5167  0.3864
11572TIP3    H256208   2.020   5.435  12.874  0.2743  0.6137 -0.6080
11573TIP3   OH256209   3.550   5.283  12.836  0.1213 -0.2858 -0.0708
11573TIP3    H156210   3.525   5.339  12.762  0.8517  1.1696  0.7273
11573TIP3    H256211   3.645   5.275  12.829  0.3085  0.5911  1.1643
11574TIP3   OH256212   2.994   4.158  15.959 -0.0194  0.3144 -0.0031
11574TIP3    H156213   3.022   4.196  16.043  1.1566  1.8233 -1.0056
11574TIP3    H256214   2.993   4.233  15.899 -2.0523 -0.5069 -1.0804
11575TIP3   OH256215   1.439   5.159   2.986  0.3524 -0.0532  0.2314
11575TIP3    H156216   1.378   5.184   2.917  1.1579 -0.7002 -0.7439
11575TIP3    H256217   1.428   5.226   3.053 -2.8033 -1.1793  0.9700
11576TIP3   OH256218   2.755   6.349  15.191  0.7061 -0.0863 -0.3962
11576TIP3    H156219   2.849   6.330  15.191  1.2049  2.1039  0.0139
11576TIP3    H256220   2.739   6.388  15.106  0.1950 -0.2905 -0.3936
11577TIP3   OH256221   3.933   6.770  15.050 -0.4149  0.5101 -0.3920
11577TIP3    H156222   3.916   6.750  15.142 -0.0712 -2.9981 -0.9461
11577TIP3    H256223   3.853   6.812  15.019 -2.3464 -2.1606  0.5768
11578TIP3   OH256224   0.028   2.322  16.040  0.3175 -0.1767 -0.3377
11578TIP3    H156225   0.062   2.266  15.970 -0.2588 -0.8573 -0.0800
11578TIP3    H256226   0.088   2.308  16.113 -0.2071 -0.9867 -0.0505
11579TIP3   OH256227   1.306   1.359   6.130 -0.4357 -0.0196  0.6559
11579TIP3    H156228   1.342   1.279   6.092 -0.6277  0.7408 -1.2285
11579TIP3    H256229   1.234   1.329   6.186 -0.7424 -1.1515 -0.3089
11580TIP3   OH256230   5.596   5.141  15.097 -0.3865 -0.1037 -0.1002
11580TIP3    H156231   5.510   5.181  15.096 -0.8971 -1.0776  1.2310
11580TIP3    H256232   5.607   5.110  15.187  1.0225 -0.6933 -0.4410
11581TIP3   OH256233   6.210   3.139   3.512 -0.0622  0.3371  0.5881
11581TIP3    H156234   6.294   3.173   3.543  0.4459  0.8556 -1.2615
11581TIP3    H256235   6.206   3.165   3.420 -1.6464 -0.8550  0.2848
11582TIP3   OH256236   2.060   3.023   3.916 -0.5330 -0.2931  0.4621
11582TIP3    H156237   2.106   3.106   3.930  1.5112 -1.2652 -0.0944
11582TIP3    H256238   2.101   2.962   3.978 -0.5001 -1.3892 -0.5839
11583TIP3   OH256239   3.491   1.172   1.806 -0.3401 -0.6881  0.0823
11583TIP3    H156240   3.536   1.169   1.890 -2.9664 -1.5179  1.6024
11583TIP3    H256241   3.465   1.081   1.790 -4.3350  0.0416  1.1524
11584TIP3   OH256242   2.472   6.575   4.310  0.0958  0.1565 -0.1565
11584TIP3    H156243   2.411   6.631   4.357 -0.0398  0.3065 -0.5059
11584TIP3    H256244   2.541   6.555   4.374 -0.8873 -0.9576  0.6069
11585TIP3   OH256245   1.432   1.840   2.529  0.5615  0.1039 -0.1387
11585TIP3    H156246   1.456   1.915   2.475 -1.7259 -0.4315 -2.0425
11585TIP3    H256247   1.382   1.877   2.601  0.4936  0.5191 -0.3949
11586TIP3   OH256248   0.582   4.688   5.044 -0.1314  0.0783  0.2390
11586TIP3    H156249   0.538   4.701   4.960  1.5444  0.3263 -0.6544
11586TIP3    H256250   0.669   4.656   5.019  0.3881  0.1500  1.9019
11587TIP3   OH256251   2.524   1.807   3.673 -0.0326  0.5424 -0.0899
11587TIP3    H156252   2.564   1.885   3.634  1.5277  0.9873  2.1502
11587TIP3    H256253   2.558   1.734   3.621 -0.8937  1.2658 -1.7323
11588TIP3   OH256254   0.820   1.446  11.402 -0.1998  0.4236  0.1369
11588TIP3    H156255   0.826   1.384  11.329 -1.2970  0.7048 -0.2243
11588TIP3    H256256   0.736   1.491  11.388 -0.1133  0.9566  1.2029
11589TIP3   OH256257   3.867   6.484  11.207  0.0067  0.0572 -0.3099
11589TIP3    H156258   3.804   6.525  11.148  1.4268 -0.7775 -2.5353
11589TIP3    H256259   3.914   6.557  11.247 -1.2882  0.6407  0.2269
11590TIP3   OH256260   4.014   1.403  16.358 -0.1563  0.6707 -0.6953
11590TIP3    H156261   4.043   1.331  16.301 -2.2115 -0.4333 -0.4587
11590TIP3    H256262   4.031   1.482  16.306 -0.1345 -0.1712 -2.0407
11591TIP3   OH256263   3.842   0.161  11.946 -0.4559 -0.2119  0.2036
11591TIP3    H156264   3.772   0.194  11.890 -0.7107 -0.2866  0.4780
11591TIP3    H256265   3.841   0.066  11.933 -2.3467 -0.5789  2.3960
11592TIP3   OH256266   0.676   1.138  12.373 -0.4071  0.0525 -0.2304
11592TIP3    H156267   0.625   1.102  12.301 -1.7270  0.1792  0.6074
11592TIP3    H256268   0.755   1.172  12.332 -1.7592  1.4125 -1.8326
11593TIP3   OH256269   1.986   3.563  15.656 -0.2699  0.1151  0.1782
11593TIP3    H156270   2.018   3.650  15.677 -1.2244  0.3993  0.5411
11593TIP3    H256271   1.954   3.528  15.739 -2.3780  0.5188 -0.3787
11594TIP3   OH256272   4.207   0.940   3.319 -0.5890  0.3993 -0.0034
11594TIP3    H156273   4.123   0.921   3.278 -0.3719  0.2652 -0.3859
11594TIP3    H256274   4.250   0.855   3.327 -1.1240  0.2544  1.6022
11595TIP3   OH256275   5.361   5.189   4.026 -0.1929  0.7284  0.2611
11595TIP3    H156276   5.298   5.123   4.055  0.2964  0.3785  0.5333
11595TIP3    H256277   5.344   5.198   3.932 -1.6622  1.7339  0.5945
11596TIP3   OH256278   3.992   0.665  13.804  0.0068  0.5980 -0.4891
11596TIP3    H156279   4.000   0.755  13.834 -0.7289  0.6338 -0.3680
11596TIP3    H256280   3.947   0.671  13.720  0.5840  0.3854 -0.8202
11597TIP3   OH256281   5.135   0.174  16.426  0.2359 -0.0403 -0.8064
11597TIP3    H156282   5.193   0.182  16.502 -0.6656  2.2354 -0.2764
11597TIP3    H256283   5.081   0.253  16.429 -1.5956 -1.1533 -2.3635
11598TIP3   OH256284   1.269   2.874  17.006  0.3660  0.4751  0.2019
11598TIP3    H156285   1.283   2.922  17.088 -0.5389 -0.8653  1.1848
11598TIP3    H256286   1.183   2.834  17.016  0.6587 -0.5114 -0.9931
11599TIP3   OH256287   3.621   3.512  14.339 -0.4129  0.0325  0.1364
11599TIP3    H156288   3.614   3.552  14.252 -0.2198  0.9898  0.5507
11599TIP3    H256289   3.688   3.444  14.329 -1.0177 -0.4620 -0.6733
11600TIP3   OH256290   6.546   5.062  14.092  0.3892 -0.3268 -0.1577
11600TIP3    H156291   6.469   5.013  14.118  1.6503 -1.6585  1.3322
11600TIP3    H256292   6.606   4.996  14.057  1.5592  0.3461  0.5097
11601TIP3   OH256293   0.434   4.791  13.437  0.7699 -0.2982 -0.1139
11601TIP3    H156294   0.465   4.701  13.450 -0.3998 -0.7186 -0.0988
11601TIP3    H256295   0.343   4.781  13.408  1.0866  0.8360 -1.6421
11602TIP3   OH256296   4.157   0.458  15.966  0.2211 -0.1474 -0.1328
11602TIP3    H156297   4.090   0.391  15.959 -0.2892 -0.0939  2.7636
11602TIP3    H256298   4.214   0.444  15.891 -1.8192 -1.5449 -1.5202
11603TIP3   OH256299   3.749   0.039   4.671 -0.8910 -0.6408  0.1379
11603TIP3    H156300   3.748   0.029   4.766 -1.3347  1.8313  0.4516
11603TIP3    H256301   3.723  -0.047   4.638  0.5702 -1.9482  2.1651
11604TIP3   OH256302   5.102   3.461   1.853  0.2698  0.1481 -0.1784
11604TIP3    H156303   5.123   3.555   1.850 -2.0964  0.8513  1.5263
11604TIP3    H256304   5.092   3.443   1.947 -1.8057 -1.1554 -0.6048
11605TIP3   OH256305   5.972   0.745  14.254  0.3433 -0.9695 -0.1586
11605TIP3    H156306   6.001   0.799  14.327  1.0914  2.4049 -2.6658
11605TIP3    H256307   5.883   0.719  14.277  0.7708 -0.6111  2.1515
11606TIP3   OH256308   6.406   6.418  15.705  0.2906 -0.2029 -0.0950
11606TIP3    H156309   6.406   6.397  15.611 -0.6256 -0.0305 -0.1463
11606TIP3    H256310   6.400   6.514  15.708  2.1166 -0.0732  0.1437
11607TIP3   OH256311   5.281   3.828   1.626 -0.1778  0.3923  0.5847
11607TIP3    H156312   5.316   3.806   1.539 -0.8057  3.1686 -0.4702
11607TIP3    H256313   5.298   3.921   1.636 -2.8584  0.8214  2.1114
11608TIP3   OH256314   2.955   6.007  13.724 -0.2929  0.2912  0.0403
11608TIP3    H156315   2.978   6.041  13.811  0.1546  0.2358 -0.0549
11608TIP3    H256316   2.885   5.945  13.740 -1.3955  1.5244  0.1846
11609TIP3   OH256317   6.258   0.997  11.633 -0.7474 -0.1803  0.4900
11609TIP3    H156318   6.190   0.988  11.699 -1.7394 -0.3529 -0.5410
11609TIP3    H256319   6.331   1.038  11.680 -1.7829  0.6183  1.4637
11610TIP3   OH256320   2.841   5.677  15.849  0.1919 -0.5078  0.1707
11610TIP3    H156321   2.830   5.590  15.811  0.3729 -0.0343 -1.0195
11610TIP3    H256322   2.904   5.665  15.920  0.7537 -1.2341 -0.4367
11611TIP3   OH256323   2.521   0.171   0.744  0.3780  0.4006  0.3571
11611TIP3    H156324   2.595   0.214   0.701  0.8823 -0.4391  0.3763
11611TIP3    H256325   2.547   0.080   0.753 -0.3713  0.2370  1.0151
11612TIP3   OH256326   5.964   5.972   2.252  0.2705  0.8227 -0.0612
11612TIP3    H156327   5.937   5.881   2.239  1.8348  0.2345  0.6344
11612TIP3    H256328   5.885   6.023   2.233 -0.7153 -0.6883 -0.1789
11613TIP3   OH256329   6.724   3.286   4.828  0.2483 -0.1806 -0.3636
11613TIP3    H156330   6.646   3.251   4.873 -1.1249  1.1821 -1.5645
11613TIP3    H256331   6.714   3.258   4.737  2.1539 -1.5177 -0.2120
11614TIP3   OH256332   0.891   5.606   4.126 -0.2087  0.5901  0.0155
11614TIP3    H156333   0.972   5.575   4.087 -0.6947  0.1616 -0.6739
11614TIP3    H256334   0.910   5.696   4.153  0.2134  0.8015 -0.9632
11615TIP3   OH256335   5.897   3.326  13.971 -0.6468 -0.2043 -0.4728
11615TIP3    H156336   5.964   3.371  13.919  0.4331 -0.2954  0.8082
11615TIP3    H256337   5.936   3.315  14.057 -1.5603 -2.0660 -0.2557
11616TIP3   OH256338   5.729   2.740  16.847  0.2795 -0.0201  0.3933
11616TIP3    H156339   5.691   2.679  16.911  0.9681 -0.4639  0.3837
11616TIP3    H256340   5.751   2.817  16.899 -1.0371  0.4251  0.3225
11617TIP3   OH256341   5.151   5.173   2.836  0.0114 -0.0346  0.0231
11617TIP3    H156342   5.144   5.222   2.754  0.0148 -1.3837 -0.8219
11617TIP3    H256343   5.061   5.163   2.866 -0.0732 -0.3316 -0.3182
11618TIP3   OH256344   2.557   5.389  12.033  0.2581  0.1178  0.4106
11618TIP3    H156345   2.540   5.327  12.103  0.9700  1.3106  1.7042
11618TIP3    H256346   2.475   5.393  11.983  0.0145 -1.3739  0.6553
11619TIP3   OH256347   5.351   2.456   5.254  0.1867  0.2544  0.3719
11619TIP3    H156348   5.402   2.521   5.206 -0.7208 -0.4805 -1.6832
11619TIP3    H256349   5.327   2.391   5.188 -0.0057 -1.5203  2.0985
11620TIP3   OH256350   0.545   4.284  14.619  0.0465 -0.3171 -0.0852
11620TIP3    H156351   0.578   4.221  14.683  0.9328  0.0946 -0.1302
11620TIP3    H256352   0.500   4.351  14.671 -0.9432 -0.9905 -0.0397
11621TIP3   OH256353   6.812   5.788   4.362  0.3455  0.3853  0.1470
11621TIP3    H156354   6.826   5.726   4.291 -0.2464  0.3161  0.0841
11621TIP3    H256355   6.728   5.829   4.341  0.9044  1.4938 -0.0272
11622TIP3   OH256356   2.885   6.045  11.651  0.0618 -0.2654  0.1930
11622TIP3    H156357   2.938   6.066  11.574  0.4021  0.0614  0.5075
11622TIP3    H256358   2.949   6.034  11.721 -0.3239  1.0420  0.7844
11623TIP3   OH256359   2.696   0.490  14.745  0.0495 -0.0645  0.0556
11623TIP3    H156360   2.651   0.465  14.664 -0.8059  1.9577 -0.1263
11623TIP3    H256361   2.766   0.548  14.716 -0.0585  0.4110  0.7472
11624TIP3   OH256362   6.678   5.024  12.514  0.5526 -0.4902 -0.1660
11624TIP3    H156363   6.675   5.098  12.575 -1.3422  0.5281 -1.3957
11624TIP3    H256364   6.771   5.006  12.503  1.2451  2.9682 -1.2197
11625TIP3   OH256365   4.353   4.050   5.503 -0.3605 -0.2455  0.7390
11625TIP3    H156366   4.385   3.966   5.470  0.0990  0.4898 -0.7480
11625TIP3    H256367   4.288   4.078   5.439  0.1066  0.9342  0.7574
11626TIP3   OH256368   3.486   2.656   4.138  0.0837 -0.3805  0.7377
11626TIP3    H156369   3.474   2.567   4.106 -1.6453 -0.1506  0.6526
11626TIP3    H256370   3.570   2.654   4.183  0.0502 -2.0653  0.7859
11627TIP3   OH256371   3.704   1.720  12.768 -0.3453 -0.0803  0.5628
11627TIP3    H156372   3.646   1.697  12.695 -0.6943  1.0700  0.4666
11627TIP3    H256373   3.745   1.802  12.741  1.6575 -1.0599  0.4489
11628TIP3   OH256374   3.767   5.887  12.498  0.3192  0.0048  0.4727
11628TIP3    H156375   3.861   5.897  12.487  0.3558 -1.5088 -1.0025
11628TIP3    H256376   3.757   5.841  12.582  0.8444  0.4368  0.7809
11629TIP3   OH256377   0.195   2.529  11.743  0.3858 -0.4505 -0.4234
11629TIP3    H156378   0.198   2.625  11.740  2.3657 -0.4892 -1.1788
11629TIP3    H256379   0.269   2.505  11.798 -1.1848 -1.5567  1.3354
11630TIP3   OH256380   5.411   5.090   0.412 -0.4414  0.4857 -0.6674
11630TIP3    H156381   5.428   5.127   0.499 -1.2013 -2.6586  0.9915
11630TIP3    H256382   5.495   5.055   0.383 -0.3646  0.7753 -0.7934
11631TIP3   OH256383   2.223   5.086   5.076  0.5512  0.2398 -0.0348
11631TIP3    H156384   2.189   5.093   4.986  0.1849  1.4395  0.1835
11631TIP3    H256385   2.318   5.091   5.066  0.4693  1.9220 -0.2509
11632TIP3   OH256386   1.924   1.122   1.716 -0.0403 -0.0820 -0.2196
11632TIP3    H156387   1.872   1.084   1.645  0.0065 -1.8109  0.6211
11632TIP3    H256388   2.012   1.128   1.680  0.0060 -1.0516 -0.3027
11633TIP3   OH256389   1.347   5.470  15.158 -0.5577 -0.1977  0.2929
11633TIP3    H156390   1.331   5.520  15.078 -0.2621 -1.1585 -0.3789
11633TIP3    H256391   1.442   5.453  15.158 -0.6872 -0.9728  0.3770
11634TIP3   OH256392   3.528   4.109  11.929 -0.6530  0.9124  0.5046
11634TIP3    H156393   3.592   4.146  11.989 -1.9822  0.6927  2.1460
11634TIP3    H256394   3.478   4.185  11.897  0.2250  1.0588 -0.5958
11635TIP3   OH256395   6.491   1.492   0.580 -0.5143 -0.3280  0.2270
11635TIP3    H156396   6.440   1.513   0.659  0.7693  1.2367  0.7034
11635TIP3    H256397   6.547   1.419   0.607 -1.1689 -0.8318  0.2596
11636TIP3   OH256398   5.599   0.200   0.185  0.4038  0.4691  0.1845
11636TIP3    H156399   5.597   0.268   0.118  1.0595  0.2770 -0.0438
11636TIP3    H256400   5.642   0.125   0.142  1.2819  0.5089  0.9573
11637TIP3   OH256401   2.858   0.544  11.811 -0.1509  0.5463 -0.1999
11637TIP3    H156402   2.929   0.490  11.774 -0.7179 -0.4274  0.0977
11637TIP3    H256403   2.778   0.503  11.778 -0.6487  0.1717  1.4042
11638TIP3   OH256404   0.480   4.787   4.798 -0.0596 -0.7088  0.2830
11638TIP3    H156405   0.393   4.824   4.780  0.4236  0.2323 -0.2529
11638TIP3    H256406   0.529   4.860   4.836  0.5229 -1.2006  0.4826
11639TIP3   OH256407   1.240   0.020  13.852 -0.1218 -0.3649 -0.0645
11639TIP3    H156408   1.327   0.058  13.857  0.6627 -1.7258 -2.1773
11639TIP3    H256409   1.233  -0.037  13.929  1.2020 -0.9468 -0.3667
11640TIP3   OH256410   5.007   2.506   0.325  0.1329 -0.2778 -0.0291
11640TIP3    H156411   4.913   2.491   0.335  0.1018 -0.7551 -1.0022
11640TIP3    H256412   5.013   2.579   0.263  0.4139 -0.1665  0.1239
11641TIP3   OH256413   5.181   3.793  14.885  0.1196 -0.2707 -0.4778
11641TIP3    H156414   5.168   3.699  14.893 -0.1261 -0.2418 -0.5293
11641TIP3    H256415   5.244   3.815  14.954  0.4358 -0.5242 -0.6862
11642TIP3   OH256416   6.017   1.820   1.405 -0.1179 -0.1055 -0.4209
11642TIP3    H156417   6.078   1.882   1.364 -0.3867  1.2085  1.0727
11642TIP3    H256418   5.930   1.855   1.385 -0.2809 -0.1229  0.2248
11643TIP3   OH256419   6.807   4.809  16.466 -0.1202  0.2692  0.2146
11643TIP3    H156420   6.714   4.823  16.451  0.3324  0.7012 -3.0605
11643TIP3    H256421   6.829   4.866  16.539 -2.6284 -0.9535  2.0538
11644TIP3   OH256422   5.572   4.551   1.579  0.2696  0.4329 -0.1850
11644TIP3    H156423   5.611   4.475   1.536 -0.1612  0.1852 -0.1391
11644TIP3    H256424   5.505   4.582   1.518 -1.5152 -0.9279  0.9941
11645TIP3   OH256425   3.542   5.904  16.981  0.7322 -0.0949 -0.3249
11645TIP3    H156426   3.492   5.876  17.058 -0.7482  2.2199 -0.3449
11645TIP3    H256427   3.577   5.823  16.944 -1.8131 -1.7112  0.5472
11646TIP3   OH256428   0.903   2.827   1.120  0.0392 -0.6107 -0.1051
11646TIP3    H156429   0.911   2.888   1.193 -0.2076 -0.9080  0.1713
11646TIP3    H256430   0.810   2.805   1.116 -0.1029  0.0563 -1.0473
11647TIP3   OH256431   3.337   3.891  13.883 -0.3408  0.0801  0.7664
11647TIP3    H156432   3.354   3.851  13.969 -0.0599 -1.4048  0.0561
11647TIP3    H256433   3.268   3.837  13.845  1.1026 -0.7310 -0.8478
11648TIP3   OH256434   0.490   4.269  12.760  0.2078  0.0000 -0.1794
11648TIP3    H156435   0.441   4.222  12.692  3.2006 -0.8009 -1.9368
11648TIP3    H256436   0.459   4.231  12.842  0.2332 -2.8556 -1.3745
11649TIP3   OH256437   2.682   2.931   0.508 -0.3672  0.6651 -0.2457
11649TIP3    H156438   2.708   2.841   0.528 -3.4964 -0.2467  0.3269
11649TIP3    H256439   2.682   2.935   0.413  0.1910  0.1874 -0.2712
11650TIP3   OH256440   4.992   4.225  13.380  0.2002 -0.4342  0.1885
11650TIP3    H156441   5.086   4.224  13.397  0.2324  0.0007  0.0474
11650TIP3    H256442   4.985   4.255  13.289 -0.1179  0.4826  0.5078
11651TIP3   OH256443   4.917   3.009  14.567  0.0677  0.2686 -0.1962
11651TIP3    H156444   4.887   2.939  14.509 -2.5003  1.5953 -0.6070
11651TIP3    H256445   4.936   3.082  14.509  1.6921  0.2986  0.3222
11652TIP3   OH256446   2.063   2.493  12.955  0.7295  0.2101 -0.4041
11652TIP3    H156447   2.072   2.580  12.994  0.9502 -0.1602  0.3792
11652TIP3    H256448   2.001   2.505  12.883 -0.9904  0.5529  1.0970
11653TIP3   OH256449   0.180   6.081   2.069  0.1460  0.3154 -0.1487
11653TIP3    H156450   0.183   6.124   2.154 -0.6499  1.3605 -0.6289
11653TIP3    H256451   0.270   6.081   2.038  1.0291 -2.8117  1.9705
11654TIP3   OH256452   6.422   3.480  13.491 -0.1983 -0.4945  0.3387
11654TIP3    H156453   6.385   3.396  13.518  0.7726 -1.0300  0.0766
11654TIP3    H256454   6.357   3.545  13.518 -0.9721 -1.3242  0.5431
11655TIP3   OH256455   0.817   5.230   6.207 -0.0137 -0.2255 -0.2400
11655TIP3    H156456   0.803   5.216   6.301 -1.0071  0.2620 -0.3034
11655TIP3    H256457   0.730   5.250   6.173  0.2254 -1.0603 -1.3852
11656TIP3   OH256458   1.161   0.167   6.253  0.0025 -0.1835 -0.2626
11656TIP3    H156459   1.080   0.219   6.257 -0.9427 -1.5139 -1.1465
11656TIP3    H256460   1.155   0.108   6.328  0.9245  0.7482  0.5621
11657TIP3   OH256461   4.038   4.356  11.276 -0.1108  0.2434 -0.2088
11657TIP3    H156462   4.057   4.263  11.271 -0.0350  0.2918 -1.0021
11657TIP3    H256463   4.020   4.372  11.369  2.9289  0.0269  0.5535
11658TIP3   OH256464   4.528   6.474   2.897 -0.2537  0.2056 -0.1143
11658TIP3    H156465   4.497   6.477   2.987  0.7267  0.1930  0.2431
11658TIP3    H256466   4.617   6.438   2.904 -0.7457 -1.3340 -1.2378
11659TIP3   OH256467   2.936   6.333  17.162  0.6795  0.0819 -0.5902
11659TIP3    H156468   2.862   6.392  17.146  0.2783 -0.6082 -1.3082
11659TIP3    H256469   2.899   6.260  17.212  0.9686 -0.0579 -0.5771
11660TIP3   OH256470   0.362   2.650  15.368  0.6053  0.4763 -0.2753
11660TIP3    H156471   0.392   2.567  15.405 -1.3067 -0.5181 -0.8362
11660TIP3    H256472   0.362   2.636  15.273 -0.0197  1.0025 -0.3644
11661TIP3   OH256473   6.331   4.729  14.662 -0.3825  0.1364  0.0662
11661TIP3    H156474   6.252   4.685  14.691 -0.7898  0.9922  0.2791
11661TIP3    H256475   6.318   4.743  14.568  1.0376 -2.8456 -0.6741
11662TIP3   OH256476   5.383   6.628  16.958 -0.1591  0.4013  0.4824
11662TIP3    H156477   5.448   6.594  17.020  0.1493 -0.0137 -0.0541
11662TIP3    H256478   5.431   6.692  16.906 -0.7223  1.6259  1.4340
11663TIP3   OH256479   6.230   4.888   4.912 -0.1052  0.0790  0.3678
11663TIP3    H156480   6.317   4.905   4.876 -0.3073  1.1656  0.3529
11663TIP3    H256481   6.174   4.953   4.870 -0.8230 -0.2694  0.7722
11664TIP3   OH256482   1.819   2.707  14.959  0.2936  0.0800  0.0688
11664TIP3    H156483   1.764   2.710  14.881 -0.3157  0.1873  0.4930
11664TIP3    H256484   1.830   2.799  14.983  1.1984  0.0956 -0.3814
11665TIP3   OH256485   5.847   5.912   1.905  0.2279  0.0185 -0.1287
11665TIP3    H156486   5.911   5.960   1.854  0.8464 -0.4418  0.2032
11665TIP3    H256487   5.888   5.828   1.923 -1.0532 -0.8866 -1.1870
11666TIP3   OH256488   5.023   4.774   2.300  0.4029 -0.0624  0.0671
11666TIP3    H156489   4.988   4.820   2.224  0.3937 -0.2724 -0.0542
11666TIP3    H256490   4.947   4.763   2.358  0.7053  1.4977  0.8179
11667TIP3   OH256491   5.048   3.369  13.829 -0.3395 -0.0334  0.4046
11667TIP3    H156492   4.983   3.323  13.882 -1.6341 -1.2089 -2.0568
11667TIP3    H256493   5.051   3.457  13.867 -1.4452 -0.6894  2.1664
11668TIP3   OH256494   1.052   3.871   5.196  0.1827 -0.1163  0.0882
11668TIP3    H156495   0.995   3.821   5.255 -1.8455  0.4804 -1.2574
11668TIP3    H256496   1.136   3.875   5.242 -0.2353 -2.7504  1.2715
11669TIP3   OH256497   2.589   0.530   3.545  0.6365 -0.0537 -0.5111
11669TIP3    H156498   2.643   0.559   3.618  0.3000  1.6358 -0.8857
11669TIP3    H256499   2.645   0.538   3.468  0.5189 -0.3494 -0.6284
11670TIP3   OH256500   0.541   0.366  15.696  0.3937  0.7377 -0.1482
11670TIP3    H156501   0.569   0.372  15.787  0.4119 -1.4345  0.0453
11670TIP3    H256502   0.610   0.316  15.653 -1.0896 -1.0614 -0.5941
11671TIP3   OH256503   4.397   0.845  13.306 -0.1346  0.3484 -0.8395
11671TIP3    H156504   4.392   0.933  13.269  1.0069  0.1648 -1.4519
11671TIP3    H256505   4.490   0.824  13.307 -0.0816  0.3317  2.1431
11672TIP3   OH256506   6.247   1.632   3.570  0.5382 -0.1271  0.0211
11672TIP3    H156507   6.219   1.573   3.639  0.3749 -1.2582 -0.9778
11672TIP3    H256508   6.185   1.617   3.498  1.7467 -0.3052 -1.0268
11673TIP3   OH256509   2.432   3.197   2.188 -0.0465  0.2233  0.0311
11673TIP3    H156510   2.522   3.171   2.211  0.2789  1.4537  0.1891
11673TIP3    H256511   2.384   3.194   2.270 -0.0799 -0.1368  0.0001
11674TIP3   OH256512   0.696   0.136  15.813 -0.0792 -0.0210  0.1414
11674TIP3    H156513   0.699   0.125  15.718 -0.9694  1.1418 -0.0489
11674TIP3    H256514   0.666   0.051  15.846  0.4034 -0.4845 -0.6009
11675TIP3   OH256515   6.267   1.279   1.324  0.0701 -0.2804  0.1149
11675TIP3    H156516   6.222   1.255   1.243 -0.8297 -0.5494  0.6787
11675TIP3    H256517   6.239   1.213   1.388  0.8812 -0.1576  0.6095
11676TIP3   OH256518   6.302   1.603   5.299 -0.3969  0.3680  0.1836
11676TIP3    H156519   6.251   1.536   5.345 -0.5841 -0.2104 -0.8377
11676TIP3    H256520   6.375   1.555   5.260 -0.7387  0.6830 -0.8671
11677TIP3   OH256521   3.704   2.616   2.156  0.1563 -0.3976 -0.1227
11677TIP3    H156522   3.635   2.559   2.190  1.3357 -0.6195  2.0256
11677TIP3    H256523   3.683   2.702   2.193  0.4791 -0.2550 -0.2714
11678TIP3   OH256524   1.856   3.893  13.832  0.5956 -0.2214 -0.2722
11678TIP3    H156525   1.900   3.809  13.835 -0.5041 -0.7746  1.5134
11678TIP3    H256526   1.850   3.913  13.738  0.7836 -2.1697 -0.7410
11679TIP3   OH256527   3.567   6.108  13.534  0.3710 -0.2904  0.0424
11679TIP3    H156528   3.660   6.132  13.540 -0.0689  1.3323  1.0829
11679TIP3    H256529   3.565   6.015  13.553  1.7724 -0.3025  0.2406
11680TIP3   OH256530   5.879   5.660  15.470  0.1868 -0.0604 -0.4678
11680TIP3    H156531   5.856   5.579  15.423 -1.1741 -0.7811  1.2932
11680TIP3    H256532   5.905   5.630  15.557 -0.5430  1.3909  0.2905
11681TIP3   OH256533   2.858   1.943  14.315 -0.4122  0.1007 -0.5093
11681TIP3    H156534   2.906   2.017  14.278 -3.7219  3.4985  1.2529
11681TIP3    H256535   2.900   1.925  14.399  0.1127  0.3139 -0.7268
11682TIP3   OH256536   4.962   0.203  12.260  0.2047  0.0837  0.4402
11682TIP3    H156537   5.037   0.261  12.245  0.8316 -0.7420  0.3296
11682TIP3    H256538   4.924   0.235  12.342 -0.5646  1.7906 -0.5472
11683TIP3   OH256539   3.625   1.779   1.764  0.3375  0.6347 -0.1295
11683TIP3    H156540   3.677   1.709   1.805 -0.5708 -1.6667 -2.5928
11683TIP3    H256541   3.677   1.858   1.777  0.9437 -0.1959  3.6901
11684TIP3   OH256542   2.270   3.858   1.004 -0.2063 -0.2154  0.5760
11684TIP3    H156543   2.316   3.853   1.088  1.6589  0.2686 -0.3541
11684TIP3    H256544   2.220   3.939   1.008 -0.4572 -0.4068  1.3719
11685TIP3   OH256545   4.646   3.261   4.478  0.4921  0.3432  0.0591
11685TIP3    H156546   4.687   3.302   4.402 -0.0567  0.4467 -0.1845
11685TIP3    H256547   4.593   3.190   4.441  0.3371  0.3021  0.3570
11686TIP3   OH256548   6.033   1.320  15.767 -0.1024 -0.1136 -0.2887
11686TIP3    H156549   6.014   1.379  15.695  2.3993  1.0721 -0.0962
11686TIP3    H256550   6.129   1.321  15.775  0.0618 -3.6898  0.1707
11687TIP3   OH256551   0.297   3.322   2.471 -0.0591 -0.4735  0.0902
11687TIP3    H156552   0.291   3.396   2.531 -0.5598  0.7595 -1.4101
11687TIP3    H256553   0.205   3.300   2.451  0.0897 -1.2963  0.2872
11688TIP3   OH256554   1.302   1.428   4.467  0.4012 -1.0405  0.4633
11688TIP3    H156555   1.357   1.358   4.430  0.3714 -1.2427  0.7933
11688TIP3    H256556   1.228   1.435   4.406  0.5240 -1.1351  0.3029
11689TIP3   OH256557   3.138   6.147  11.012  0.0882  0.3475  0.2573
11689TIP3    H156558   3.189   6.198  11.075  0.8294 -0.5869  0.4387
11689TIP3    H256559   3.131   6.204  10.935  1.7493  0.3781  0.0816
11690TIP3   OH256560   2.008   0.809   1.914  0.5130  0.6352 -0.0467
11690TIP3    H156561   2.036   0.753   1.987  1.9959  0.3032 -0.8448
11690TIP3    H256562   1.991   0.748   1.842 -1.0425  0.9558  0.0117
11691TIP3   OH256563   2.817   0.039   3.284 -0.0756 -0.5988 -0.9245
11691TIP3    H156564   2.784   0.001   3.365  1.7357 -2.0059 -0.7621
11691TIP3    H256565   2.858   0.121   3.310 -0.3670 -0.5704 -0.5673
11692TIP3   OH256566   4.334   0.826  11.904  0.1209 -0.0434  0.2468
11692TIP3    H156567   4.409   0.766  11.909 -0.6024 -0.8714  1.5015
11692TIP3    H256568   4.320   0.838  11.810  1.2643 -0.5760 -0.0148
11693TIP3   OH256569   3.293   6.497   1.277 -0.0228 -0.0787 -0.4134
11693TIP3    H156570   3.355   6.569   1.282  0.5377 -0.5992  0.6131
11693TIP3    H256571   3.208   6.539   1.269  0.3375  0.6752 -0.4030
11694TIP3   OH256572   4.707   1.677  15.852  0.3703 -0.6151  0.7073
11694TIP3    H156573   4.690   1.757  15.902  0.9331  0.1584 -0.3193
11694TIP3    H256574   4.698   1.607  15.917 -0.7173  0.2165  1.5008
11695TIP3   OH256575   3.211   0.727  15.781  0.2046  0.1154 -0.1809
11695TIP3    H156576   3.267   0.800  15.807  0.2364  0.0995 -0.2050
11695TIP3    H256577   3.136   0.768  15.738 -1.0955  0.3296  2.1021
11696TIP3   OH256578   6.649   0.518   1.178  0.4083  0.0200 -0.8426
11696TIP3    H156579   6.596   0.485   1.105  1.6431 -0.5384 -1.5178
11696TIP3    H256580   6.667   0.440   1.231  0.7649  0.1591 -0.7588
11697TIP3   OH256581   6.766   0.334  13.261 -0.2092  0.7558  0.0208
11697TIP3    H156582   6.842   0.312  13.207 -0.3827  1.2696 -0.4467
11697TIP3    H256583   6.792   0.312  13.350  1.1033  2.4424  0.0912
11698TIP3   OH256584   2.632   2.142   0.320 -0.1336  0.4710 -0.4942
11698TIP3    H156585   2.624   2.047   0.314 -0.6171  0.5744 -1.6612
11698TIP3    H256586   2.726   2.159   0.323  0.0521  0.0722 -2.7384
11699TIP3   OH256587   6.077   3.082   0.566  0.4628  0.2805  0.1071
11699TIP3    H156588   6.140   3.038   0.509  0.0459 -0.8794  0.5134
11699TIP3    H256589   6.076   3.173   0.535  0.5518 -0.2204 -1.4411
11700TIP3   OH256590   0.728   5.935   1.686  0.2313 -0.2335  0.1893
11700TIP3    H156591   0.758   5.891   1.607  2.4605  2.1985 -0.4912
11700TIP3    H256592   0.642   5.970   1.663 -0.6597 -2.3694  0.0759
11701TIP3   OH256593   4.283   0.561  16.751  0.3407 -0.0041 -0.4804
11701TIP3    H156594   4.229   0.520  16.684 -0.8210 -1.8485  1.4688
11701TIP3    H256595   4.337   0.491  16.786  0.9208  0.9045  0.5183
11702TIP3   OH256596   6.698   3.343  13.322  0.2303  0.4526  0.2549
11702TIP3    H156597   6.622   3.352  13.265 -1.9109 -4.4025  1.8441
11702TIP3    H256598   6.766   3.306  13.265  0.6631  2.3561 -0.5651
11703TIP3   OH256599   2.168   2.487   3.542 -0.2850 -0.5037 -0.3702
11703TIP3    H156600   2.233   2.554   3.520  0.0441 -0.7074 -0.0292
11703TIP3    H256601   2.087   2.517   3.499 -0.0600 -0.0605 -0.4922
11704TIP3   OH256602   4.470   2.168  17.088  0.0145  0.1862 -0.0890
11704TIP3    H156603   4.405   2.121  17.036 -0.5078 -1.2881  1.7923
11704TIP3    H256604   4.425   2.246  17.120 -0.5864 -0.4036  0.5253
11705TIP3   OH256605   2.328   6.739   1.939  0.1156  0.2837  0.1431
11705TIP3    H156606   2.401   6.793   1.909  1.2077 -0.4803  1.3159
11705TIP3    H256607   2.250   6.790   1.917  0.9687  1.0519 -1.2891
11706TIP3   OH256608   2.493   4.341   4.484 -0.0485  0.0160  0.3174
11706TIP3    H156609   2.450   4.257   4.468  1.3278 -0.6083 -0.2807
11706TIP3    H256610   2.528   4.367   4.398  0.4979  0.6380  0.7168
11707TIP3   OH256611   4.281   1.294   3.371 -0.4621 -0.2310 -0.1371
11707TIP3    H156612   4.324   1.210   3.383  0.5185  0.3642  0.6636
11707TIP3    H256613   4.300   1.319   3.281 -0.9281 -0.9443 -0.4422
11708TIP3   OH256614   4.508   5.880   1.020  0.2908 -0.1542 -0.1340
11708TIP3    H156615   4.509   5.976   1.021  0.3039 -0.1556  0.7126
11708TIP3    H256616   4.529   5.857   0.929  1.4595  0.6306 -0.0866
11709TIP3   OH256617   1.382   2.413   2.560  0.0032 -0.1037 -0.3286
11709TIP3    H156618   1.310   2.350   2.556  1.2098 -1.4725 -2.1960
11709TIP3    H256619   1.456   2.363   2.594  1.5219 -0.4189 -3.6718
11710TIP3   OH256620   0.014   2.626   1.530 -0.1766  0.7152  0.3133
11710TIP3    H156621  -0.026   2.614   1.616  1.0887 -0.8920  0.7360
11710TIP3    H256622   0.066   2.706   1.539 -1.8804  1.8694  0.2778
11711TIP3   OH256623   4.394   0.673  14.415  0.0454  0.5028  0.4500
11711TIP3    H156624   4.377   0.661  14.509 -1.6748 -0.3840  0.0493
11711TIP3    H256625   4.439   0.593  14.389  2.3760  1.5745  0.8684
11712TIP3   OH256626   6.365   2.378  13.388 -0.1974 -0.7257  0.2482
11712TIP3    H156627   6.384   2.340  13.474 -1.8582 -0.6765  0.6551
11712TIP3    H256628   6.305   2.450  13.406  2.3829  1.8412 -0.5659
11713TIP3   OH256629   0.261   6.003   2.762 -0.4797 -0.0371 -0.2254
11713TIP3    H156630   0.305   5.931   2.715  0.2284 -0.2893  0.7952
11713TIP3    H256631   0.332   6.047   2.809 -1.2772 -0.3337  1.3112
11714TIP3   OH256632   5.617   2.047  17.014  0.2136 -0.0914 -0.6450
11714TIP3    H156633   5.604   1.964  17.058  1.4662  0.0278 -0.0071
11714TIP3    H256634   5.572   2.111  17.070  2.4206  0.1683  0.9357
11715TIP3   OH256635   0.207   5.448  15.008  0.4481 -0.9268  0.2512
11715TIP3    H156636   0.120   5.482  14.989  1.2694  1.8426  1.0035
11715TIP3    H256637   0.202   5.418  15.099  0.7720  1.1839  1.0021
11716TIP3   OH256638   1.764   3.521   1.946 -0.2090  0.0353  0.5344
11716TIP3    H156639   1.691   3.539   1.887  0.0427  0.0715  0.2343
11716TIP3    H256640   1.834   3.488   1.890 -0.7460 -2.1886  1.0783
11717TIP3   OH256641   2.567   4.662   4.881 -0.0227  0.3129 -0.4545
11717TIP3    H156642   2.612   4.698   4.957  0.5657  1.1861 -1.2035
11717TIP3    H256643   2.621   4.686   4.806  0.1611 -1.7383 -1.0568
11718TIP3   OH256644   3.180   1.796   2.512  0.0930  0.4248  0.0945
11718TIP3    H156645   3.088   1.786   2.533  0.3738  0.2310  1.3049
11718TIP3    H256646   3.187   1.770   2.420 -0.7498 -1.4234  0.5079
11719TIP3   OH256647   4.375   0.283   0.010  0.3714 -0.1708  0.2694
11719TIP3    H156648   4.391   0.202   0.058  1.1571 -0.7728 -0.9603
11719TIP3    H256649   4.437   0.346   0.047  2.2199 -1.1179 -1.0958
11720TIP3   OH256650   3.088   5.210   3.840  1.1505 -0.5035  0.0873
11720TIP3    H156651   3.143   5.238   3.767  2.2715 -0.6233  0.8712
11720TIP3    H256652   3.042   5.290   3.867 -0.3914 -0.7232 -1.6244
11721TIP3   OH256653   1.709   2.717   2.763 -0.3830 -0.4045 -0.0861
11721TIP3    H156654   1.705   2.754   2.675 -0.9053  2.2788  0.9623
11721TIP3    H256655   1.627   2.671   2.774 -1.3290  1.1515 -0.2948
11722TIP3   OH256656   6.672   2.148  17.030  0.0070 -0.3338  0.2233
11722TIP3    H156657   6.724   2.088  17.085  2.2220  1.9296  0.7545
11722TIP3    H256658   6.635   2.211  17.092  1.8854  1.7888 -0.7302
11723TIP3   OH256659   4.307   0.147  11.339  0.0146 -0.3964 -0.5101
11723TIP3    H156660   4.263   0.226  11.371  0.2027 -0.8358  0.9128
11723TIP3    H256661   4.308   0.088  11.414  1.7054 -0.9815 -0.9377
11724TIP3   OH256662   5.220   3.640  12.212  0.1131  0.1080 -0.0972
11724TIP3    H156663   5.197   3.692  12.289  1.3073 -2.0611  1.8698
11724TIP3    H256664   5.166   3.562  12.219 -0.3580  0.2098 -1.9970
11725TIP3   OH256665   4.816   1.794  13.383  0.2610 -0.1699 -0.4974
11725TIP3    H156666   4.911   1.807  13.372  0.6946 -1.7834  0.8882
11725TIP3    H256667   4.801   1.806  13.476 -1.2552  1.7886 -0.9358
11726TIP3   OH256668   2.664   1.712  15.490 -0.2094 -0.2554  0.4883
11726TIP3    H156669   2.750   1.745  15.516 -1.1741  2.3209  0.7085
11726TIP3    H256670   2.672   1.695  15.396  0.6158 -0.3610  0.5665
11727TIP3   OH256671   5.440   0.147  11.560 -0.1835  0.0537 -0.4181
11727TIP3    H156672   5.482   0.114  11.639  0.0254 -0.0884 -0.5847
11727TIP3    H256673   5.503   0.127  11.490 -0.2510  0.4077 -0.5814
11728TIP3   OH256674   0.684   4.782   4.521  0.3433  0.4197  0.6434
11728TIP3    H156675   0.620   4.758   4.454  0.7942  0.0251  0.3485
11728TIP3    H256676   0.632   4.814   4.594 -0.1726  0.4571  0.2630
11729TIP3   OH256677   5.943   2.995  16.525 -0.7717  0.3427 -0.4735
11729TIP3    H156678   5.913   2.908  16.552  0.5244  0.0837  0.2585
11729TIP3    H256679   5.920   3.001  16.432 -1.2034 -0.6313 -0.4410
11730TIP3   OH256680   3.371   1.024   2.271 -0.2400 -0.3889  0.0949
11730TIP3    H156681   3.289   0.976   2.281 -0.5538  0.0887 -0.1474
11730TIP3    H256682   3.439   0.957   2.279 -0.6745 -0.9099 -0.4914
11731TIP3   OH256683   5.391   6.531  12.329  0.2357  0.0370  0.0120
11731TIP3    H156684   5.425   6.620  12.319  0.3328 -0.0804 -0.7151
11731TIP3    H256685   5.314   6.542  12.385 -0.4015  0.7415 -0.9690
11732TIP3   OH256686   4.070   0.497  15.640 -0.3492  0.1624  0.5420
11732TIP3    H156687   4.120   0.571  15.604  1.2723  0.0405  2.3752
11732TIP3    H256688   4.026   0.534  15.716 -2.1087 -0.0551 -0.3345
11733TIP3   OH256689   4.757   0.623  14.236 -0.1736 -0.2548 -0.4594
11733TIP3    H156690   4.705   0.670  14.170 -0.6882 -1.5188 -0.9745
11733TIP3    H256691   4.695   0.567  14.280  0.5680 -1.0408 -0.3884
11734TIP3   OH256692   1.579   0.382  13.970 -0.0538 -0.2928  0.8607
11734TIP3    H156693   1.530   0.337  14.039  1.2131 -1.4231  1.0572
11734TIP3    H256694   1.658   0.413  14.013 -0.2666  0.9318  0.3910
11735TIP3   OH256695   0.267   1.824   0.520 -0.1128  0.5042 -0.4914
11735TIP3    H156696   0.266   1.789   0.431 -0.3795  1.2915 -0.8070
11735TIP3    H256697   0.203   1.772   0.568  0.1560 -0.0362 -0.7115
11736TIP3   OH256698   3.569   5.834   1.752  0.2925  0.9778 -0.6043
11736TIP3    H156699   3.535   5.764   1.696  1.8548 -0.0102 -0.3723
11736TIP3    H256700   3.498   5.853   1.813 -1.1868  1.5609 -2.3760
11737TIP3   OH256701   5.947   3.493  12.241  0.4492  0.1602 -0.4063
11737TIP3    H156702   6.007   3.421  12.259 -0.0041 -0.8025 -2.4284
11737TIP3    H256703   6.000   3.556  12.192  0.7020  0.9787  0.8884
11738TIP3   OH256704   1.285   1.894  11.664 -0.0411  0.5514  0.1761
11738TIP3    H156705   1.352   1.923  11.726 -0.9744  1.3574  0.8434
11738TIP3    H256706   1.240   1.822  11.709 -0.6353  1.0542  0.4210
11739TIP3   OH256707   4.526   2.248   4.133  0.0799  0.5830 -0.0734
11739TIP3    H156708   4.522   2.341   4.112 -2.0017  0.4409 -0.5583
11739TIP3    H256709   4.575   2.208   4.061 -0.2226  1.1357 -0.5920
11740TIP3   OH256710   6.304   4.001  16.816 -0.2572  0.0185  0.6039
11740TIP3    H156711   6.264   3.914  16.816 -1.1835  0.3879  2.2234
11740TIP3    H256712   6.385   3.990  16.867  0.2464 -0.1281 -0.2131
11741TIP3   OH256713   2.441   0.936  15.362 -0.4908 -0.2176 -0.0949
11741TIP3    H156714   2.430   1.020  15.317  0.7383  0.8007  1.3926
11741TIP3    H256715   2.399   0.948  15.447 -2.3425 -1.9421 -0.6912
11742TIP3   OH256716   6.237   3.223  14.458  0.4027 -0.2684 -0.0447
11742TIP3    H156717   6.169   3.158  14.443  0.9668 -0.4873 -1.8983
11742TIP3    H256718   6.189   3.301  14.487 -0.4385 -0.9940  0.5630
11743TIP3   OH256719   1.245   4.801  11.945  0.2838 -0.1637  0.0343
11743TIP3    H156720   1.283   4.751  12.017  0.2378 -2.6247 -1.5574
11743TIP3    H256721   1.315   4.861  11.919  1.2030 -0.9932  0.5236
11744TIP3   OH256722   3.517   1.807  14.764 -0.1561 -0.3304  0.0687
11744TIP3    H156723   3.443   1.755  14.730  1.3735 -2.5179 -0.1490
11744TIP3    H256724   3.581   1.806  14.692  1.1471 -0.7933  1.1982
11745TIP3   OH256725   1.762   2.604   6.247  0.0996  0.1696 -0.4037
11745TIP3    H156726   1.685   2.629   6.298 -0.3471 -0.7254 -0.6153
11745TIP3    H256727   1.836   2.623   6.304 -0.4202 -1.3855  0.8705
11746TIP3   OH256728   2.847   4.804  13.046  0.0784 -1.1275  0.3918
11746TIP3    H156729   2.910   4.790  12.975  0.9616  0.0858  0.9063
11746TIP3    H256730   2.900   4.799  13.126 -0.3655  0.3973  0.8076
11747TIP3   OH256731   4.148   2.412  14.490  0.0096  0.4339 -0.1054
11747TIP3    H156732   4.123   2.476  14.423 -1.1196 -0.5276 -0.6434
11747TIP3    H256733   4.176   2.335  14.440  1.5675  0.5432  0.5285
11748TIP3   OH256734   6.387   0.442   1.060 -0.2675  0.1982 -0.3029
11748TIP3    H156735   6.320   0.461   0.995  0.2930 -3.3271 -2.1722
11748TIP3    H256736   6.338   0.419   1.139 -1.0677  1.4368 -0.4139
11749TIP3   OH256737   2.218   2.244   1.875 -0.4627 -0.5982  0.4628
11749TIP3    H156738   2.215   2.340   1.867  1.4197 -0.5335  0.0843
11749TIP3    H256739   2.201   2.212   1.787  1.6333 -0.4966 -0.0096
11750TIP3   OH256740   3.787   0.803   2.715  0.8229  0.5729  0.5119
11750TIP3    H156741   3.866   0.835   2.759  0.0519  2.7137  0.4364
11750TIP3    H256742   3.739   0.882   2.690 -0.3448 -0.6247 -1.3233
11751TIP3   OH256743   5.557   3.182   0.910  0.2934 -0.1092 -0.4903
11751TIP3    H156744   5.586   3.268   0.882  2.0555 -0.1988  0.8390
11751TIP3    H256745   5.549   3.131   0.829 -2.2698  1.6336 -1.4568
11752TIP3   OH256746   2.471   1.158   4.081  0.0425 -0.1008 -0.5462
11752TIP3    H156747   2.485   1.157   4.176 -2.0741 -0.4126 -0.1837
11752TIP3    H256748   2.428   1.242   4.064 -3.7100 -1.7744 -0.4313
11753TIP3   OH256749   2.039   1.084   2.977 -0.0312  0.1269 -0.3255
11753TIP3    H156750   2.006   1.043   2.897 -3.3831  0.3725  0.7470
11753TIP3    H256751   1.974   1.152   2.996  2.0345  1.7690  1.2920
11754TIP3   OH256752   0.991   1.945  11.076 -0.0416  0.1253 -0.1633
11754TIP3    H156753   1.008   1.852  11.092  0.8234  0.2963 -0.0034
11754TIP3    H256754   1.060   1.971  11.014 -0.1142  0.7159  0.0008
11755TIP3   OH256755   0.507   3.906   0.357 -0.1644 -0.0173  0.0917
11755TIP3    H156756   0.531   3.998   0.359  0.2377  0.0474 -2.9191
11755TIP3    H256757   0.516   3.881   0.265 -2.5793 -2.4466  0.3775
11756TIP3   OH256758   3.595   6.395  11.557 -0.3381 -0.6152 -0.1885
11756TIP3    H156759   3.622   6.416  11.647 -2.9710 -1.4246  0.8783
11756TIP3    H256760   3.653   6.324  11.531  1.3817  0.5370  0.3018
11757TIP3   OH256761   5.879   2.165   6.231  0.2227  0.4013 -0.2750
11757TIP3    H156762   5.809   2.211   6.275 -0.2982 -2.4761  2.2444
11757TIP3    H256763   5.957   2.218   6.245 -0.7930  1.8415  0.0390
11758TIP3   OH256764   2.599   2.316   5.567 -0.1413 -0.0682 -0.3664
11758TIP3    H156765   2.593   2.229   5.607  0.0465 -0.3381 -0.9126
11758TIP3    H256766   2.644   2.301   5.484 -0.0123  0.5702 -0.4169
11759TIP3   OH256767   3.250   1.897   0.556  0.7135  0.1860  0.3945
11759TIP3    H156768   3.331   1.847   0.567  1.0150  0.7166  0.6211
11759TIP3    H256769   3.203   1.851   0.487  1.0057 -0.3848  0.5676
11760TIP3   OH256770   4.841   3.569  12.784 -0.4460 -0.0332 -0.2157
11760TIP3    H156771   4.765   3.553  12.729 -0.8992 -1.9530  0.8829
11760TIP3    H256772   4.806   3.609  12.863 -0.0698  0.7116 -0.4142
11761TIP3   OH256773   2.304   5.407   2.657  0.0264 -0.2087 -0.1041
11761TIP3    H156774   2.371   5.374   2.598 -1.2123 -0.7743 -1.2338
11761TIP3    H256775   2.258   5.474   2.606  0.9989  1.6822  1.3575
11762TIP3   OH256776   4.593   1.233   3.743 -0.3173 -0.3169 -0.5964
11762TIP3    H156777   4.502   1.213   3.718  0.0607 -0.8152 -1.6103
11762TIP3    H256778   4.640   1.237   3.660  0.5088  0.3939 -0.1046
11763TIP3   OH256779   5.829   4.231   3.375  0.0996  0.0768 -0.0161
11763TIP3    H156780   5.865   4.311   3.337  0.4792  1.8186  3.5883
11763TIP3    H256781   5.751   4.261   3.422 -2.0554 -2.4285 -1.6753
11764TIP3   OH256782   5.160   4.822   2.759  0.3852 -0.5376 -0.1865
11764TIP3    H156783   5.122   4.862   2.681 -0.4588 -0.0699  0.4559
11764TIP3    H256784   5.225   4.760   2.725  0.4905  0.1305 -1.2360
11765TIP3   OH256785   6.196   5.845   1.709 -0.2760  0.3199 -0.4732
11765TIP3    H156786   6.241   5.822   1.791  3.3843  1.6966 -1.9031
11765TIP3    H256787   6.129   5.908   1.736  0.2527  0.1064  1.5628
11766TIP3   OH256788   5.317   6.613  14.447 -0.7622  0.3903 -0.5427
11766TIP3    H156789   5.299   6.519  14.450  1.1055  0.0102 -0.4578
11766TIP3    H256790   5.248   6.648  14.390 -2.0440 -0.8606  0.1577
11767TIP3   OH256791   3.843   0.884   2.361 -0.0039  0.5223 -0.0648
11767TIP3    H156792   3.899   0.916   2.432  2.2427 -1.1221 -0.9858
11767TIP3    H256793   3.831   0.960   2.304 -1.3125  1.6929  1.6576
11768TIP3   OH256794   2.411   1.402   3.938  0.2998 -0.3208 -0.1811
11768TIP3    H156795   2.388   1.364   3.853 -0.7240 -0.7982  0.2926
11768TIP3    H256796   2.395   1.496   3.927  0.3607 -0.3526 -0.5704
11769TIP3   OH256797   6.522   1.990   4.226  0.3427  0.6687  0.0809
11769TIP3    H156798   6.514   1.896   4.210 -0.1159  1.0232 -2.0090
11769TIP3    H256799   6.504   2.031   4.141  1.4747  2.6161  0.7180
11770TIP3   OH256800   3.838   1.267  10.541  0.2918  0.2549  0.3941
11770TIP3    H156801   3.814   1.230  10.627  0.6171  1.9873  1.2773
11770TIP3    H256802   3.920   1.313  10.557  0.7000  0.0710 -1.0335
11771TIP3   OH256803   4.306   3.061  13.096 -0.1952  0.0026  0.2419
11771TIP3    H156804   4.299   2.968  13.076  2.3226  0.1231 -1.7021
11771TIP3    H256805   4.374   3.066  13.164 -0.9158  0.4154  0.9616
11772TIP3   OH256806   3.852   6.032   1.765 -0.2855  0.1390 -0.7356
11772TIP3    H156807   3.922   6.073   1.816 -1.2536  1.2348 -0.2351
11772TIP3    H256808   3.824   5.958   1.819 -1.8704  1.7755  0.8116
11773TIP3   OH256809   3.219   3.013  14.326  0.1475  0.2970  0.3176
11773TIP3    H156810   3.266   2.957  14.265 -1.7049 -1.2616  0.2282
11773TIP3    H256811   3.259   3.100  14.315  0.5891 -0.1528 -2.3017
11774TIP3   OH256812   3.090   5.740   1.888  0.7268 -0.1727 -0.2322
11774TIP3    H156813   3.030   5.803   1.847 -0.0209 -0.8796 -0.2551
11774TIP3    H256814   3.033   5.683   1.939  1.4475 -0.5266  0.1893
11775TIP3   OH256815   3.765   2.520  13.233  0.1933 -0.1499 -0.0683
11775TIP3    H156816   3.778   2.537  13.140 -3.1985  1.9244 -0.3372
11775TIP3    H256817   3.706   2.445  13.236 -0.1985  0.1708  0.3649
11776TIP3   OH256818   3.712   4.515  11.537  0.2443  0.0479 -0.4522
11776TIP3    H156819   3.795   4.518  11.586 -0.2861 -0.0870  0.4854
11776TIP3    H256820   3.735   4.544  11.449  0.9536  1.7536  0.2647
11777TIP3   OH256821   0.573   6.735   0.655 -0.2683  0.0884  0.2861
11777TIP3    H156822   0.507   6.801   0.678 -0.6353 -0.3810  0.5956
11777TIP3    H256823   0.652   6.785   0.636 -0.3198  0.5652  1.3048
11778TIP3   OH256824   5.409   4.412   1.741  0.9625  0.2332 -0.4158
11778TIP3    H156825   5.449   4.484   1.693  0.5456  1.1274  0.5343
11778TIP3    H256826   5.331   4.450   1.781  0.2436 -0.9791 -0.6179
11779TIP3   OH256827   3.244   4.814   0.377 -0.0958 -1.0211 -0.6342
11779TIP3    H156828   3.331   4.780   0.357 -0.4918 -1.2916 -1.9695
11779TIP3    H256829   3.250   4.842   0.469  1.1716 -1.7104 -0.4833
11780TIP3   OH256830   5.243   5.306  11.966 -0.1420  0.2886 -0.0791
11780TIP3    H156831   5.216   5.234  11.908 -1.2400 -0.8791  1.7887
11780TIP3    H256832   5.330   5.281  11.997 -0.0692  0.3083 -0.2666
11781TIP3   OH256833   0.256   0.046  11.250 -0.2770  0.4488 -0.1403
11781TIP3    H156834   0.301  -0.037  11.267 -1.5039  0.0623  1.4834
11781TIP3    H256835   0.325   0.112  11.254  0.6795 -0.4458 -1.2042
11782TIP3   OH256836   0.590   5.290   5.578  0.3992  0.0946 -0.4782
11782TIP3    H156837   0.610   5.197   5.589 -0.5700 -0.1478 -0.7228
11782TIP3    H256838   0.601   5.306   5.484  3.2951  0.9039 -0.1111
11783TIP3   OH256839   5.143   6.644   0.351 -0.1597  0.3111  0.1780
11783TIP3    H156840   5.153   6.548   0.349 -0.0230  0.3209 -2.1676
11783TIP3    H256841   5.083   6.663   0.280  0.6238  2.0579 -0.0584
11784TIP3   OH256842   4.162   2.087  13.034 -0.0608 -0.5463  0.0388
11784TIP3    H156843   4.217   2.124  12.965  0.4631 -2.1994 -0.4869
11784TIP3    H256844   4.118   2.162  13.073  2.6840  0.8637  0.5991
11785TIP3   OH256845   6.442   4.392   0.590  0.1668  0.1672 -0.6360
11785TIP3    H156846   6.438   4.328   0.661  1.9105 -1.4005 -1.8522
11785TIP3    H256847   6.531   4.427   0.593 -0.4899  1.9585 -0.5445
11786TIP3   OH256848   6.721   5.306  15.545 -0.3229  0.0816  0.3563
11786TIP3    H156849   6.691   5.349  15.625 -1.7503 -1.0559  0.4804
11786TIP3    H256850   6.676   5.352  15.474 -0.5794 -0.1358  0.3721
11787TIP3   OH256851   4.025   1.837   4.698 -0.1613 -0.3944  0.6163
11787TIP3    H156852   4.069   1.922   4.709 -0.5305 -0.3325  1.7309
11787TIP3    H256853   3.931   1.859   4.700 -0.3193 -0.4928 -1.9576
11788TIP3   OH256854   5.369   5.268  17.022  1.2262  1.1165  0.4824
11788TIP3    H156855   5.394   5.196  17.079 -1.6774 -0.5852 -0.1721
11788TIP3    H256856   5.311   5.228  16.957 -2.0538  4.2279  1.1537
11789TIP3   OH256857   2.139   2.760  12.996  0.0296 -0.2930  0.2024
11789TIP3    H156858   2.053   2.788  12.967  0.0741 -1.1741 -0.8513
11789TIP3    H256859   2.179   2.838  13.035 -0.7427  0.4480 -0.4669
11790TIP3   OH256860   4.257   0.758  12.430  0.0360  0.1102 -0.5707
11790TIP3    H156861   4.241   0.675  12.386  1.0800  0.5639 -1.8701
11790TIP3    H256862   4.199   0.756  12.507 -1.0843 -1.1469 -1.4004
11791TIP3   OH256863   5.958   5.641   4.634 -0.2636 -0.0375  0.1399
11791TIP3    H156864   5.917   5.565   4.593  0.5244 -0.1524 -0.4514
11791TIP3    H256865   6.052   5.629   4.618 -0.1275  1.0215  0.0974
11792TIP3   OH256866   3.353   5.775  15.223 -0.2714  0.5000 -0.4199
11792TIP3    H156867   3.348   5.859  15.269 -1.2731 -0.6393  1.7249
11792TIP3    H256868   3.270   5.768  15.177 -0.8941  0.0316  0.7233
11793TIP3   OH256869   5.400   5.963   3.029  0.4618  0.2997  0.6997
11793TIP3    H156870   5.310   5.989   3.048  0.2181  1.0737 -1.2197
11793TIP3    H256871   5.397   5.868   3.023 -0.8879  0.4053 -1.8748
11794TIP3   OH256872   0.249   3.944   0.396  0.0112 -0.3171  0.3064
11794TIP3    H156873   0.225   3.952   0.488  0.0126 -0.0035  0.2793
11794TIP3    H256874   0.341   3.916   0.398  0.1481  0.1396  0.3953
11795TIP3   OH256875   5.258   2.211  12.564 -0.2072  0.2864 -0.3544
11795TIP3    H156876   5.238   2.299  12.531 -0.4801  0.1688 -0.5092
11795TIP3    H256877   5.345   2.192  12.530  0.0657  0.7029  0.1041
11796TIP3   OH256878   4.487   1.893   4.169  0.4796 -0.2301  0.7078
11796TIP3    H156879   4.550   1.822   4.178 -0.6051 -1.1598  1.2650
11796TIP3    H256880   4.541   1.971   4.154  1.7611 -0.9586  1.2992
11797TIP3   OH256881   2.983   4.907   0.261  0.0122  0.3206  0.1192
11797TIP3    H156882   2.994   4.990   0.308 -1.6051 -0.0794  1.3068
11797TIP3    H256883   3.071   4.870   0.257  0.7041  1.9123 -0.1098
11798TIP3   OH256884   0.573   4.620  14.270  0.1341  0.2155 -0.3022
11798TIP3    H156885   0.657   4.581  14.244 -0.0802 -0.1803 -0.4017
11798TIP3    H256886   0.574   4.616  14.366  0.5357  0.8607 -0.2739
11799TIP3   OH256887   6.692   0.800   1.139 -0.1526  0.0927  0.6356
11799TIP3    H156888   6.670   0.707   1.148 -0.7497  0.2971  1.3598
11799TIP3    H256889   6.608   0.844   1.126  0.2348  0.4040 -1.0527
11800TIP3   OH256890   1.141   4.993   2.959  0.1995  0.1939 -0.2170
11800TIP3    H156891   1.142   4.934   2.884 -1.0200 -0.7281  0.4624
11800TIP3    H256892   1.092   5.069   2.929 -1.2647 -0.6455 -0.0430
11801TIP3   OH256893   2.721   3.029  15.755  0.1131  0.5208 -0.2648
11801TIP3    H156894   2.685   3.048  15.669 -1.6983  1.8117  0.6950
11801TIP3    H256895   2.793   3.090  15.765  0.2878  0.4083 -0.8407
11802TIP3   OH256896   2.499   4.867  16.287 -0.0155  0.7441  0.0561
11802TIP3    H156897   2.511   4.826  16.373  0.6623  0.3177 -0.2308
11802TIP3    H256898   2.588   4.878  16.254 -0.3039  0.2711 -0.8887
11803TIP3   OH256899   5.974   5.211   3.663  0.2280  0.6204 -0.1135
11803TIP3    H156900   6.061   5.249   3.653  0.3801 -0.1025 -1.8381
11803TIP3    H256901   5.984   5.120   3.634 -1.2278  0.7052 -0.9882
11804TIP3   OH256902   4.998   0.274  15.406  0.8681  0.3759 -0.1978
11804TIP3    H156903   5.034   0.185  15.407 -0.3345 -0.1454 -0.5102
11804TIP3    H256904   5.074   0.331  15.399  1.7048 -0.6037  0.5919
11805TIP3   OH256905   1.945   3.314   1.684  0.3090 -0.2066 -0.2060
11805TIP3    H156906   1.850   3.316   1.692  0.2739 -0.2904 -0.5698
11805TIP3    H256907   1.968   3.222   1.697  0.3714 -0.1340  0.2033
11806TIP3   OH256908   2.527   1.497  15.863 -0.0907  0.4546  0.1667
11806TIP3    H156909   2.546   1.482  15.956  2.1442  0.1366 -0.2751
11806TIP3    H256910   2.493   1.586  15.859  1.1900  1.0283  1.1658
11807TIP3   OH256911   0.579   0.400  11.887 -0.1898 -0.3252 -0.6333
11807TIP3    H156912   0.550   0.458  11.957  1.1370  0.5921 -0.8176
11807TIP3    H256913   0.565   0.450  11.807 -3.7256 -2.1163 -1.3794
11808TIP3   OH256914   6.715   1.494  17.123 -0.5743 -0.3366  0.2567
11808TIP3    H156915   6.629   1.535  17.124  0.2990  1.7160 -1.3573
11808TIP3    H256916   6.701   1.409  17.081 -1.9105 -0.3233  0.6427
11809TIP3   OH256917   4.474   2.766  13.845  0.1525 -0.4310  0.0983
11809TIP3    H156918   4.400   2.754  13.904  0.7117  2.5655  1.6256
11809TIP3    H256919   4.548   2.724  13.890  0.0535 -0.4099  0.2830
11810TIP3   OH256920   1.659   0.649  12.847  0.2590 -0.1029 -0.3215
11810TIP3    H156921   1.738   0.703  12.837 -0.5492  0.9995 -1.0494
11810TIP3    H256922   1.664   0.587  12.775 -0.5141  1.2873 -1.6317
11811TIP3   OH256923   4.148   3.487   0.139  0.1296 -0.0614  0.2721
11811TIP3    H156924   4.112   3.496   0.051  1.1067  1.4281  0.0038
11811TIP3    H256925   4.236   3.452   0.126 -0.4123 -1.7491  0.8144
11812TIP3   OH256926   0.764   6.611  10.460 -0.1683 -0.0599  0.1771
11812TIP3    H156927   0.695   6.673  10.484 -0.2013 -0.3729  0.9213
11812TIP3    H256928   0.743   6.531  10.509 -0.1102 -0.6578 -0.7461
11813TIP3   OH256929   3.827   1.828   4.244  0.0901 -0.1494 -0.0546
11813TIP3    H156930   3.816   1.777   4.324  1.7971 -0.6606 -0.1056
11813TIP3    H256931   3.920   1.820   4.223  0.6642  3.5481  0.3076
11814TIP3   OH256932   0.557   6.331   6.506 -0.5014 -0.2391 -0.4917
11814TIP3    H156933   0.539   6.425   6.508 -1.2717 -0.3810  0.7963
11814TIP3    H256934   0.480   6.292   6.548 -1.1084 -1.6096 -2.7167
11815TIP3   OH256935   2.234   2.154  13.869  0.2246  0.3303 -0.2640
11815TIP3    H156936   2.266   2.245  13.864 -0.0163  0.4426  0.1181
11815TIP3    H256937   2.182   2.142  13.790 -0.5384  0.8512  0.1310
11816TIP3   OH256938   6.576   4.586   2.754 -0.5470  0.2217 -0.0881
11816TIP3    H156939   6.529   4.610   2.674  0.8496 -1.0918 -1.3703
11816TIP3    H256940   6.526   4.627   2.824 -1.8902  1.3372 -1.6123
11817TIP3   OH256941   5.116   5.205   2.388  0.0464 -0.0789 -0.7062
11817TIP3    H156942   5.056   5.270   2.350  0.9302  0.5051 -1.1328
11817TIP3    H256943   5.198   5.252   2.399  0.0487 -0.4544  1.2582
11818TIP3   OH256944   4.097   1.759   0.592 -0.2025  0.1018  0.3463
11818TIP3    H156945   4.025   1.754   0.656 -0.5553 -1.0503 -0.1220
11818TIP3    H256946   4.078   1.690   0.529  0.2566  1.0794 -0.9023
11819TIP3   OH256947   2.190   3.213   5.097  0.2733 -0.2965  0.5793
11819TIP3    H156948   2.237   3.285   5.138  0.8463  0.3162 -1.0506
11819TIP3    H256949   2.115   3.254   5.053 -0.7716 -1.0292  1.6250
11820TIP3   OH256950   2.936   5.291  16.471  0.9843 -0.0497 -0.2412
11820TIP3    H156951   2.914   5.198  16.473  0.2213  0.1020 -0.9941
11820TIP3    H256952   2.909   5.324  16.557  1.7105 -0.6061  0.2147
11821TIP3   OH256953   2.288   6.028   3.843  0.2617 -0.3228  0.0270
11821TIP3    H156954   2.368   5.994   3.882  2.5460  3.2785 -1.0519
11821TIP3    H256955   2.306   6.031   3.749 -1.0062  0.8220 -0.2196
11822TIP3   OH256956   2.321   1.301  11.802  0.5587 -0.3747  0.9947
11822TIP3    H156957   2.404   1.255  11.811  0.5893 -0.8728 -1.1591
11822TIP3    H256958   2.347   1.390  11.775  0.4207 -0.2587  1.2491
11823TIP3   OH256959   3.054   6.065  16.126 -0.5994  0.3959 -0.3732
11823TIP3    H156960   2.999   5.990  16.105 -0.5100 -0.1672  1.2465
11823TIP3    H256961   3.132   6.027  16.165  0.6163  1.2272 -1.8753
11824TIP3   OH256962   0.758   5.336  12.778  0.7825 -0.1604 -0.5218
11824TIP3    H156963   0.841   5.372  12.808  0.3311  0.4935 -0.0265
11824TIP3    H256964   0.691   5.394  12.815  0.1456 -0.0412 -1.7942
11825TIP3   OH256965   5.866   5.059  13.397  0.8809  0.4142  0.2229
11825TIP3    H156966   5.833   5.024  13.480  0.7039  1.4195  0.5872
11825TIP3    H256967   5.902   4.983  13.352 -0.2521 -0.3848  0.6281
11826TIP3   OH256968   3.604   2.977  10.949 -0.1715  0.5417 -0.4262
11826TIP3    H156969   3.521   2.997  10.907  0.8541  0.7699 -2.5056
11826TIP3    H256970   3.603   2.882  10.959 -0.3342  0.4475 -1.2668
11827TIP3   OH256971   3.388   1.270  14.006 -0.8782  0.6523  0.3821
11827TIP3    H156972   3.363   1.183  14.038 -1.4910  0.6812 -0.0046
11827TIP3    H256973   3.481   1.262  13.983 -1.4585 -0.5420 -1.7794
11828TIP3   OH256974   3.571   1.548   0.663  0.1302 -0.3057  0.0931
11828TIP3    H156975   3.525   1.465   0.674  0.7297 -0.5549  0.8805
11828TIP3    H256976   3.503   1.611   0.640 -0.2918 -1.0654 -0.8159
11829TIP3   OH256977   3.600   3.728   3.010  0.0339  0.1468  0.2266
11829TIP3    H156978   3.521   3.677   2.994  0.2853 -0.5635  1.1566
11829TIP3    H256979   3.609   3.729   3.106  0.1238  1.8111  0.2298
11830TIP3   OH256980   5.032   3.744   1.811 -1.1954  0.0785 -0.6531
11830TIP3    H156981   5.013   3.790   1.730 -0.2601 -0.2265 -1.0654
11830TIP3    H256982   4.955   3.758   1.866 -1.1611  1.6684 -0.9624
11831TIP3   OH256983   6.194   6.377   0.314  0.2416 -0.3681 -0.2128
11831TIP3    H156984   6.188   6.418   0.400  0.2930  0.6538 -0.6720
11831TIP3    H256985   6.171   6.448   0.253  0.1860 -1.0794 -1.0307
11832TIP3   OH256986   1.426   0.151  11.423  0.4302  0.7574 -0.0070
11832TIP3    H156987   1.480   0.120  11.496 -0.1190 -0.0794  0.0620
11832TIP3    H256988   1.354   0.087  11.418 -0.1194  1.4109 -0.5965
11833TIP3   OH256989   6.490   6.413   4.212  0.4700  0.0056 -0.1115
11833TIP3    H156990   6.449   6.479   4.155  1.5035 -0.6352 -1.6737
11833TIP3    H256991   6.580   6.408   4.182  0.1871 -2.8663 -0.8313
11834TIP3   OH256992   3.303   0.127   2.428 -0.1256 -0.4317  0.2100
11834TIP3    H156993   3.396   0.117   2.452  0.2200 -2.1509 -1.5751
11834TIP3    H256994   3.305   0.176   2.346 -0.8808  0.2501  0.5859
11835TIP3   OH256995   5.703   0.994  13.848 -0.1217 -0.6122  0.5507
11835TIP3    H156996   5.724   1.013  13.757  0.4106 -1.5812  0.4642
11835TIP3    H256997   5.622   1.044  13.865  0.2531  0.2718 -0.1789
11836TIP3   OH256998   2.183   4.219   1.390 -0.1756 -0.3161 -0.3282
11836TIP3    H156999   2.107   4.167   1.364 -0.1924 -1.1318  1.2208
11836TIP3    H257000   2.243   4.157   1.431  1.1826  0.3841 -1.1525
11837TIP3   OH257001   6.519   1.206  12.559  0.2286 -0.5052  0.1550
11837TIP3    H157002   6.483   1.159  12.634 -1.2909  1.5067  0.7729
11837TIP3    H257003   6.480   1.165  12.482 -1.3423 -0.0704  0.6957
11838TIP3   OH257004   3.743   6.798   1.639 -1.0952  0.0845 -0.0216
11838TIP3    H157005   3.766   6.885   1.606 -0.5041  0.1926  0.6352
11838TIP3    H257006   3.757   6.739   1.565 -0.1685  0.3694 -0.0909
11839TIP3   OH257007   2.597   6.471  13.388 -0.1603 -0.1429 -0.2109
11839TIP3    H157008   2.516   6.421  13.401 -0.1767  0.0524  0.4480
11839TIP3    H257009   2.586   6.514  13.304 -2.1103  2.4436  1.2420
11840TIP3   OH257010   6.803   5.832   0.081 -0.1991  0.8259  0.1949
11840TIP3    H157011   6.816   5.852   0.173  0.4174 -2.2139  0.8824
11840TIP3    H257012   6.881   5.782   0.056 -1.1264  0.1056 -1.4789
11841TIP3   OH257013   4.491   2.072  15.058 -0.2334 -0.1284  0.0375
11841TIP3    H157014   4.467   1.986  15.094  0.1937 -0.8525 -1.3461
11841TIP3    H257015   4.459   2.070  14.968  1.6363  0.3279 -0.6859
11842TIP3   OH257016   6.283   0.653  15.628  0.3110  0.6193 -0.4124
11842TIP3    H157017   6.190   0.629  15.632  0.2861  0.6004 -0.9464
11842TIP3    H257018   6.323   0.585  15.574  0.5974  0.7292 -0.3376
11843TIP3   OH257019   6.498   4.701  16.031 -0.0938 -0.4769  0.3755
11843TIP3    H157020   6.477   4.616  15.993 -0.0568 -0.5007  0.4083
11843TIP3    H257021   6.538   4.751  15.959 -1.1196 -0.1029  0.0458
11844TIP3   OH257022   6.688   0.139   4.389  0.1403 -0.1349  0.0512
11844TIP3    H157023   6.735   0.188   4.456  2.2446  0.4203 -1.7178
11844TIP3    H257024   6.656   0.061   4.435  2.2249 -0.2035  1.5383
11845TIP3   OH257025   3.194   0.966   3.296 -0.0078 -0.0289 -0.2557
11845TIP3    H157026   3.154   1.053   3.285 -0.0267  0.2356  1.6219
11845TIP3    H257027   3.288   0.982   3.293  0.0238  0.3279  1.5904
11846TIP3   OH257028   6.060   2.243  13.946  0.1244  0.3129  0.1169
11846TIP3    H157029   6.073   2.169  14.006  1.0664  0.0458 -0.3841
11846TIP3    H257030   6.005   2.209  13.876  1.1673 -0.1679 -0.5031
11847TIP3   OH257031   1.056   0.169  15.541  0.3199  0.4100 -0.2030
11847TIP3    H157032   1.015   0.102  15.487 -1.1060  2.1916 -1.4516
11847TIP3    H257033   1.143   0.135  15.560  0.2891 -0.9824 -2.2980
11848TIP3   OH257034   4.010   3.182   1.003  0.1743  0.3988 -0.3720
11848TIP3    H157035   4.077   3.166   0.936  0.6424 -0.8266  0.3436
11848TIP3    H257036   4.060   3.192   1.084 -0.5041 -2.8414  0.6010
11849TIP3   OH257037   6.595   3.228  15.236  0.8744 -0.2974 -0.0173
11849TIP3    H157038   6.508   3.205  15.202 -0.1145  1.4725  1.1157
11849TIP3    H257039   6.616   3.158  15.297 -1.4224  0.8509  2.3300
11850TIP3   OH257040   0.399   4.511  14.732 -0.3627 -0.0570 -0.1050
11850TIP3    H157041   0.376   4.553  14.815 -0.8797  0.5709 -0.5538
11850TIP3    H257042   0.326   4.531  14.674 -0.2919 -1.0174 -0.5335
11851TIP3   OH257043   5.252   2.615   0.117 -0.1310  0.7830 -0.3918
11851TIP3    H157044   5.158   2.607   0.105 -0.3524  1.9347  0.4104
11851TIP3    H257045   5.290   2.588   0.034 -1.1314 -0.2863 -0.5195
11852TIP3   OH257046   2.501   2.458  16.709  0.1133  0.2874 -0.3196
11852TIP3    H157047   2.581   2.477  16.759  0.9097 -1.2008 -0.9495
11852TIP3    H257048   2.516   2.370  16.673 -1.3108  0.4754 -1.4539
11853TIP3   OH257049   4.557   0.973   2.995 -0.1573  0.4328  0.2359
11853TIP3    H157050   4.485   0.911   2.991 -1.7508  2.2178 -0.2548
11853TIP3    H257051   4.617   0.945   2.926 -1.3839  0.0542 -0.7191
11854TIP3   OH257052   1.870   3.151   5.009  0.2252  0.4140 -0.2371
11854TIP3    H157053   1.876   3.237   5.050  1.4188  0.7676 -1.1097
11854TIP3    H257054   1.914   3.161   4.924 -0.0368 -0.9300 -0.5584
11855TIP3   OH257055   0.975   2.078  11.352 -0.2877 -0.0263 -0.1673
11855TIP3    H157056   0.897   2.027  11.370 -1.1310  1.1501 -0.4043
11855TIP3    H257057   0.995   2.060  11.260  0.0960 -0.7928  0.0519
11856TIP3   OH257058   2.173   4.891   2.788 -0.0410  0.2306  0.1263
11856TIP3    H157059   2.140   4.801   2.785  3.2806 -1.2719  2.3956
11856TIP3    H257060   2.239   4.894   2.719  0.1657  0.7806  0.3459
11857TIP3   OH257061   1.735   5.988   5.541 -0.7302 -0.1430  0.2538
11857TIP3    H157062   1.730   5.893   5.543 -0.1462 -0.1958 -0.3930
11857TIP3    H257063   1.820   6.008   5.581 -0.6887  0.0829  0.0559
11858TIP3   OH257064   0.808   5.784  16.330  0.2206  0.3143 -0.3721
11858TIP3    H157065   0.801   5.713  16.393 -0.1338  0.1355 -0.6127
11858TIP3    H257066   0.900   5.782  16.302  0.0682 -0.4674 -0.8607
11859TIP3   OH257067   6.093   1.206  13.562  0.4718  1.1495  0.3732
11859TIP3    H157068   6.126   1.140  13.500 -0.8289 -0.1752  1.0162
11859TIP3    H257069   6.101   1.165  13.648 -1.2762  1.3894  0.7022
11860TIP3   OH257070   5.703   0.115   6.136  0.3141 -0.0721 -0.2560
11860TIP3    H157071   5.690   0.024   6.111 -2.4812  0.5729 -1.5724
11860TIP3    H257072   5.739   0.111   6.224 -1.4815 -2.4685  0.4690
11861TIP3   OH257073   1.095   3.903   0.805 -0.2212 -0.0878  0.0649
11861TIP3    H157074   1.022   3.844   0.788 -1.2575  1.0779  0.3532
11861TIP3    H257075   1.085   3.928   0.897  1.8121 -1.5786  0.7633
11862TIP3   OH257076   1.984   3.245  12.671  0.4673 -0.3037  0.5559
11862TIP3    H157077   1.948   3.218  12.586  0.9778 -1.8712  0.8026
11862TIP3    H257078   2.029   3.167  12.703  1.2669  0.6213  1.7497
11863TIP3   OH257079   0.446   0.451  15.364  0.0757  0.7083  0.0790
11863TIP3    H157080   0.440   0.385  15.295 -0.0317  1.7630 -0.9585
11863TIP3    H257081   0.530   0.435  15.406 -0.0835 -0.2705  0.0572
11864TIP3   OH257082   1.857   3.675   4.353  0.3419 -0.9309 -0.0449
11864TIP3    H157083   1.820   3.753   4.313  1.4433 -0.1235  0.4557
11864TIP3    H257084   1.782   3.627   4.388 -0.2608  0.6813  0.9889
11865TIP3   OH257085   0.595   0.191   6.378 -0.0349 -0.0535  0.1137
11865TIP3    H157086   0.606   0.096   6.369  3.2093  0.1556  0.6299
11865TIP3    H257087   0.635   0.211   6.463  3.6810  2.1670 -1.8722
11866TIP3   OH257088   2.947   3.760   1.912 -0.1362  0.4002 -0.1678
11866TIP3    H157089   2.905   3.790   1.831 -0.6431  0.6472  0.1787
11866TIP3    H257090   3.029   3.809   1.915 -0.8402  1.6030  0.2580
11867TIP3   OH257091   1.425   5.061  13.332  0.0666 -0.4346 -0.5943
11867TIP3    H157092   1.517   5.039  13.321  0.3350  1.0592 -1.5602
11867TIP3    H257093   1.408   5.050  13.425  0.2571 -4.1952 -0.8450
11868TIP3   OH257094   3.165   5.342  15.430  0.0585 -0.4191 -1.1584
11868TIP3    H157095   3.087   5.343  15.486 -0.3535 -0.8931 -1.7035
11868TIP3    H257096   3.177   5.433  15.403  0.8127 -0.0195  0.4239
11869TIP3   OH257097   0.087   4.353  13.734  0.2468  0.3644  0.1861
11869TIP3    H157098   0.117   4.441  13.711  2.5569 -0.4762 -0.2173
11869TIP3    H257099  -0.005   4.366  13.759  0.5152  2.8853  0.1946
11870TIP3   OH257100   0.554   1.692  13.992  0.1894  0.8802 -0.1734
11870TIP3    H157101   0.552   1.784  14.017 -3.5263  0.7635  0.6129
11870TIP3    H257102   0.465   1.675  13.959  0.1319 -2.8181  1.4452
11871TIP3   OH257103   1.971   6.341  14.685 -0.1723 -0.6429  0.3895
11871TIP3    H157104   1.953   6.418  14.739 -0.5071 -0.2290 -0.2834
11871TIP3    H257105   2.065   6.346  14.667 -0.2329 -0.2459  0.1547
11872TIP3   OH257106   4.004   6.156   1.328 -0.3012 -0.0118  0.4423
11872TIP3    H157107   3.979   6.067   1.355 -0.1082  0.1780  1.2729
11872TIP3    H257108   3.990   6.157   1.233  0.2108 -1.1056  0.3315
11873TIP3   OH257109   4.585   2.267   0.993 -0.0015 -0.5893  0.4006
11873TIP3    H157110   4.492   2.254   1.010 -0.3568  0.8550 -0.2368
11873TIP3    H257111   4.601   2.359   1.017  1.5492 -1.1533  1.6871
11874TIP3   OH257112   0.934   5.076  10.711 -0.2294 -0.2466 -0.1696
11874TIP3    H157113   0.898   5.128  10.639 -1.5240 -0.5698  0.2085
11874TIP3    H257114   1.028   5.069  10.692 -0.2814  1.0184 -0.9615
11875TIP3   OH257115   6.770   5.357   3.318 -0.0397 -0.0068  0.4863
11875TIP3    H157116   6.747   5.273   3.358  1.8611 -0.6358  0.3744
11875TIP3    H257117   6.739   5.423   3.379  1.2555 -0.8925  2.1719
11876TIP3   OH257118   0.515   6.597   3.727 -0.1870 -0.1042  0.7951
11876TIP3    H157119   0.427   6.633   3.738 -1.2107 -1.3544 -2.1414
11876TIP3    H257120   0.563   6.666   3.680 -0.2581 -0.1865  0.5975
11877TIP3   OH257121   1.801   3.953   5.305  0.5904 -0.0196 -0.0880
11877TIP3    H157122   1.731   4.018   5.296  1.2989  0.7335 -0.2211
11877TIP3    H257123   1.858   3.989   5.373 -0.2107 -1.6077  1.5411
11878TIP3   OH257124   4.945   3.532   6.342 -0.5100 -0.8996 -0.3471
11878TIP3    H157125   4.929   3.481   6.263 -0.5102 -1.3775 -0.0388
11878TIP3    H257126   4.955   3.622   6.310 -0.7025 -1.0583 -0.8685
11879TIP3   OH257127   1.794   6.690  14.205  0.0347  0.4422 -0.0737
11879TIP3    H157128   1.864   6.636  14.242 -0.8962 -0.8206 -0.0837
11879TIP3    H257129   1.813   6.692  14.111 -0.1015 -0.1439 -0.1170
11880TIP3   OH257130   2.765   6.603  14.505  0.4529 -0.1815 -0.3037
11880TIP3    H157131   2.695   6.656  14.543 -0.4253 -1.0608 -0.6344
11880TIP3    H257132   2.812   6.569  14.581 -1.4707 -2.1633  0.1224
11881TIP3   OH257133   4.316   0.657   3.695 -0.3783  0.3264  0.4176
11881TIP3    H157134   4.298   0.569   3.661 -0.6281  0.2731  0.6760
11881TIP3    H257135   4.231   0.686   3.731 -0.0343  0.2133  1.3543
11882TIP3   OH257136   0.938   2.552  14.892  0.4441  0.7595 -0.0443
11882TIP3    H157137   0.930   2.524  14.801 -0.2452  0.5533  0.0734
11882TIP3    H257138   0.986   2.481  14.935  0.1003  0.4968 -0.0892
11883TIP3   OH257139   6.406   0.566  16.153  0.5939  0.7226 -0.1054
11883TIP3    H157140   6.493   0.595  16.179  1.4268  0.6263 -2.4994
11883TIP3    H257141   6.397   0.596  16.062 -0.3283 -2.4394 -1.2019
11884TIP3   OH257142   3.764   6.005  15.221  0.0425  0.3823 -0.4420
11884TIP3    H157143   3.746   6.058  15.143 -0.9393 -1.9936 -1.9623
11884TIP3    H257144   3.859   5.995  15.221  0.2732  2.2654  0.0278
11885TIP3   OH257145   1.249   1.972   3.273 -0.0563  0.3028  0.4520
11885TIP3    H157146   1.256   2.064   3.245  1.0017  0.7787  2.1481
11885TIP3    H257147   1.195   1.976   3.352  0.9541 -0.3795  1.1902
11886TIP3   OH257148   5.141   4.502  14.910  0.7345 -0.5496 -0.1549
11886TIP3    H157149   5.152   4.597  14.904 -0.0906 -0.4266  0.1621
11886TIP3    H257150   5.181   4.478  14.994  1.5549 -0.5887 -0.5459
11887TIP3   OH257151   3.746   4.034   2.945 -0.2155 -0.4262 -0.2969
11887TIP3    H157152   3.829   4.066   2.981  0.4421 -1.8764 -0.4824
11887TIP3    H257153   3.763   3.943   2.921 -1.3165 -0.2022 -2.0924
11888TIP3   OH257154   0.801   4.246   1.328  0.0664  0.1802  0.2055
11888TIP3    H157155   0.764   4.323   1.372 -1.2249 -0.1111 -0.3120
11888TIP3    H257156   0.862   4.282   1.264  1.7701  0.6204  1.9971
11889TIP3   OH257157   5.187   2.486  15.605 -0.0474  0.2992 -0.3790
11889TIP3    H157158   5.147   2.519  15.524  0.5004  0.3083 -0.6480
11889TIP3    H257159   5.227   2.403  15.580  1.8260  1.2261 -0.5968
11890TIP3   OH257160   1.201   4.047   4.021  0.0417  0.5838 -0.0249
11890TIP3    H157161   1.252   4.024   3.943  0.9206  0.1454  0.6552
11890TIP3    H257162   1.110   4.038   3.994  0.3327  0.3993 -0.9894
11891TIP3   OH257163   0.634   4.641   5.778 -0.0107  0.1567  0.5919
11891TIP3    H157164   0.572   4.672   5.713  1.4677  1.8379 -0.1054
11891TIP3    H257165   0.644   4.714   5.839 -0.3012 -0.8735  1.9247
11892TIP3   OH257166   6.788   0.627  14.648 -0.6232  0.2347 -0.2600
11892TIP3    H157167   6.781   0.695  14.582 -0.4395 -0.1630 -0.6934
11892TIP3    H257168   6.697   0.609  14.674 -0.6128  1.3996  0.6517
11893TIP3   OH257169   4.466   2.552  13.221 -0.1222  0.3808 -0.5029
11893TIP3    H157170   4.494   2.504  13.299  2.8018  2.0785 -0.3436
11893TIP3    H257171   4.451   2.641  13.253 -0.5961  0.7004 -1.5923
11894TIP3   OH257172   2.896   1.938   5.292  0.2725  0.4068 -0.3949
11894TIP3    H157173   2.904   1.880   5.367 -0.0690 -0.2326 -0.8394
11894TIP3    H257174   2.935   2.021   5.320  0.4255  0.0760  0.3726
11895TIP3   OH257175   5.187   4.141  10.723 -0.1338 -0.2088 -0.2951
11895TIP3    H157176   5.212   4.229  10.695 -0.5001 -0.1970 -0.5947
11895TIP3    H257177   5.092   4.145  10.733 -0.0019 -0.1548  1.1699
11896TIP3   OH257178   1.143   1.836  10.746  0.2149  0.4272 -0.1674
11896TIP3    H157179   1.190   1.753  10.732 -0.8560  0.0096 -1.5616
11896TIP3    H257180   1.051   1.814  10.730 -0.4439  1.3511  1.9038
11897TIP3   OH257181   4.620   1.966  14.729  0.3332  0.3557  0.2054
11897TIP3    H157182   4.592   2.046  14.774  1.4632  0.0900  1.4565
11897TIP3    H257183   4.659   1.997  14.647  1.0328  1.1416  0.8084
11898TIP3   OH257184   6.423   5.436  15.335  0.1734 -0.6513 -0.1983
11898TIP3    H157185   6.331   5.439  15.358 -0.3294  1.3896 -2.1079
11898TIP3    H257186   6.441   5.343  15.320 -1.9451 -0.9658 -1.0875
11899TIP3   OH257187   2.012   1.766   0.022  0.0473  0.4325 -0.5974
11899TIP3    H157188   2.028   1.774   0.116 -0.4803 -0.0325 -0.4671
11899TIP3    H257189   1.953   1.838   0.001  0.0793  0.4717 -0.5531
11900TIP3   OH257190   6.800   5.499  12.765  0.2251 -0.2574  0.2686
11900TIP3    H157191   6.853   5.454  12.831  1.0831 -0.9868 -0.8915
11900TIP3    H257192   6.831   5.590  12.768  0.4057 -0.3278  0.7040
11901TIP3   OH257193   2.497   2.558  11.541 -0.6834  0.0327  0.3266
11901TIP3    H157194   2.590   2.537  11.539 -0.5347  0.4734  1.5113
11901TIP3    H257195   2.453   2.474  11.554 -0.4607 -0.1950 -0.3948
11902TIP3   OH257196   0.705   1.559   0.157  0.1699  0.3891 -0.3602
11902TIP3    H157197   0.717   1.645   0.199 -0.9100 -0.0668  0.9602
11902TIP3    H257198   0.773   1.556   0.090 -0.9569  3.0725 -1.7938
11903TIP3   OH257199   6.753   2.664   5.760 -0.2740  0.2263  0.4035
11903TIP3    H157200   6.805   2.708   5.693  1.4744 -0.8744  0.9783
11903TIP3    H257201   6.728   2.735   5.820  0.0477  0.8780 -0.2160
11904TIP3   OH257202   1.221   1.595  12.618 -0.1105  0.0099  0.6095
11904TIP3    H157203   1.183   1.548  12.544 -0.8679  4.0487 -1.8889
11904TIP3    H257204   1.304   1.630  12.586  0.3045  0.6134  2.2069
11905TIP3   OH257205   6.093   3.487  12.676  0.3268 -0.1186  0.2533
11905TIP3    H157206   6.016   3.530  12.713  0.9736  1.4880 -0.1834
11905TIP3    H257207   6.147   3.558  12.642  1.6366 -1.2606 -0.1847
11906TIP3   OH257208   5.153   0.793  15.701 -0.2199  0.7640 -0.0740
11906TIP3    H157209   5.238   0.788  15.747 -0.6433  2.0552  0.9319
11906TIP3    H257210   5.126   0.702  15.691  0.4043  0.3905  1.3241
11907TIP3   OH257211   0.014   1.089  14.062  0.1061 -0.2964 -0.5173
11907TIP3    H157212   0.107   1.102  14.046 -0.1119  2.3493 -0.0179
11907TIP3    H257213  -0.027   1.096  13.976  0.1151  1.6843 -0.4026
11908TIP3   OH257214   0.662   1.637  10.534  0.4418 -0.3080  0.1640
11908TIP3    H157215   0.705   1.561  10.497  0.2812 -1.4350  2.1577
11908TIP3    H257216   0.575   1.638  10.493  0.5648 -0.9871 -0.1140
11909TIP3   OH257217   4.541   2.152  13.779 -0.5911  0.2637 -0.0527
11909TIP3    H157218   4.545   2.141  13.684 -0.0718  0.2206 -0.0287
11909TIP3    H257219   4.468   2.212  13.793 -1.0968 -0.2531 -0.4340
11910TIP3   OH257220   5.267   2.452   1.879  0.1717  0.2423 -0.2959
11910TIP3    H157221   5.255   2.393   1.805  1.1793  0.0842 -0.3476
11910TIP3    H257222   5.313   2.527   1.843  1.1617 -0.0788  0.2662
11911TIP3   OH257223   6.351   5.670   0.628 -0.5756  0.1811 -0.4179
11911TIP3    H157224   6.344   5.614   0.550  0.4248  1.9392 -1.8481
11911TIP3    H257225   6.440   5.706   0.624  0.1116 -0.8893  2.4580
11912TIP3   OH257226   1.164   6.776  11.919  0.0626  0.2157 -0.1751
11912TIP3    H157227   1.234   6.817  11.970  0.3243 -0.3117 -0.1106
11912TIP3    H257228   1.096   6.755  11.983 -0.1558  0.7051 -0.2352
11913TIP3   OH257229   4.833   6.812   3.816  0.1374 -0.7867 -0.5556
11913TIP3    H157230   4.905   6.849   3.868 -1.4625  1.5243  0.1798
11913TIP3    H257231   4.791   6.749   3.874 -0.6273  0.5678  0.4145
11914TIP3   OH257232   5.709   2.379  15.878  0.0669  0.2746  0.1674
11914TIP3    H157233   5.647   2.418  15.816 -1.5792  1.2428  2.2944
11914TIP3    H257234   5.739   2.300  15.834 -1.5126  0.5718 -1.6055
11915TIP3   OH257235   1.899   5.017  13.911 -0.1226 -0.0853  0.0047
11915TIP3    H157236   1.824   5.061  13.872 -0.9156 -0.4083  1.1249
11915TIP3    H257237   1.959   5.003  13.838 -0.4122  1.6618 -0.6174
11916TIP3   OH257238   1.999   0.686  16.899  0.4764 -0.3997 -0.0082
11916TIP3    H157239   2.033   0.664  16.986 -0.1781 -2.1523 -0.1607
11916TIP3    H257240   2.000   0.604  16.851  0.2535  0.4214 -1.4791
11917TIP3   OH257241   6.284   0.604   3.629  0.0125  0.1296 -0.3902
11917TIP3    H157242   6.287   0.560   3.544  0.3948  0.7015 -0.6742
11917TIP3    H257243   6.375   0.620   3.651  0.0064 -1.3279  0.8256
11918TIP3   OH257244   1.319   3.305  12.301  0.5882 -0.0075 -0.4775
11918TIP3    H157245   1.262   3.380  12.317  2.9750  1.4959  1.8442
11918TIP3    H257246   1.377   3.335  12.230  1.2288  0.1802  0.1167
11919TIP3   OH257247   5.619   6.505  14.952 -0.0338  0.2008  0.8787
11919TIP3    H157248   5.602   6.451  15.030  0.5277 -0.5930  0.4602
11919TIP3    H257249   5.704   6.476  14.921  0.4714  1.6276  0.8713
11920TIP3   OH257250   4.884   3.415   3.572  0.2040  0.5282 -0.3648
11920TIP3    H157251   4.792   3.416   3.599  0.0149 -1.9910 -0.7101
11920TIP3    H257252   4.880   3.417   3.476  0.4573 -0.2499 -0.3984
11921TIP3   OH257253   5.638   0.472  13.336  1.0650  0.3002 -0.2491
11921TIP3    H157254   5.702   0.403  13.319  0.5121 -0.2351 -0.1723
11921TIP3    H257255   5.600   0.491  13.251 -1.3291 -2.0143  0.1617
11922TIP3   OH257256   0.224   4.673  13.228  0.2983  0.1240 -0.2238
11922TIP3    H157257   0.274   4.734  13.174 -0.8763  1.5895  0.2433
11922TIP3    H257258   0.151   4.646  13.172  1.2529 -1.5773 -0.7186
11923TIP3   OH257259   4.148   3.067  15.194  0.0472  0.1961  0.3279
11923TIP3    H157260   4.205   3.125  15.244 -0.4125  0.9145  0.0240
11923TIP3    H257261   4.060   3.085  15.227 -0.4655  1.7847 -1.7622
11924TIP3   OH257262   0.215   3.959  16.064 -0.2571 -0.5622 -0.2397
11924TIP3    H157263   0.234   4.052  16.053  1.0295 -0.7149  0.4964
11924TIP3    H257264   0.293   3.923  16.107 -0.7974 -1.9495 -0.3565
11925TIP3   OH257265   0.469   3.675   4.158 -0.2333 -1.0129  0.4657
11925TIP3    H157266   0.403   3.657   4.225  0.3050  0.0134  1.2968
11925TIP3    H257267   0.550   3.691   4.206 -0.1217  1.0957 -0.2930
11926TIP3   OH257268   1.394   1.025  13.607 -0.2911  0.1054  0.0681
11926TIP3    H157269   1.466   0.977  13.566 -0.1908  0.3222 -0.0127
11926TIP3    H257270   1.421   1.117  13.602 -0.9817  0.2816 -0.7903
11927TIP3   OH257271   2.468   1.986  14.928 -0.0826  0.0760  0.0424
11927TIP3    H157272   2.382   2.016  14.957  0.0418 -0.3499  0.8903
11927TIP3    H257273   2.450   1.921  14.860 -0.4579 -0.4615  0.6471
11928TIP3   OH257274   0.060   6.196  11.419 -0.4272  0.5465  0.0104
11928TIP3    H157275   0.058   6.101  11.405  1.0709  0.6129 -0.8221
11928TIP3    H257276   0.032   6.207  11.510  1.7272 -0.8890  0.9142
11929TIP3   OH257277   4.532   1.558   6.681 -0.5113 -0.0512 -0.7391
11929TIP3    H157278   4.545   1.588   6.771  0.5018 -0.2513 -0.8076
11929TIP3    H257279   4.463   1.614   6.647 -0.9226  0.0152  0.1682
11930TIP3   OH257280   6.468   3.586   2.658 -0.3847 -0.4817 -0.1645
11930TIP3    H157281   6.501   3.635   2.733 -0.6690 -0.9925  0.3014
11930TIP3    H257282   6.414   3.517   2.696 -2.9492  0.9675 -0.9098
11931TIP3   OH257283   2.241   4.762  14.941  0.6526  0.6984 -0.2005
11931TIP3    H157284   2.283   4.722  14.865 -0.4725 -0.6499 -0.1619
11931TIP3    H257285   2.278   4.715  15.016 -0.7056 -0.3618 -0.1544
11932TIP3   OH257286   0.131   4.549   4.556  0.5207  0.5464 -0.3587
11932TIP3    H157287   0.078   4.472   4.534 -0.3994  0.8153  0.8465
11932TIP3    H257288   0.179   4.568   4.475 -0.8657  0.0120 -1.3626
11933TIP3   OH257289   0.498   0.875  12.721  0.3297  0.0882  0.0859
11933TIP3    H157290   0.458   0.797  12.684 -0.3812  0.4892  0.0067
11933TIP3    H257291   0.524   0.927  12.646  1.0029 -0.1655  0.1358
11934TIP3   OH257292   0.766   1.339   5.685 -0.2909 -0.0937 -0.2659
11934TIP3    H157293   0.843   1.325   5.740  0.4514 -1.0385 -1.4839
11934TIP3    H257294   0.716   1.258   5.692 -0.1281 -0.2762 -1.0448
11935TIP3   OH257295   2.642   2.284   4.855  0.4408  0.6694 -0.1492
11935TIP3    H157296   2.598   2.203   4.883 -1.2102  1.5718  0.0432
11935TIP3    H257297   2.621   2.347   4.924  0.4180  1.6445 -1.0232
11936TIP3   OH257298   1.794   5.883  13.964  0.0900  0.4094 -0.1320
11936TIP3    H157299   1.869   5.940  13.982 -0.5212  0.8656  1.1238
11936TIP3    H257300   1.832   5.800  13.937  1.0848  0.2994  1.5126
11937TIP3   OH257301   2.309   1.314  16.652 -0.6863 -0.1053  0.6753
11937TIP3    H157302   2.286   1.322  16.559 -0.3845  0.6122  0.6571
11937TIP3    H257303   2.383   1.254  16.653  0.7849  1.6295  0.2047
11938TIP3   OH257304   6.745   3.485  16.392  0.0077 -0.4527  0.1857
11938TIP3    H157305   6.717   3.400  16.359  0.9731 -0.5704 -0.3771
11938TIP3    H257306   6.807   3.517  16.326  0.2193  0.3500  0.7607
11939TIP3   OH257307   1.597   2.875   4.766  0.0555  0.4219 -0.4104
11939TIP3    H157308   1.573   2.788   4.734 -1.1944  0.9911 -1.0996
11939TIP3    H257309   1.524   2.900   4.824 -0.0110  1.3407 -0.8753
11940TIP3   OH257310   4.353   4.171  13.757 -0.5488  0.3342 -0.3230
11940TIP3    H157311   4.356   4.080  13.784  0.8218  0.4789  0.0533
11940TIP3    H257312   4.300   4.215  13.824  0.3503  0.1539  0.5138
11941TIP3   OH257313   3.388   5.738   0.494 -0.8664  0.8589  0.3257
11941TIP3    H157314   3.442   5.688   0.555 -1.0370  0.3995  0.1029
11941TIP3    H257315   3.450   5.788   0.441 -0.6472  0.1839 -0.0616
11942TIP3   OH257316   1.516   2.717  15.685 -0.2284 -0.4335 -0.2599
11942TIP3    H157317   1.452   2.648  15.666 -0.1182 -1.2837  2.1318
11942TIP3    H257318   1.588   2.671  15.727  0.3653  1.0110  0.3411
11943TIP3   OH257319   2.671   2.754  10.836 -0.0524 -0.0181 -0.5331
11943TIP3    H157320   2.684   2.844  10.806  0.0457  0.5821  1.2051
11943TIP3    H257321   2.707   2.700  10.765  2.0432  1.3587 -0.6177
11944TIP3   OH257322   2.787   2.849   5.517 -0.1438 -0.4074  0.1997
11944TIP3    H157323   2.711   2.843   5.575  1.5005 -1.2401  2.4437
11944TIP3    H257324   2.813   2.941   5.520 -0.8800 -0.1773 -0.3443
11945TIP3   OH257325   2.141   1.594   1.624  0.1018  0.0139  0.0293
11945TIP3    H157326   2.158   1.647   1.546 -0.6001 -0.0011 -0.1442
11945TIP3    H257327   2.215   1.534   1.629  0.8045  0.8706  0.1094
11946TIP3   OH257328   5.770   4.935  15.516 -0.2852  0.6351  0.3088
11946TIP3    H157329   5.712   4.962  15.587 -2.9894  1.6395 -2.0720
11946TIP3    H257330   5.744   4.845  15.497 -0.9085  0.9929 -0.5839
11947TIP3   OH257331   3.106   3.499  11.124 -0.2184 -0.1426 -0.1630
11947TIP3    H157332   3.028   3.529  11.078 -0.9912 -0.0322  1.1797
11947TIP3    H257333   3.171   3.568  11.109 -1.0598  0.8220  0.4776
11948TIP3   OH257334   3.203   0.687  13.369 -0.0266 -0.3413  0.2703
11948TIP3    H157335   3.232   0.765  13.417  0.7013  0.3892 -1.2686
11948TIP3    H257336   3.152   0.637  13.433  0.1963  0.9755  1.5437
11949TIP3   OH257337   3.271   2.456   3.818  0.4840  0.0969  0.1793
11949TIP3    H157338   3.315   2.540   3.813  0.5005  0.1513  1.1412
11949TIP3    H257339   3.309   2.405   3.746  1.6584  0.3508  0.5988
11950TIP3   OH257340   2.095   2.206  15.908 -0.4963  0.1870  0.4168
11950TIP3    H157341   2.181   2.192  15.947 -0.7132  1.8085  1.5801
11950TIP3    H257342   2.071   2.121  15.871  1.3185 -0.4514  0.6142
11951TIP3   OH257343   2.615   4.589   3.852 -0.0023 -0.5874 -0.3241
11951TIP3    H157344   2.675   4.663   3.846  0.5775 -0.7102  2.4130
11951TIP3    H257345   2.659   4.519   3.804  0.8832  0.0103 -0.4188
11952TIP3   OH257346   6.056   3.814   6.597 -0.1379  0.2545  0.9614
11952TIP3    H157347   6.100   3.731   6.581  1.6960  1.2925  0.1999
11952TIP3    H257348   6.085   3.870   6.524  1.8005  2.6948  3.3951
11953TIP3   OH257349   0.071   3.735  11.852 -0.7677 -0.4250 -0.0941
11953TIP3    H157350   0.006   3.762  11.787 -0.2545  0.0857 -0.3994
11953TIP3    H257351   0.142   3.697  11.801  0.4170  1.5422  0.0073
11954TIP3   OH257352   3.328   4.531  13.192 -0.8221 -0.0970  0.1175
11954TIP3    H157353   3.318   4.624  13.211  1.2834 -0.2726  2.7642
11954TIP3    H257354   3.344   4.490  13.277 -0.9029 -2.7742 -1.0365
11955TIP3   OH257355   0.603   5.811  13.318 -0.0575  0.1512 -0.0757
11955TIP3    H157356   0.530   5.780  13.372 -0.7249  1.4226 -0.2168
11955TIP3    H257357   0.675   5.821  13.380  0.0089 -1.0531  0.0792
11956TIP3   OH257358   4.730   2.434   1.706 -0.0974 -0.3393 -0.1595
11956TIP3    H157359   4.720   2.349   1.664 -0.3093  0.6903 -2.3427
11956TIP3    H257360   4.810   2.426   1.757  0.4753 -1.5467 -1.1843
11957TIP3   OH257361   6.057   3.010   5.959 -0.1396  0.1143 -0.0617
11957TIP3    H157362   6.098   3.057   5.887  0.2345 -0.7111 -0.4057
11957TIP3    H257363   5.966   3.041   5.960 -0.9514 -1.7912 -2.6743
11958TIP3   OH257364   2.290   1.724   1.438  0.5336 -0.4974  0.0220
11958TIP3    H157365   2.219   1.761   1.385  0.4746 -1.1141 -0.3431
11958TIP3    H257366   2.332   1.800   1.479  0.8972  0.0387 -1.3008
11959TIP3   OH257367   6.272   6.199   3.305 -0.6404  0.3379 -0.6612
11959TIP3    H157368   6.326   6.200   3.385 -0.8271 -1.2525 -0.4799
11959TIP3    H257369   6.276   6.289   3.273 -0.7988  1.1047  1.3019
11960TIP3   OH257370   0.133   1.583  15.348  0.2803 -0.2420 -0.0559
11960TIP3    H157371   0.203   1.593  15.284 -0.1884 -1.7054 -0.8377
11960TIP3    H257372   0.124   1.488  15.360 -1.9915 -0.1568 -0.5052
11961TIP3   OH257373   6.692   1.232   1.681 -0.3039 -0.3304 -0.3913
11961TIP3    H157374   6.671   1.324   1.665  1.4612  0.0807 -0.5028
11961TIP3    H257375   6.713   1.228   1.774 -1.7300 -0.9246 -0.0716
11962TIP3   OH257376   0.694   5.999  15.767  0.0018 -0.2145  0.9496
11962TIP3    H157377   0.643   6.079  15.758  0.9581  0.2680 -0.4182
11962TIP3    H257378   0.663   5.960  15.849 -2.2409  0.2740  0.3989
11963TIP3   OH257379   1.754   1.777   4.016  0.5580 -0.6821  0.1011
11963TIP3    H157380   1.836   1.827   4.021 -0.0802  0.2782  1.3819
11963TIP3    H257381   1.780   1.687   4.038  1.6456 -0.9196 -1.8491
11964TIP3   OH257382   4.353   5.983  14.871  0.0526  0.3643  0.6392
11964TIP3    H157383   4.440   5.966  14.836  0.3005  0.5063  1.1757
11964TIP3    H257384   4.305   6.022  14.798  0.3587  0.0524  0.2658
11965TIP3   OH257385   5.752   3.279   3.030 -0.3023  0.1071  0.0211
11965TIP3    H157386   5.798   3.349   2.984 -0.8631 -0.3581 -1.2890
11965TIP3    H257387   5.735   3.315   3.117  0.2291  1.2473 -0.3275
11966TIP3   OH257388   1.512   3.979   2.088 -0.4044  0.0398 -0.3138
11966TIP3    H157389   1.523   4.040   2.161 -0.3856 -0.2999 -0.0321
11966TIP3    H257390   1.530   4.032   2.010  1.5861 -0.0666  0.0197
11967TIP3   OH257391   2.223   4.806   3.692 -0.1951  0.3196  0.0893
11967TIP3    H157392   2.142   4.790   3.643  0.9944 -0.4030 -1.7701
11967TIP3    H257393   2.245   4.721   3.730  0.2014  0.2484 -0.2833
11968TIP3   OH257394   1.256   2.070  11.468  0.3246  0.5695 -0.0745
11968TIP3    H157395   1.250   2.014  11.545 -2.0647  1.2811  0.3134
11968TIP3    H257396   1.169   2.067  11.428  1.1575  1.1686 -2.0836
11969TIP3   OH257397   3.124   2.373  16.770  0.9830 -0.0931 -0.1468
11969TIP3    H157398   3.091   2.450  16.816 -0.5399 -0.7647 -0.0615
11969TIP3    H257399   3.157   2.316  16.839  0.3262 -0.3427 -0.0366
11970TIP3   OH257400   3.436   1.317   6.220 -0.2809 -0.3153  0.6374
11970TIP3    H157401   3.471   1.312   6.309 -0.2989 -0.8426  0.6224
11970TIP3    H257402   3.502   1.364   6.170 -0.0195 -0.4937  0.8140
11971TIP3   OH257403   5.205   5.873  15.787 -0.3064  0.5674  0.1397
11971TIP3    H157404   5.204   5.784  15.823 -0.4580  0.5271  0.0375
11971TIP3    H257405   5.177   5.928  15.861 -1.3053  0.4120 -0.0996
11972TIP3   OH257406   3.867   4.205  11.627 -0.1754  0.2523 -0.7509
11972TIP3    H157407   3.905   4.210  11.715 -0.0832  0.5829 -0.8092
11972TIP3    H257408   3.902   4.123  11.591 -1.5487 -0.7598  0.1381
11973TIP3   OH257409   2.899   0.605   4.353  0.1953  0.1251  0.5855
11973TIP3    H157410   2.914   0.624   4.446 -0.7813 -0.6990  0.9267
11973TIP3    H257411   2.933   0.516   4.342 -2.2510 -0.9172  0.8578
11974TIP3   OH257412   0.560   0.734   5.821 -0.6127  0.3044  0.0527
11974TIP3    H157413   0.637   0.703   5.868 -0.2699  2.6090  1.1438
11974TIP3    H257414   0.501   0.659   5.818  0.8560 -0.9271  0.9410
11975TIP3   OH257415   0.750   3.266  14.128 -0.1036 -0.6346  0.5384
11975TIP3    H157416   0.716   3.294  14.044  2.0591  0.8044  0.0513
11975TIP3    H257417   0.794   3.183  14.110 -0.2570 -0.6860  0.4036
11976TIP3   OH257418   4.579   1.885  16.003  0.4255 -0.3084  0.0909
11976TIP3    H157419   4.624   1.907  16.084  1.4863 -0.7690 -0.3447
11976TIP3    H257420   4.492   1.856  16.030  0.2822  0.8670  0.9358
11977TIP3   OH257421   2.112   2.670  11.420  0.4500 -0.0032 -0.1405
11977TIP3    H157422   2.037   2.626  11.381  0.5630  0.3529 -0.7622
11977TIP3    H257423   2.148   2.605  11.481 -1.5474  0.5173  1.7112
11978TIP3   OH257424   2.360   3.640   3.956 -0.3438 -0.3798  0.0853
11978TIP3    H157425   2.265   3.648   3.961 -0.3898 -0.5053 -0.6047
11978TIP3    H257426   2.377   3.599   3.871  0.3380 -0.1599  0.1097
11979TIP3   OH257427   1.509   6.006  15.849  0.7224  0.1917 -0.0465
11979TIP3    H157428   1.460   6.065  15.792  1.3965  2.5864  1.6691
11979TIP3    H257429   1.450   5.932  15.863 -0.5816  0.8934 -1.5201
11980TIP3   OH257430   0.070   2.380   4.636 -0.3793 -0.1244  0.0890
11980TIP3    H157431   0.160   2.410   4.643 -0.0005 -1.0967 -0.4068
11980TIP3    H257432   0.065   2.305   4.696 -1.0488  0.3207  0.6137
11981TIP3   OH257433   1.174   3.589   3.574 -0.0939 -0.2820 -0.0794
11981TIP3    H157434   1.253   3.548   3.540  0.1742  0.4371 -0.3565
11981TIP3    H257435   1.158   3.548   3.659  1.1171  0.2362  0.4130
11982TIP3   OH257436   2.449   5.765  13.943 -0.5304  0.4428 -0.3469
11982TIP3    H157437   2.541   5.788  13.933 -0.6130  0.6156 -0.7425
11982TIP3    H257438   2.409   5.790  13.859 -0.8235 -0.1702 -0.3909
11983TIP3   OH257439   4.373   3.420   5.265 -0.2948  0.0847  0.4124
11983TIP3    H157440   4.361   3.355   5.334  0.2611  0.7862  1.1801
11983TIP3    H257441   4.394   3.368   5.187 -0.6276 -0.6950  0.8317
11984TIP3   OH257442   2.364   1.082  10.881  0.0655  0.6422 -0.0275
11984TIP3    H157443   2.445   1.125  10.856 -2.1857  5.2492 -0.4882
11984TIP3    H257444   2.297   1.122  10.825 -2.7551 -1.9303  1.1934
11985TIP3   OH257445   3.232   0.214   2.855 -0.1950  0.2994 -0.4359
11985TIP3    H157446   3.299   0.157   2.818  0.1023 -0.4659  1.1930
11985TIP3    H257447   3.282   0.285   2.897 -0.5148  1.0129 -1.2231
11986TIP3   OH257448   2.130   6.113  15.328 -0.1999 -0.5934 -0.0048
11986TIP3    H157449   2.166   6.201  15.322 -1.2195 -0.1363  0.4056
11986TIP3    H257450   2.202   6.056  15.301  0.2497  0.3966 -0.9668
11987TIP3   OH257451   0.167   2.369   3.781  0.7171  0.0847 -0.1225
11987TIP3    H157452   0.085   2.392   3.738  1.4749  0.0677 -1.6490
11987TIP3    H257453   0.141   2.312   3.854 -0.8405  2.3531  1.2333
11988TIP3   OH257454   6.668   2.851  12.970 -0.1081  0.1477  0.4239
11988TIP3    H157455   6.662   2.760  12.942  1.9767  0.6589 -2.0214
11988TIP3    H257456   6.762   2.864  12.987 -0.3615  1.8594  0.6341
11989TIP3   OH257457   3.267   2.257  11.475 -0.3354  0.4578 -0.0934
11989TIP3    H157458   3.346   2.304  11.500  0.2756 -0.3099 -0.5514
11989TIP3    H257459   3.247   2.287  11.386 -0.1537  0.1244 -0.2463
11990TIP3   OH257460   6.020   4.091   3.802  0.4495 -0.5159  0.2742
11990TIP3    H157461   6.070   4.071   3.723 -0.0318 -0.8018  0.0343
11990TIP3    H257462   5.930   4.067   3.780  0.1978  0.0336  0.6834
11991TIP3   OH257463   6.822   6.818  11.251 -0.0295 -0.2088  0.2120
11991TIP3    H157464   6.802   6.724  11.261 -0.0417 -0.1264  1.0703
11991TIP3    H257465   6.917   6.823  11.253 -0.0435 -0.1399  0.8556
11992TIP3   OH257466   5.098   4.729   1.518  0.2207 -0.4079  0.0330
11992TIP3    H157467   5.174   4.770   1.478 -0.2374  0.0566 -0.3906
11992TIP3    H257468   5.025   4.750   1.459 -0.5290  0.5590  1.2295
11993TIP3   OH257469   0.044   5.518  15.771 -0.1310  0.3621 -0.7049
11993TIP3    H157470  -0.041   5.505  15.729 -1.5630  2.3844  1.2805
11993TIP3    H257471   0.054   5.614  15.775 -0.0378  0.3583  3.1090
11994TIP3   OH257472   6.657   3.381   3.515  0.5530  0.3989  0.5882
11994TIP3    H157473   6.612   3.451   3.469  0.6994  0.6283  0.7879
11994TIP3    H257474   6.749   3.394   3.495  0.6838  0.8745  1.4282
11995TIP3   OH257475   4.914   4.621   4.814 -0.1170 -0.2182 -0.4589
11995TIP3    H157476   4.836   4.566   4.822 -1.4791  1.8186  1.5704
11995TIP3    H257477   4.939   4.641   4.904  1.8557  0.4169 -1.0970
11996TIP3   OH257478   6.317   6.540   3.147 -0.0948 -0.4038  0.5132
11996TIP3    H157479   6.225   6.540   3.174 -0.2551  0.2619 -0.0168
11996TIP3    H257480   6.316   6.507   3.057  0.0137  0.9260 -0.0023
11997TIP3   OH257481   2.760   1.422  12.018 -0.2980  0.4938  0.5304
11997TIP3    H157482   2.684   1.474  12.044 -0.9338 -0.4102  0.5216
11997TIP3    H257483   2.765   1.352  12.083 -1.1962 -1.1110 -1.0205
11998TIP3   OH257484   6.164   5.007  14.962  0.0827  0.2628  0.4677
11998TIP3    H157485   6.110   5.009  14.883 -2.7272  0.9382  2.2546
11998TIP3    H257486   6.154   5.094  15.000  1.5022  0.0049  1.5075
11999TIP3   OH257487   4.037   1.200  12.185  0.0162  0.1118  0.0077
11999TIP3    H157488   4.066   1.189  12.094  1.5274 -0.6472  0.5387
11999TIP3    H257489   3.955   1.150  12.190  0.5749 -0.9184 -0.6479
12000TIP3   OH257490   3.393   0.277  11.322  0.0917  0.1944  0.3015
12000TIP3    H157491   3.357   0.284  11.233  2.4617  1.7752 -0.6122
12000TIP3    H257492   3.426   0.187  11.326  0.3103  0.2164 -0.5986
12001TIP3   OH257493   1.566   0.409  16.168  0.8333  0.4170  0.3155
12001TIP3    H157494   1.625   0.346  16.210  1.0318  0.2809 -0.1699
12001TIP3    H257495   1.572   0.390  16.075  0.4058  0.7370  0.2196
12002TIP3   OH257496   3.326   4.334  16.038 -0.3343  0.7835 -0.0094
12002TIP3    H157497   3.358   4.249  16.008  0.1463  0.6461  0.8677
12002TIP3    H257498   3.235   4.317  16.064  0.5591 -0.1770  2.8662
12003TIP3   OH257499   3.813   2.078   2.414  0.6645  0.4894  0.5061
12003TIP3    H157500   3.788   2.107   2.502  0.5719  1.1187  0.2768
12003TIP3    H257501   3.797   2.154   2.358 -2.7028 -0.9241 -0.7160
12004TIP3   OH257502   0.528   5.345  11.622 -0.0199 -0.2325 -0.5249
12004TIP3    H157503   0.577   5.349  11.539  1.1621  2.0994  0.2035
12004TIP3    H257504   0.595   5.356  11.689 -1.4018  2.6214  0.5327
12005TIP3   OH257505   4.349   0.146   4.268 -0.0102  0.0795  0.1059
12005TIP3    H157506   4.331   0.195   4.188  1.5080  0.4698 -0.0120
12005TIP3    H257507   4.326   0.206   4.339 -0.9249 -0.1051 -0.0213
12006TIP3   OH257508   5.168   6.386   2.207 -0.4941  0.0544  0.3179
12006TIP3    H157509   5.197   6.320   2.145 -2.3151 -0.7296  0.2597
12006TIP3    H257510   5.076   6.366   2.223 -0.3461  0.8462  2.5055
12007TIP3   OH257511   5.645   6.237   3.450 -0.2212  0.4356  0.7198
12007TIP3    H157512   5.602   6.232   3.535 -1.0998 -0.9631  0.2136
12007TIP3    H257513   5.618   6.158   3.403  3.0404 -0.6667  0.4196
12008TIP3   OH257514   0.128   0.648   4.505  0.8019  0.0054  0.1538
12008TIP3    H157515   0.178   0.597   4.442  0.6403 -0.8909  0.7389
12008TIP3    H257516   0.159   0.738   4.494  1.5601 -0.3255 -0.4303
12009TIP3   OH257517   3.930   1.126  12.493  0.2785 -0.0457 -0.1761
12009TIP3    H157518   3.870   1.060  12.528 -0.7065  1.0735  0.3186
12009TIP3    H257519   4.015   1.103  12.531  0.0033 -1.1265 -0.1709
12010TIP3   OH257520   5.865   5.734   1.296 -0.3667  0.0625  0.2478
12010TIP3    H157521   5.813   5.725   1.376 -1.1379  1.7115 -0.0269
12010TIP3    H257522   5.930   5.664   1.302 -0.3077  0.2313  2.3865
12011TIP3   OH257523   3.343   0.436  13.717 -0.1281 -0.1792  0.0837
12011TIP3    H157524   3.292   0.357  13.732 -2.1188  0.9139 -0.6218
12011TIP3    H257525   3.279   0.505  13.708  1.5271  1.4120 -0.1272
12012TIP3   OH257526   0.861   1.016   2.464 -0.0381 -0.1076  0.3933
12012TIP3    H157527   0.947   1.060   2.465  0.4285 -0.8891 -1.4098
12012TIP3    H257528   0.877   0.934   2.511  0.0195  0.0369  0.6318
12013TIP3   OH257529   2.466   3.461   1.749 -0.8670 -0.5018  0.1940
12013TIP3    H157530   2.391   3.401   1.739 -1.6321  0.6238 -1.0527
12013TIP3    H257531   2.542   3.408   1.724 -1.5239 -0.9808 -0.8633
12014TIP3   OH257532   4.206   2.674  17.057  0.1671  0.0794 -0.3016
12014TIP3    H157533   4.241   2.625  16.983  0.2671  1.1398 -0.9708
12014TIP3    H257534   4.210   2.613  17.131  0.4631 -0.8435 -1.0743
12015TIP3   OH257535   2.783   3.111  13.973 -0.1416  0.3047  0.0709
12015TIP3    H157536   2.824   3.078  14.053 -1.1953 -1.4152 -0.0529
12015TIP3    H257537   2.787   3.037  13.912 -1.1608  0.9276 -0.7791
12016TIP3   OH257538   2.004   1.830   3.480  0.4100 -0.4975 -0.1033
12016TIP3    H157539   2.060   1.760   3.445  1.1021  0.8460 -1.8567
12016TIP3    H257540   2.050   1.860   3.558  0.4738 -1.5008  0.2675
12017TIP3   OH257541   1.348   1.174  15.483 -0.4849  0.3452  0.2513
12017TIP3    H157542   1.395   1.207  15.406 -1.7941  2.1822  0.1818
12017TIP3    H257543   1.319   1.087  15.457  0.0973  0.4693 -0.8964
12018TIP3   OH257544   2.558   0.034  16.155  0.6354  0.0759 -0.2471
12018TIP3    H157545   2.576   0.102  16.220 -2.3026 -0.0779  0.8673
12018TIP3    H257546   2.592  -0.047  16.194 -0.7564  0.0494  1.0038
12019TIP3   OH257547   2.812   3.905  13.881 -0.1194  0.1688 -0.0971
12019TIP3    H157548   2.764   3.988  13.890  0.0187  0.0370  2.8447
12019TIP3    H257549   2.744   3.841  13.862 -0.4099  0.7432 -1.0561
12020TIP3   OH257550   3.238   1.555   5.748 -0.5813  0.0888  0.1427
12020TIP3    H157551   3.281   1.568   5.832  1.1482 -0.5002 -0.6119
12020TIP3    H257552   3.162   1.500   5.768 -0.1015 -0.1821  1.2841
12021TIP3   OH257553   6.708   2.460   3.389 -0.4383  0.0274 -1.2482
12021TIP3    H157554   6.690   2.380   3.339  1.0207 -1.3138  0.2389
12021TIP3    H257555   6.667   2.530   3.338 -2.7264 -1.7684 -2.0509
12022TIP3   OH257556   5.919   2.457   4.064 -0.5520 -0.2301  0.1640
12022TIP3    H157557   5.938   2.424   3.976 -1.2805 -0.0730 -0.0565
12022TIP3    H257558   5.826   2.438   4.078 -0.2226 -1.1698  1.3053
12023TIP3   OH257559   6.077   1.762   2.833  0.1810 -0.2897  0.3579
12023TIP3    H157560   6.088   1.849   2.794 -0.0902 -0.4290 -0.0360
12023TIP3    H257561   6.053   1.779   2.924 -0.1200  0.0492  0.2162
12024TIP3   OH257562   0.066   6.564   5.879 -0.0981 -0.3035  0.3576
12024TIP3    H157563   0.037   6.492   5.935  0.0864 -1.3810 -0.8518
12024TIP3    H257564   0.162   6.561   5.885 -0.0204 -1.1658 -0.8229
12025TIP3   OH257565   1.853   4.070   3.379  0.3211 -0.6502 -0.4755
12025TIP3    H157566   1.934   4.109   3.346 -1.1510  0.9940 -2.3618
12025TIP3    H257567   1.867   3.975   3.371  1.5432 -0.3741 -2.0981
12026TIP3   OH257568   3.244   0.137  15.641  0.1633 -0.2362  0.0742
12026TIP3    H157569   3.254   0.078  15.566  0.6896 -0.3822  0.2537
12026TIP3    H257570   3.159   0.114  15.678 -1.4747  1.7687 -2.1323
12027TIP3   OH257571   0.898   2.796  12.070  0.1309  0.6227 -0.2461
12027TIP3    H157572   0.900   2.840  12.155  0.5776 -0.7892  0.5079
12027TIP3    H257573   0.975   2.829  12.024  0.5968  0.4746  0.4019
12028TIP3   OH257574   1.591   6.306  16.766  0.2032 -0.1746 -0.0881
12028TIP3    H157575   1.505   6.330  16.799  0.5535 -0.3771  1.0078
12028TIP3    H257576   1.616   6.228  16.816  1.3784  0.3771  0.2358
12029TIP3   OH257577   4.205   2.338  11.629  0.2225  0.6262  0.2012
12029TIP3    H157578   4.215   2.243  11.630 -1.5000  0.4231  0.3426
12029TIP3    H257579   4.138   2.356  11.695 -1.8162  1.6235 -2.0180
12030TIP3   OH257580   3.357   2.282  15.992  0.1695  0.0273 -0.1479
12030TIP3    H157581   3.424   2.334  15.948 -0.9402  0.4671 -1.3920
12030TIP3    H257582   3.356   2.198  15.945 -1.7014  0.8508 -1.7076
12031TIP3   OH257583   5.703   1.558  15.509  0.2308 -0.4574  0.1237
12031TIP3    H157584   5.621   1.549  15.558 -0.6882 -0.6292 -1.3904
12031TIP3    H257585   5.701   1.648  15.478  1.3752  0.0135  1.3248
12032TIP3   OH257586   3.814   1.114   4.112  0.4745 -0.7254  0.1814
12032TIP3    H157587   3.867   1.192   4.129 -1.3579  0.7275 -0.3682
12032TIP3    H257588   3.873   1.054   4.067  1.8193  0.5325  0.1859
12033TIP3   OH257589   5.863   4.763  13.440  0.1699  0.4155  0.7752
12033TIP3    H157590   5.889   4.672  13.457 -2.9323 -1.0275 -1.1620
12033TIP3    H257591   5.807   4.757  13.362  0.3253  4.1327  0.2030
12034TIP3   OH257592   2.636   5.954  17.104 -0.1095  0.1107  0.1883
12034TIP3    H157593   2.621   5.896  17.179  0.9857  0.5838  0.7916
12034TIP3    H257594   2.564   6.016  17.107  0.3932  0.6585  1.3838
12035TIP3   OH257595   4.641   0.953   3.768 -0.1379  0.5519 -0.7441
12035TIP3    H157596   4.587   0.935   3.692 -1.3805 -0.3072  0.2960
12035TIP3    H257597   4.652   1.048   3.769 -0.5637  0.6216 -1.6721
12036TIP3   OH257598   1.334   1.642   0.758  0.0239  0.0639 -0.2228
12036TIP3    H157599   1.370   1.730   0.761 -0.8145  0.4043  0.1108
12036TIP3    H257600   1.255   1.650   0.705 -0.1824 -0.4427 -0.0007
12037TIP3   OH257601   4.875   5.205   0.975 -0.0547 -0.2961 -0.4216
12037TIP3    H157602   4.840   5.160   1.052  0.7707  0.1955  0.2614
12037TIP3    H257603   4.964   5.230   1.000 -0.0488  0.5805 -1.2458
12038TIP3   OH257604   5.486   3.761   5.973  0.2433 -0.3189 -0.6261
12038TIP3    H157605   5.441   3.842   5.995  1.0707  0.4615 -1.7256
12038TIP3    H257606   5.527   3.778   5.889  2.2058 -1.1305  0.1017
12039TIP3   OH257607   4.451   1.280  13.842  0.0921  0.2896 -0.4228
12039TIP3    H157608   4.456   1.276  13.938 -0.7645  0.3270 -0.3694
12039TIP3    H257609   4.502   1.204  13.813 -1.5468 -1.0730  0.1326
12040TIP3   OH257610   2.285   1.317  16.347 -0.0543  0.5423 -0.1679
12040TIP3    H157611   2.296   1.228  16.311 -0.6068 -0.7295  2.5576
12040TIP3    H257612   2.356   1.367  16.309 -1.0450 -0.3826 -3.6029
12041TIP3   OH257613   3.720   3.872  14.175  0.2729  0.4343 -0.3981
12041TIP3    H157614   3.733   3.928  14.099  0.3492  1.0196  0.0360
12041TIP3    H257615   3.691   3.788  14.139 -1.5924  1.2649 -0.9764
12042TIP3   OH257616   4.918   4.820   6.535 -0.1924 -0.0667  0.1004
12042TIP3    H157617   5.011   4.809   6.517 -0.0858  0.1990  0.4705
12042TIP3    H257618   4.887   4.882   6.470 -0.0029  0.2224  0.2870
12043TIP3   OH257619   2.943   3.577   5.652  0.1202 -0.0394 -0.7304
12043TIP3    H157620   2.918   3.503   5.707 -0.6770  0.9325  0.2654
12043TIP3    H257621   2.924   3.654   5.706  1.2385  0.8843 -1.6085
12044TIP3   OH257622   1.733   0.800   0.542 -0.2923  0.0511  0.3552
12044TIP3    H157623   1.692   0.877   0.501  1.5170  0.3336 -1.0801
12044TIP3    H257624   1.816   0.833   0.576  1.4653 -1.5615 -2.0335
12045TIP3   OH257625   0.757   3.095   4.631  0.4917  0.2156 -0.1341
12045TIP3    H157626   0.687   3.157   4.609  0.0824 -0.0922  0.3025
12045TIP3    H257627   0.771   3.046   4.551 -0.6574 -0.5690  0.1230
12046TIP3   OH257628   5.541   6.401   3.194 -0.2449 -0.9974  0.9584
12046TIP3    H157629   5.537   6.344   3.118  1.7987  0.3700 -0.2561
12046TIP3    H257630   5.611   6.366   3.248  0.5346 -0.1097  0.5574
12047TIP3   OH257631   5.750   1.278  11.556  0.1422  0.5546 -0.1523
12047TIP3    H157632   5.831   1.318  11.523 -0.7722  2.6250  0.0241
12047TIP3    H257633   5.714   1.231  11.480  1.3988 -0.2721 -0.2736
12048TIP3   OH257634   5.875   0.388  15.262 -0.1249 -0.2817  0.5754
12048TIP3    H157635   5.922   0.310  15.293  1.0304 -0.5150 -1.5663
12048TIP3    H257636   5.939   0.459  15.272 -0.2394 -0.1088  0.0857
12049TIP3   OH257637   4.433   1.115  14.937  0.4894  0.1602  0.0391
12049TIP3    H157638   4.508   1.094  14.882  0.5129  0.1442  0.0774
12049TIP3    H257639   4.402   1.200  14.904  0.2602 -0.0376 -0.2575
12050TIP3   OH257640   2.935   5.073  14.749 -0.7566  0.3605 -0.1985
12050TIP3    H157641   2.942   4.985  14.785 -2.1583  0.6447  0.8663
12050TIP3    H257642   2.884   5.062  14.669  0.5666 -0.0006 -1.0167
12051TIP3   OH257643   0.791   1.124   3.192  0.1603  0.0644 -0.2719
12051TIP3    H157644   0.783   1.171   3.275  0.4557  0.3824 -0.4182
12051TIP3    H257645   0.817   1.036   3.217 -1.4892 -0.3554  0.0669
12052TIP3   OH257646   5.698   2.415   5.533 -0.2693  0.1305  0.7857
12052TIP3    H157647   5.729   2.325   5.541 -2.7177 -0.8221  0.4275
12052TIP3    H257648   5.617   2.416   5.584 -1.1258  1.6871 -0.5320
12053TIP3   OH257649   1.194   3.837  12.426 -0.1318  0.3159  0.3155
12053TIP3    H157650   1.161   3.926  12.441 -2.0842 -0.5732  1.7354
12053TIP3    H257651   1.288   3.848  12.413 -0.2616  2.5426  0.8545
12054TIP3   OH257652   3.030   3.835   5.285  0.4368  0.4815 -0.1176
12054TIP3    H157653   3.043   3.740   5.289  0.3572  0.4466 -0.7059
12054TIP3    H257654   3.041   3.857   5.193  0.9238  1.1137  0.0833
12055TIP3   OH257655   4.117   0.598   1.396 -0.3483 -0.5914 -0.3516
12055TIP3    H157656   4.034   0.553   1.411 -0.0636 -0.3129  2.6775
12055TIP3    H257657   4.092   0.689   1.378 -0.7406 -0.3975  1.0555
12056TIP3   OH257658   0.708   2.776   4.584 -0.3639  0.6617 -0.1256
12056TIP3    H157659   0.777   2.765   4.518 -1.0197 -0.8824 -0.6035
12056TIP3    H257660   0.634   2.811   4.535  0.0444  2.3505  0.3933
12057TIP3   OH257661   6.022   2.150  16.862  0.4870 -0.7193  0.0129
12057TIP3    H157662   5.944   2.178  16.814 -0.0835 -1.5495  0.4115
12057TIP3    H257663   5.993   2.071  16.909  1.9533 -1.8671 -0.9161
12058TIP3   OH257664   6.025   0.395   1.466 -0.0050 -0.0622 -0.0657
12058TIP3    H157665   6.023   0.361   1.556 -1.7553 -1.7349 -0.6623
12058TIP3    H257666   5.950   0.455   1.462 -0.6619 -0.8971 -0.6958
12059TIP3   OH257667   5.523   4.175  11.614 -0.2462  0.6800 -0.6012
12059TIP3    H157668   5.579   4.177  11.692  0.6257  1.2456 -1.2315
12059TIP3    H257669   5.447   4.122  11.641  0.2446  0.5017  0.4897
12060TIP3   OH257670   2.908   5.045  16.862  0.0760  1.0835 -0.3341
12060TIP3    H157671   2.971   4.972  16.859 -1.4528 -0.4642  1.8860
12060TIP3    H257672   2.937   5.099  16.935 -1.4975 -0.1099  1.2794
12061TIP3   OH257673   5.781   1.590   0.034  0.2750 -0.1316 -0.1450
12061TIP3    H157674   5.858   1.552  -0.008  1.2225  0.7891  0.7034
12061TIP3    H257675   5.744   1.518   0.085  1.0709 -0.3776  0.1030
12062TIP3   OH257676   0.903   5.907   2.722  0.0387 -0.1374 -0.1307
12062TIP3    H157677   0.880   5.976   2.661  0.7743  0.1911 -0.0517
12062TIP3    H257678   0.831   5.904   2.784 -0.0343  0.5078 -0.1802
12063TIP3   OH257679   4.127   3.485  16.268  0.0081  0.2303  0.2296
12063TIP3    H157680   4.128   3.436  16.187 -4.2977 -1.2893  0.8432
12063TIP3    H257681   4.086   3.569  16.245 -1.8132 -0.4480  0.8214
12064TIP3   OH257682   4.400   2.903  16.124  0.0902  0.1567 -0.1131
12064TIP3    H157683   4.394   2.808  16.131 -0.6147  0.2223  0.2928
12064TIP3    H257684   4.493   2.921  16.117  0.2659 -0.5311  0.3873
12065TIP3   OH257685   1.382   4.694  16.147 -0.0590  0.0630  0.4085
12065TIP3    H157686   1.294   4.666  16.172 -0.4712  1.0994  0.1841
12065TIP3    H257687   1.369   4.778  16.103  0.9856 -0.0964 -0.2395
12066TIP3   OH257688   5.891   6.375   3.520  0.3898  0.4745  0.0023
12066TIP3    H157689   5.926   6.449   3.470 -0.4834  1.2114  0.4525
12066TIP3    H257690   5.798   6.372   3.497  0.2092  0.1355  0.7276
12067TIP3   OH257691   2.606   1.620   3.495 -0.1939  0.1517 -0.3868
12067TIP3    H157692   2.578   1.532   3.519  1.1209  0.1130  1.1332
12067TIP3    H257693   2.621   1.615   3.401  1.1253 -1.6496 -0.1439
12068TIP3   OH257694   6.427   0.943   3.429  0.3358 -0.1517  0.1448
12068TIP3    H157695   6.438   1.030   3.389  0.3254 -1.3031 -2.5910
12068TIP3    H257696   6.392   0.961   3.516  0.7563  2.5971 -0.1668
12069TIP3   OH257697   0.176   5.373   2.921  0.1961 -0.4183 -0.4466
12069TIP3    H157698   0.225   5.366   2.840  0.4455 -2.2711 -0.1765
12069TIP3    H257699   0.203   5.457   2.958  0.9607 -0.0866 -1.6913
12070TIP3   OH257700   3.980   5.541   1.948  0.6995  0.1501 -0.2820
12070TIP3    H157701   3.921   5.583   2.010  0.4437 -0.7254  0.0851
12070TIP3    H257702   3.927   5.526   1.869  1.3199  2.2746 -1.1758
12071TIP3   OH257703   1.897   6.493   5.710  0.3063 -0.1361 -0.4630
12071TIP3    H157704   1.847   6.427   5.663  0.0124 -0.1258 -0.1694
12071TIP3    H257705   1.935   6.446   5.784 -0.9204  0.2633  0.4639
12072TIP3   OH257706   0.766   4.138  16.816 -0.5448 -0.4958 -0.6797
12072TIP3    H157707   0.767   4.232  16.834 -0.3607 -0.5797 -0.2407
12072TIP3    H257708   0.850   4.106  16.850 -0.0284 -0.6091 -2.0177
12073TIP3   OH257709   3.150   0.055   5.667  0.7119 -0.2470  0.4651
12073TIP3    H157710   3.059   0.031   5.649  0.3678  1.5799 -0.4577
12073TIP3    H257711   3.146   0.111   5.744  1.1062 -0.4023  0.6031
12074TIP3   OH257712   2.281   2.888   4.336 -0.1180 -0.2009  0.1297
12074TIP3    H157713   2.204   2.932   4.301 -0.8645 -0.1573  1.7613
12074TIP3    H257714   2.315   2.837   4.262 -1.2906  0.3271 -0.8066
12075TIP3   OH257715   1.202   5.565  15.756 -0.3139 -0.2843 -0.1603
12075TIP3    H157716   1.133   5.630  15.765 -0.1008  0.0317 -0.7608
12075TIP3    H257717   1.168   5.502  15.692  0.7378  0.9783 -2.0704
12076TIP3   OH257718   6.265   4.256   5.663  0.6259  1.0422  0.2568
12076TIP3    H157719   6.347   4.257   5.614  0.8327  1.4990  0.5950
12076TIP3    H257720   6.233   4.167   5.655 -1.0150  1.7422 -3.4434
12077TIP3   OH257721   6.579   2.076   4.829 -0.1636  0.1515 -0.3657
12077TIP3    H157722   6.629   2.006   4.869 -1.3413 -1.6072 -1.7791
12077TIP3    H257723   6.555   2.133   4.902 -0.7825 -1.9631  1.2033
12078TIP3   OH257724   5.516   5.551   2.984 -0.5146 -0.2550  0.4939
12078TIP3    H157725   5.579   5.585   2.921  0.8332  1.2452  2.5503
12078TIP3    H257726   5.540   5.459   2.995 -0.6627 -0.4943 -0.9972
12079TIP3   OH257727   0.705   0.860  15.207 -0.3630 -0.1476 -0.5012
12079TIP3    H157728   0.654   0.785  15.234 -0.0899  0.0270  0.5301
12079TIP3    H257729   0.779   0.862  15.267 -0.1285  0.6786 -0.8005
12080TIP3   OH257730   0.192   5.175   4.417  0.0748  0.3730  0.1309
12080TIP3    H157731   0.234   5.206   4.497 -0.5175 -0.5561  0.8197
12080TIP3    H257732   0.247   5.103   4.387  0.3549  0.7861 -0.3753
12081TIP3   OH257733   2.222   2.586  16.099  0.1516  0.3441  0.0719
12081TIP3    H157734   2.282   2.604  16.026  0.4033 -1.6946 -0.3053
12081TIP3    H257735   2.246   2.649  16.166  1.0124  1.2206 -1.0191
12082TIP3   OH257736   2.963   5.044  15.314  0.4821 -0.4006 -0.4735
12082TIP3    H157737   3.023   5.088  15.374  1.0284  1.1956 -2.0697
12082TIP3    H257738   3.005   4.959  15.296  0.2422 -0.9526  1.4139
12083TIP3   OH257739   3.532   3.785  11.821 -0.6954 -0.1416 -0.0363
12083TIP3    H157740   3.522   3.862  11.765  0.3323 -0.3924 -0.5955
12083TIP3    H257741   3.572   3.818  11.901  1.0968 -0.2668 -0.8310
12084TIP3   OH257742   6.488   2.907   4.168 -0.6599 -0.1169 -0.4225
12084TIP3    H157743   6.456   2.941   4.085 -0.6248  0.2889 -0.2710
12084TIP3    H257744   6.440   2.825   4.180 -1.5713  0.4227 -0.2539
12085TIP3   OH257745   4.043   5.375  14.334 -0.1113  0.0487  0.6840
12085TIP3    H157746   3.953   5.342  14.330  0.2313 -0.9079  0.4895
12085TIP3    H257747   4.078   5.360  14.246  0.1810  0.5961  0.7013
12086TIP3   OH257748   4.739   4.137  15.050 -0.6037 -0.1335 -0.3207
12086TIP3    H157749   4.776   4.171  14.968 -2.1218  2.0456 -0.1852
12086TIP3    H257750   4.775   4.195  15.117  0.2173 -1.5855  0.5408
12087TIP3   OH257751   6.105   2.385   1.575  0.3492 -0.4590 -0.1947
12087TIP3    H157752   6.095   2.469   1.529  1.7095 -0.5151 -0.6506
12087TIP3    H257753   6.029   2.380   1.632 -0.5286  0.4063 -1.2254
12088TIP3   OH257754   5.025   0.809   1.398  0.1357  0.0356 -0.1820
12088TIP3    H157755   5.004   0.890   1.351 -0.2883  0.6059  0.9624
12088TIP3    H257756   5.104   0.776   1.355  0.5993  1.3164 -0.3539
12089TIP3   OH257757   2.366   1.018  13.851 -0.3128 -0.1107 -0.2851
12089TIP3    H157758   2.442   1.070  13.825 -1.8630  3.3063  1.3772
12089TIP3    H257759   2.403   0.944  13.899  2.0185  1.3967  0.4427
12090TIP3   OH257760   2.069   4.684  10.901 -0.6042 -0.1421  0.0828
12090TIP3    H157761   2.072   4.725  10.814  1.9174 -0.1711  0.0732
12090TIP3    H257762   2.107   4.750  10.959  1.4023 -1.5370  0.4497
12091TIP3   OH257763   6.380   5.697  16.239  0.3894 -0.4074 -0.3892
12091TIP3    H157764   6.394   5.704  16.333 -0.9098 -1.6809 -0.0618
12091TIP3    H257765   6.382   5.603  16.221 -0.4763 -0.2531 -1.4303
12092TIP3   OH257766   5.584   1.839   4.139  0.5087 -0.0928  0.1439
12092TIP3    H157767   5.551   1.928   4.153  0.7653  0.4363 -2.1692
12092TIP3    H257768   5.655   1.850   4.076  1.4632 -1.8125  0.8709
12093TIP3   OH257769   3.978   3.538   5.425 -0.1964  0.2310 -0.0314
12093TIP3    H157770   3.964   3.443   5.424  1.5535 -0.1363  2.1869
12093TIP3    H257771   4.034   3.553   5.501  1.0398  2.8654 -1.3405
12094TIP3   OH257772   6.181   0.696  14.961 -0.0563  0.3071  0.3160
12094TIP3    H157773   6.194   0.774  14.907 -0.1119 -0.3431 -0.6801
12094TIP3    H257774   6.096   0.662  14.933  0.9656 -1.3698 -0.9690
12095TIP3   OH257775   1.099   0.793   4.965 -0.1336 -0.5031 -0.4567
12095TIP3    H157776   1.117   0.727   4.898  0.4919  0.2965 -1.0849
12095TIP3    H257777   1.014   0.829   4.940 -0.1628 -0.5931 -0.4906
12096TIP3   OH257778   2.606   3.864  15.586 -0.2556 -0.0734 -0.0886
12096TIP3    H157779   2.585   3.946  15.631 -0.3633  0.2918 -0.7910
12096TIP3    H257780   2.697   3.846  15.611  0.7732  1.7912 -2.1541
12097TIP3   OH257781   6.342   6.341  15.445 -0.2951  0.4629 -0.2457
12097TIP3    H157782   6.250   6.321  15.428 -0.0634 -2.1666  1.0512
12097TIP3    H257783   6.381   6.355  15.359 -1.4829 -0.6202 -0.9919
12098TIP3   OH257784   1.645   5.811  16.887  0.2337  0.1782  0.3575
12098TIP3    H157785   1.593   5.796  16.808  1.5610  0.3800 -0.6026
12098TIP3    H257786   1.735   5.818  16.855  0.4843  3.9321  1.3984
12099TIP3   OH257787   2.777   1.199  11.685  0.9861 -0.2072  0.4544
12099TIP3    H157788   2.859   1.191  11.734  1.1602  1.6037  0.5380
12099TIP3    H257789   2.804   1.205  11.593  0.9480  0.2960  0.4742
12100TIP3   OH257790   3.296   2.415  14.034  0.5148  0.2127  0.3260
12100TIP3    H157791   3.304   2.437  14.127  0.8741 -0.2334  0.4002
12100TIP3    H257792   3.375   2.451  13.994  1.3780 -1.3758  0.5354
12101TIP3   OH257793   3.753   4.875   4.830 -0.0900  0.0481  0.0979
12101TIP3    H157794   3.814   4.809   4.798 -0.3416 -0.1077 -0.0613
12101TIP3    H257795   3.698   4.829   4.894 -0.1930  0.1288  0.0695
12102TIP3   OH257796   2.164   5.658  15.489 -0.3106 -0.2497  0.5554
12102TIP3    H157797   2.247   5.621  15.519  0.8914  0.6559 -1.4150
12102TIP3    H257798   2.133   5.711  15.562 -0.6534 -2.7716  2.3840
12103TIP3   OH257799   2.911   0.428   3.984 -0.0948  0.3145  0.3225
12103TIP3    H157800   2.873   0.396   3.902 -2.3719 -4.5378  2.8432
12103TIP3    H257801   2.844   0.487   4.019  0.3257  1.4030 -0.6281
12104TIP3   OH257802   0.138   2.962  10.467  0.2022  0.3150 -0.8056
12104TIP3    H157803   0.210   3.006  10.512  0.3985 -0.2675 -0.5371
12104TIP3    H257804   0.060   3.005  10.500  0.4721  2.5301 -2.7949
12105TIP3   OH257805   4.442   4.993   5.662  0.5630 -0.7034  0.1876
12105TIP3    H157806   4.522   4.948   5.690  1.0599 -0.1969 -0.3931
12105TIP3    H257807   4.469   5.085   5.652 -0.3182 -0.3460  0.8921
12106TIP3   OH257808   4.670   6.817  12.879  0.1142  0.4001  0.3124
12106TIP3    H157809   4.732   6.879  12.917  0.7815  0.1711 -0.3864
12106TIP3    H257810   4.584   6.856  12.895  0.4209  0.6793  1.3623
12107TIP3   OH257811   3.467   5.362  11.363 -0.7452  0.4024  0.1326
12107TIP3    H157812   3.519   5.349  11.284  0.0110 -1.1541  0.8276
12107TIP3    H257813   3.480   5.455  11.386  0.2756  0.4820 -0.7093
12108TIP3   OH257814   5.654   0.102  12.514  0.1290 -0.1026  0.8504
12108TIP3    H157815   5.655   0.192  12.548  1.5564  0.3180 -0.1972
12108TIP3    H257816   5.746   0.077  12.512 -0.1238 -1.0038 -0.3833
12109TIP3   OH257817   1.002   5.508  15.564  0.1369  0.1359  0.0504
12109TIP3    H157818   1.076   5.486  15.507  0.7275  1.6330  0.1799
12109TIP3    H257819   0.925   5.485  15.513  0.6738 -1.5475 -0.0516
12110TIP3   OH257820   6.274   3.041   0.171  0.1918 -0.3186  0.1184
12110TIP3    H157821   6.224   3.122   0.165  0.2188 -0.3960 -1.4619
12110TIP3    H257822   6.228   2.990   0.238 -0.2625  0.6827  0.5924
12111TIP3   OH257823   2.612   3.409   5.091 -0.4662  0.0279 -0.2532
12111TIP3    H157824   2.690   3.441   5.137  0.7959 -1.5198 -1.2138
12111TIP3    H257825   2.629   3.429   4.999 -0.8972 -0.9444 -0.5496
12112TIP3   OH257826   0.831   6.033  15.241  0.2242 -0.7565 -0.3904
12112TIP3    H157827   0.803   6.124  15.250  0.4679 -0.8080  1.1015
12112TIP3    H257828   0.858   6.007  15.329 -2.1304 -3.0480 -0.2283
12113TIP3   OH257829   5.042   1.163   0.739 -0.2169 -0.0384  0.2033
12113TIP3    H157830   4.996   1.180   0.657  1.4549  1.0713 -0.5646
12113TIP3    H257831   5.029   1.070   0.755  0.4814 -0.5705 -2.0129
12114TIP3   OH257832   3.280   4.933  16.312  0.1074  0.0668  0.1867
12114TIP3    H157833   3.278   4.891  16.226 -0.4474  0.6064 -0.0715
12114TIP3    H257834   3.218   5.006  16.305 -2.3773 -1.6816  1.9875
12115TIP3   OH257835   3.179   3.701   4.081  0.2064 -0.6019  0.1077
12115TIP3    H157836   3.267   3.699   4.117  0.9343 -0.2760 -1.5787
12115TIP3    H257837   3.121   3.698   4.158  1.6674  1.2409  1.3350
12116TIP3   OH257838   4.053   5.499   2.368  0.5070  0.0545  0.4081
12116TIP3    H157839   3.998   5.507   2.446 -0.0151 -0.0890  0.0621
12116TIP3    H257840   4.012   5.556   2.303  0.5343 -0.3585  0.0187
12117TIP3   OH257841   0.591   5.410   1.763 -0.9365  0.2148 -0.3973
12117TIP3    H157842   0.601   5.494   1.718 -1.4204  0.7697  0.4800
12117TIP3    H257843   0.673   5.364   1.748 -0.4712  1.0573 -0.4786
12118TIP3   OH257844   5.244   3.128   0.572  0.2186 -0.3785 -0.3298
12118TIP3    H157845   5.192   3.170   0.503  0.1265  0.3880  0.1999
12118TIP3    H257846   5.187   3.059   0.605 -0.9484  1.1342  0.9842
12119TIP3   OH257847   2.023   3.945   3.937 -0.6516  0.6194  0.1491
12119TIP3    H157848   2.106   3.937   3.891 -0.2526 -0.2163  0.9783
12119TIP3    H257849   1.957   3.944   3.867  0.0241  1.3999 -0.5205
12120TIP3   OH257850   5.165   5.023   0.682  0.2445  0.1646  0.1135
12120TIP3    H157851   5.127   5.107   0.706 -0.7578 -0.2873  0.1832
12120TIP3    H257852   5.259   5.040   0.675 -0.1602  1.9149 -2.4762
12121TIP3   OH257853   4.667   4.539   4.163  0.1310 -0.2426  0.4051
12121TIP3    H157854   4.691   4.518   4.254  1.8203 -0.3226 -0.0260
12121TIP3    H257855   4.626   4.460   4.130  1.2221 -0.8958  0.5542
12122TIP3   OH257856   1.520   0.498   5.107 -0.2418 -0.1264 -0.0917
12122TIP3    H157857   1.514   0.504   5.012 -1.7013 -0.6636 -0.0573
12122TIP3    H257858   1.557   0.582   5.134  0.6334 -0.1522 -1.1556
12123TIP3   OH257859   5.210   5.896  11.311  0.3436  0.0232 -0.5427
12123TIP3    H157860   5.167   5.822  11.355 -1.0727 -0.8179 -3.1078
12123TIP3    H257861   5.167   5.974  11.346 -1.5061 -0.6792 -1.1277
12124TIP3   OH257862   1.727   3.763   1.380  0.7576 -0.0152  0.6600
12124TIP3    H157863   1.749   3.849   1.342 -0.3216  0.3765  0.8814
12124TIP3    H257864   1.715   3.706   1.304 -2.7667  1.0941  0.1810
12125TIP3   OH257865   0.916   4.091   3.018 -0.3924  0.0404 -0.2151
12125TIP3    H157866   0.835   4.139   3.004  0.1983  0.7490 -1.3648
12125TIP3    H257867   0.969   4.148   3.072 -0.5231 -0.2711  0.2449
12126TIP3   OH257868   6.224   3.740  12.658 -0.1678  0.5863 -0.6332
12126TIP3    H157869   6.183   3.766  12.576 -1.8837 -0.3930 -0.1321
12126TIP3    H257870   6.186   3.800  12.723 -1.1652 -0.5795 -0.1026
12127TIP3   OH257871   0.634   0.914   0.334 -0.3982 -0.4472 -0.0151
12127TIP3    H157872   0.595   1.000   0.325 -1.9063 -1.2235 -1.4493
12127TIP3    H257873   0.673   0.896   0.249  2.2896 -0.1593  1.0363
12128TIP3   OH257874   6.277   0.069  15.363 -0.2316  0.7707 -0.0847
12128TIP3    H157875   6.295   0.156  15.326 -1.5580  1.0004 -0.2403
12128TIP3    H257876   6.222   0.086  15.439 -0.8190  0.0515 -0.3384
12129TIP3   OH257877   6.318   5.009  13.816  0.6372 -0.3662  0.2778
12129TIP3    H157878   6.349   5.099  13.808  0.2751 -0.2798 -0.1524
12129TIP3    H257879   6.357   4.963  13.742 -0.1390 -0.2912 -0.1827
12130TIP3   OH257880   2.876   0.914  14.307 -0.0650  0.4687  0.6112
12130TIP3    H157881   2.901   1.004  14.288  1.3259 -0.3182 -1.6719
12130TIP3    H257882   2.796   0.900  14.256  1.5801 -0.5119 -1.8814
12131TIP3   OH257883   1.749   4.603  16.897  0.7368 -0.6257 -0.3696
12131TIP3    H157884   1.670   4.624  16.946 -0.0568  0.0659 -1.8721
12131TIP3    H257885   1.775   4.687  16.858  2.1871 -0.8544  0.0556
12132TIP3   OH257886   6.650   3.241  16.289 -0.0472 -0.2330 -0.6083
12132TIP3    H157887   6.558   3.266  16.292 -0.3951 -1.3423 -1.3553
12132TIP3    H257888   6.655   3.159  16.339  0.4450 -0.4238 -0.9581
12133TIP3   OH257889   3.877   0.350   3.820 -0.2180 -0.2059  0.1269
12133TIP3    H157890   3.819   0.302   3.879 -0.1213 -0.5115 -0.0247
12133TIP3    H257891   3.820   0.414   3.777 -0.4477 -0.5066 -0.0234
12134TIP3   OH257892   4.001   6.326  11.426  0.8100 -0.1336 -0.0141
12134TIP3    H157893   4.067   6.369  11.481 -0.1440  0.4957  0.6737
12134TIP3    H257894   4.051   6.272  11.366  2.0215  1.2679 -0.3289
12135TIP3   OH257895   6.431   0.178  12.492  0.2695  0.3144 -0.8894
12135TIP3    H157896   6.471   0.207  12.410 -1.1790  1.2636 -1.3069
12135TIP3    H257897   6.391   0.093  12.471  0.6064  0.1659 -0.9328
12136TIP3   OH257898   4.129   4.524   6.229  0.1171  0.1799 -0.6337
12136TIP3    H157899   4.099   4.516   6.319  0.6347 -2.1889 -0.6206
12136TIP3    H257900   4.210   4.575   6.235  0.8306 -1.0179  0.4279
12137TIP3   OH257901   0.074   6.807  12.260  0.2750  0.2006 -0.4769
12137TIP3    H157902   0.009   6.847  12.203 -2.0333 -1.1961  0.9937
12137TIP3    H257903   0.055   6.713  12.256  1.8048 -0.1997  0.5067
12138TIP3   OH257904   5.163   3.883   0.161 -0.0272  0.5749  0.7250
12138TIP3    H157905   5.219   3.805   0.160 -0.1753  0.3363 -3.0127
12138TIP3    H257906   5.223   3.956   0.174  1.2425  0.2658 -2.4776
12139TIP3   OH257907   2.058   4.183  15.173  0.4830 -0.7450 -0.0878
12139TIP3    H157908   2.055   4.270  15.134  1.0103  1.2286  3.8009
12139TIP3    H257909   1.968   4.152  15.172  0.0316  0.5271 -0.2244
12140TIP3   OH257910   4.304   6.657   1.175  0.4523  0.0294  0.7926
12140TIP3    H157911   4.247   6.658   1.098  1.3108 -0.0903  0.1529
12140TIP3    H257912   4.289   6.742   1.217 -0.4372 -0.1264  0.8250
12141TIP3   OH257913   3.926   1.035  11.324  0.1346 -0.1829 -0.7399
12141TIP3    H157914   3.985   0.972  11.283  1.7816  0.3486  0.6854
12141TIP3    H257915   3.983   1.104  11.357 -1.1552 -0.0743  1.4848
12142TIP3   OH257916   4.356   1.678  11.805 -0.0210 -0.2663  0.2518
12142TIP3    H157917   4.445   1.712  11.809  0.5075 -1.6935  1.2555
12142TIP3    H257918   4.308   1.730  11.869 -0.0007  0.6614 -0.4503
12143TIP3   OH257919   5.375   0.355  15.130  0.1061 -0.6901  0.5071
12143TIP3    H157920   5.327   0.410  15.068  1.7340  0.5364  0.2728
12143TIP3    H257921   5.422   0.293  15.076  0.4406 -0.5091  0.5843
12144TIP3   OH257922   3.000   1.371  13.042  0.7894  0.3797 -0.4026
12144TIP3    H157923   3.063   1.308  13.077  1.8503  1.7164  0.1757
12144TIP3    H257924   2.958   1.325  12.968  1.1765 -1.1450  0.2939
12145TIP3   OH257925   0.270   6.710   2.662  0.2149  0.3115  0.0074
12145TIP3    H157926   0.238   6.629   2.700  1.1896 -1.0666 -1.9579
12145TIP3    H257927   0.199   6.740   2.605  0.8895 -0.7257 -1.4390
12146TIP3   OH257928   3.097   0.508   3.180 -0.1616 -0.1313  0.7735
12146TIP3    H157929   3.042   0.459   3.118  0.8917 -0.2436 -0.1029
12146TIP3    H257930   3.119   0.444   3.248 -1.1859 -0.0556  1.1928
12147TIP3   OH257931   5.208   0.750   4.673  0.6094  0.6421 -0.3029
12147TIP3    H157932   5.155   0.670   4.680  0.5700  0.6223 -0.7710
12147TIP3    H257933   5.297   0.718   4.658  0.6874  0.6791  0.0894
12148TIP3   OH257934   0.931   6.047   1.828  0.3691 -0.3720 -0.2675
12148TIP3    H157935   0.856   6.011   1.782 -0.0796  0.1154  0.0677
12148TIP3    H257936   0.930   6.141   1.806  2.2402 -0.7137 -2.1506
12149TIP3   OH257937   2.558   1.556  12.148 -0.1344  0.5787 -0.1914
12149TIP3    H157938   2.611   1.631  12.176 -0.6533  0.5042  1.0592
12149TIP3    H257939   2.517   1.525  12.229 -0.1341 -0.8943 -0.7327
12150TIP3   OH257940   3.384   5.040   2.831  0.4261  0.3352 -0.0566
12150TIP3    H157941   3.292   5.028   2.854  0.3679 -0.8744 -0.8794
12150TIP3    H257942   3.410   4.958   2.790  1.8992  0.6314  0.2162
12151TIP3   OH257943   4.361   2.046   0.185 -0.1015  0.0716  0.1497
12151TIP3    H157944   4.364   2.044   0.281 -0.8822  0.1054  0.1812
12151TIP3    H257945   4.268   2.048   0.164  0.0671  0.3529 -0.6081
12152TIP3   OH257946   2.105   3.407   1.878 -0.1454  0.0801 -0.2370
12152TIP3    H157947   2.128   3.499   1.891  2.3538 -0.3340 -1.1711
12152TIP3    H257948   2.045   3.408   1.804  1.2371  0.8772 -1.3979
12153TIP3   OH257949   3.365   2.067   1.166  0.1688  0.5320  0.2976
12153TIP3    H157950   3.354   1.980   1.126  0.4645  1.0548 -0.9684
12153TIP3    H257951   3.275   2.098   1.179  0.0119 -0.6112  2.3050
12154TIP3   OH257952   1.190   2.319   2.304 -0.2265 -0.7822 -0.1663
12154TIP3    H157953   1.132   2.289   2.234  0.3487 -1.8851 -0.1973
12154TIP3    H257954   1.213   2.409   2.279  0.7096 -1.4558 -1.9031
12155TIP3   OH257955   4.264   5.366   5.140  0.1672  0.4750  0.1978
12155TIP3    H157956   4.282   5.331   5.227 -0.7387  2.0874  1.0959
12155TIP3    H257957   4.169   5.383   5.140  0.3274  1.4994 -0.6942
12156TIP3   OH257958   6.232   2.380   3.249 -0.1157  0.6539  0.5459
12156TIP3    H157959   6.219   2.474   3.234 -1.6510  0.4374  0.3522
12156TIP3    H257960   6.273   2.348   3.168  0.3958  1.1338  0.6056
12157TIP3   OH257961   6.017   2.023   1.676 -0.0403 -0.9528 -0.2832
12157TIP3    H157962   5.948   1.961   1.654 -1.3608 -0.4609  2.1043
12157TIP3    H257963   6.024   2.081   1.600 -1.5434 -1.6417 -0.9808
12158TIP3   OH257964   6.757   4.398   3.426 -0.2835  0.5635 -0.8211
12158TIP3    H157965   6.740   4.363   3.338 -2.2566  0.3940 -0.4256
12158TIP3    H257966   6.848   4.426   3.424 -0.4873  1.2242 -3.1466
12159TIP3   OH257967   5.406   3.578   5.317 -0.0072  0.1210 -0.1256
12159TIP3    H157968   5.354   3.637   5.372 -1.4430  0.2047 -1.5073
12159TIP3    H257969   5.356   3.496   5.317 -0.3827  0.3233 -1.8023
12160TIP3   OH257970   5.111   0.542  14.515  0.2870  0.0866  0.0841
12160TIP3    H157971   5.121   0.452  14.545  4.5716  0.2339 -0.2224
12160TIP3    H257972   5.077   0.534  14.426 -0.5361 -1.1120  0.4891
12161TIP3   OH257973   6.459   2.619   2.704  0.4212 -0.1738 -0.0993
12161TIP3    H157974   6.397   2.689   2.682 -1.9071 -0.9966  3.0026
12161TIP3    H257975   6.415   2.538   2.676  0.5343 -0.6999  1.1434
12162TIP3   OH257976   6.392   6.338   5.416 -0.0599 -0.0394 -0.1278
12162TIP3    H157977   6.306   6.349   5.376  0.1196 -0.9911 -0.8063
12162TIP3    H257978   6.446   6.301   5.346  0.5218 -0.7911  0.7079
12163TIP3   OH257979   5.838   2.872   4.480  0.0989  0.2711 -0.2598
12163TIP3    H157980   5.815   2.825   4.400 -1.7900 -0.7742  0.8304
12163TIP3    H257981   5.933   2.863   4.486  0.0367 -1.6217 -1.2099
12164TIP3   OH257982   2.872   2.658   4.829  0.0340 -0.3623  0.5669
12164TIP3    H157983   2.779   2.660   4.806  0.3299 -0.7516 -0.7423
12164TIP3    H257984   2.887   2.569   4.860  0.0088 -0.3494  0.6162
12165TIP3   OH257985   3.848   6.080   0.470  0.3158  0.7504  0.1956
12165TIP3    H157986   3.924   6.125   0.434 -0.4288  2.3659  0.5493
12165TIP3    H257987   3.807   6.039   0.394  2.2683 -1.3885  0.1876
12166TIP3   OH257988   2.332   0.577   3.058  0.3166  0.0322  0.0004
12166TIP3    H157989   2.258   0.617   3.012  0.2780  1.5925  1.3193
12166TIP3    H257990   2.401   0.573   2.992 -0.5444 -0.3429 -0.9251
12167TIP3   OH257991   5.857   5.146  11.273 -0.1519 -0.1106 -0.0960
12167TIP3    H157992   5.834   5.114  11.360 -0.9787  0.9539  0.1060
12167TIP3    H257993   5.781   5.123  11.219 -0.5374  1.0040 -0.0567
12168TIP3   OH257994   5.558   5.663  13.896 -0.2077 -0.2171 -0.1955
12168TIP3    H157995   5.571   5.709  13.979 -0.6132  0.1785 -0.3457
12168TIP3    H257996   5.619   5.705  13.835 -1.4941  1.0424 -0.6745
12169TIP3   OH257997   1.997   1.962  12.963  0.6787 -0.8692  0.2880
12169TIP3    H157998   1.935   2.034  12.970 -0.7383 -1.5737 -3.2109
12169TIP3    H257999   1.948   1.886  12.995  0.6472 -0.9885 -0.0417
12170TIP3   OH258000   1.161   5.652   4.763  0.1641  0.1085 -0.3928
12170TIP3    H158001   1.228   5.679   4.700  0.1600  2.1838  0.3770
12170TIP3    H258002   1.078   5.675   4.722  0.0538 -0.2556 -0.3780
12171TIP3   OH258003   0.816   4.825   0.955  1.3230 -0.1963  0.3474
12171TIP3    H158004   0.762   4.770   1.011 -0.4015  0.3350 -0.6910
12171TIP3    H258005   0.874   4.872   1.015 -0.0575 -0.0641  1.6416
12172TIP3   OH258006   2.661   0.420   5.035 -0.0625  0.1959 -0.0151
12172TIP3    H158007   2.612   0.454   5.110 -1.4848 -2.1552  0.2007
12172TIP3    H258008   2.594   0.383   4.977  1.3004 -1.8494 -0.3903
12173TIP3   OH258009   1.919   5.721   2.391 -0.1932  0.6771  0.5579
12173TIP3    H158010   1.982   5.792   2.409 -0.8245  1.4033 -0.0507
12173TIP3    H258011   1.864   5.755   2.321  1.0682 -1.3932 -1.5672
12174TIP3   OH258012   3.746   4.561  12.729 -0.1646  0.1837 -0.8402
12174TIP3    H158013   3.665   4.597  12.692 -0.1886  2.1638  0.9473
12174TIP3    H258014   3.812   4.578  12.663 -0.7167  1.1119 -1.1814
12175TIP3   OH258015   0.032   4.562  14.146 -0.3864 -0.3318  0.3892
12175TIP3    H158016   0.075   4.526  14.068  0.1375  0.3588  0.3533
12175TIP3    H258017   0.082   4.526  14.219  1.0585  1.3953  0.3281
12176TIP3   OH258018   3.892   6.597  14.152  0.2876 -0.2670 -0.0228
12176TIP3    H158019   3.951   6.622  14.223 -0.1691 -0.8158  0.5581
12176TIP3    H258020   3.939   6.526  14.107  0.1777 -0.5489  0.3001
12177TIP3   OH258021   3.810   3.319  14.658  0.0508 -0.1438 -0.1292
12177TIP3    H158022   3.863   3.254  14.612  1.4078  0.5660  0.3942
12177TIP3    H258023   3.840   3.314  14.749 -0.4389  0.6154  0.0778
12178TIP3   OH258024   2.221   3.868   2.508  0.0991 -0.3661  0.1233
12178TIP3    H158025   2.277   3.832   2.439  2.6970 -2.1130  2.8713
12178TIP3    H258026   2.258   3.955   2.525 -1.6998  0.8512 -1.7641
12179TIP3   OH258027   4.152   3.145  13.408 -0.7062  0.1210 -0.6813
12179TIP3    H158028   4.172   3.057  13.441  1.0248  0.5938 -0.3683
12179TIP3    H258029   4.066   3.165  13.445 -0.8354 -1.1747 -0.2132
12180TIP3   OH258030   2.826   6.163   5.961 -0.6227  0.2226 -0.0829
12180TIP3    H158031   2.801   6.088   5.908  2.1923  0.3051 -1.6946
12180TIP3    H258032   2.903   6.134   6.010  0.6329  2.0473 -0.8643
12181TIP3   OH258033   5.450   5.375  13.920 -0.2668  0.1539  0.3005
12181TIP3    H158034   5.428   5.358  14.012 -0.5510  1.1728  0.4267
12181TIP3    H258035   5.448   5.470  13.912  1.2052  0.1388 -0.4177
12182TIP3   OH258036   6.034   0.355   2.871 -0.7089  0.5011  0.2410
12182TIP3    H158037   6.079   0.283   2.827  0.2324  0.7187  0.8333
12182TIP3    H258038   6.079   0.434   2.840 -1.5111  0.8216 -0.1361
12183TIP3   OH258039   0.764   0.360  14.167  0.1761  0.3139  0.1630
12183TIP3    H158040   0.677   0.388  14.137  0.7999  0.6869 -1.3734
12183TIP3    H258041   0.754   0.349  14.262 -1.3025  1.2452  0.1478
12184TIP3   OH258042   5.054   0.468   5.929 -0.1512  0.3033 -0.4175
12184TIP3    H158043   4.993   0.437   5.995  0.3847 -1.4638 -0.6947
12184TIP3    H258044   5.135   0.486   5.977 -0.1853  0.3577 -0.3817
12185TIP3   OH258045   5.883   6.745   0.646  0.3415  0.7395 -0.0618
12185TIP3    H158046   5.845   6.811   0.589  1.8893  1.7776  0.0590
12185TIP3    H258047   5.948   6.701   0.592  0.0109 -0.0470  0.1573
12186TIP3   OH258048   6.049   3.261  16.024  0.5374 -0.4298  0.4133
12186TIP3    H158049   6.030   3.332  15.962  0.8959 -1.7087 -1.2126
12186TIP3    H258050   6.136   3.230  15.998  0.7424 -0.9284  1.6403
12187TIP3   OH258051   6.188   2.884  16.665  0.1889  0.0073  0.4147
12187TIP3    H158052   6.205   2.947  16.595 -0.1810 -0.1856  0.1400
12187TIP3    H258053   6.123   2.927  16.721 -0.1285 -0.1612  0.1782
12188TIP3   OH258054   1.007   1.096  13.931  0.3460 -0.0985  0.2807
12188TIP3    H158055   1.025   1.183  13.967 -2.2381 -0.1590  1.9556
12188TIP3    H258056   1.090   1.050  13.939  0.9453  1.1887  2.5387
12189TIP3   OH258057   0.269   0.336  10.411 -0.4095 -0.1146  0.3189
12189TIP3    H158058   0.346   0.362  10.462 -0.9940 -0.0022  1.1648
12189TIP3    H258059   0.249   0.412  10.358 -0.8286  0.4053  1.2048
12190TIP3   OH258060   1.014   2.829  14.937  0.3630  0.1700 -0.0905
12190TIP3    H158061   0.982   2.739  14.939  0.0477  0.2842  0.1878
12190TIP3    H258062   1.016   2.852  14.844 -2.8439  1.0121 -0.0502
12191TIP3   OH258063   6.109   5.221   4.254 -0.3096 -0.2930 -0.2661
12191TIP3    H158064   6.092   5.315   4.248  1.7491  0.0532 -1.8189
12191TIP3    H258065   6.026   5.184   4.286 -0.6495  2.1708  2.0773
12192TIP3   OH258066   6.116   5.151   4.625 -0.1221 -0.0716  0.2936
12192TIP3    H158067   6.084   5.239   4.608 -1.5320 -1.0125 -2.4407
12192TIP3    H258068   6.212   5.160   4.625 -0.1663  1.1694 -2.0433
12193TIP3   OH258069   1.395   4.912  12.353  0.2655 -0.2552  0.3507
12193TIP3    H158070   1.361   4.993  12.391  0.2738 -0.0484 -0.0794
12193TIP3    H258071   1.391   4.927  12.258 -0.9236 -1.2281  0.2204
12194TIP3   OH258072   3.905   0.985   1.703  0.2498 -0.3997 -0.1879
12194TIP3    H158073   3.855   1.057   1.666  1.6726  1.4642  1.2536
12194TIP3    H258074   3.919   1.010   1.795  0.8002 -2.5346  0.3796
12195TIP3   OH258075   3.900   6.178  16.349 -0.5124 -0.7360  0.3358
12195TIP3    H158076   3.835   6.184  16.420  1.0733 -0.2492  1.8179
12195TIP3    H258077   3.950   6.098  16.370  0.8040  0.1091  0.5414
12196TIP3   OH258078   3.493   2.373   1.790 -0.4200  0.6869  0.6585
12196TIP3    H158079   3.550   2.441   1.755  0.9451 -0.0444  1.3671
12196TIP3    H258080   3.517   2.294   1.741  0.3026  0.0307  2.0149
12197TIP3   OH258081   2.574   0.252  12.165  0.8253  0.1755  0.3589
12197TIP3    H158082   2.584   0.343  12.136 -2.1162  0.3602 -0.3558
12197TIP3    H258083   2.581   0.257  12.261  0.2664  1.2309  0.3590
12198TIP3   OH258084   4.829   6.304  15.439 -0.2028  0.3197 -0.0243
12198TIP3    H158085   4.884   6.300  15.517 -2.1063  1.2489  1.4347
12198TIP3    H258086   4.855   6.385  15.395  2.1848 -1.0955 -1.4963
12199TIP3   OH258087   3.322   5.525  11.656 -0.1339  0.3387  0.1551
12199TIP3    H158088   3.294   5.435  11.672 -1.6040  0.7705  0.1016
12199TIP3    H258089   3.290   5.544  11.568 -0.7731  1.2572  0.5726
12200TIP3   OH258090   0.526   3.714  12.879  0.4926 -0.1778 -0.1652
12200TIP3    H158091   0.432   3.698  12.871  0.4416  0.2245 -0.3615
12200TIP3    H258092   0.550   3.760  12.799  1.0321 -1.0917 -0.5439
12201TIP3   OH258093   2.779   0.194  11.414 -0.7601  0.0613  0.3039
12201TIP3    H158094   2.815   0.228  11.496  1.7426 -1.7463  0.0515
12201TIP3    H258095   2.718   0.262  11.385 -0.9341  1.2292  3.1003
12202TIP3   OH258096   3.914   0.140   2.046 -0.3439 -0.6486 -0.9408
12202TIP3    H158097   3.975   0.141   2.120  1.6674 -1.4103 -2.4781
12202TIP3    H258098   3.917   0.049   2.015  0.0113 -0.0458 -2.8013
12203TIP3   OH258099   1.455   2.626  16.114  0.9403 -0.3505  0.1506
12203TIP3    H158100   1.411   2.643  16.197  0.0897  0.7684 -0.4787
12203TIP3    H258101   1.502   2.544  16.127  0.7899 -0.2239  1.7066
12204TIP3   OH258102   2.962   6.374   5.849 -0.2056  0.2368 -0.0827
12204TIP3    H158103   2.991   6.453   5.895 -0.6853  0.6367 -0.4556
12204TIP3    H258104   2.899   6.333   5.909 -1.2763  1.0705 -0.6147
12205TIP3   OH258105   0.860   3.185  14.714 -0.5111 -0.2351  0.0019
12205TIP3    H158106   0.768   3.210  14.727 -0.3603 -0.6644  2.1254
12205TIP3    H258107   0.909   3.243  14.772  0.7120  0.6055 -1.7492
12206TIP3   OH258108   6.089   3.729  14.721 -0.3483  0.1173 -0.4378
12206TIP3    H158109   6.139   3.750  14.801 -1.1130  0.7840 -0.1189
12206TIP3    H258110   6.118   3.641  14.697  0.7597  0.3654 -0.0930
12207TIP3   OH258111   0.739   5.831  16.818 -0.4459 -0.0511  0.2785
12207TIP3    H158112   0.780   5.746  16.836  1.4533  0.5143 -1.0505
12207TIP3    H258113   0.802   5.877  16.762 -1.6548  2.0484  0.5290
12208TIP3   OH258114   0.978   2.945   4.751 -0.0098  0.3730 -1.0937
12208TIP3    H158115   1.000   2.965   4.842 -0.7332  2.7341 -1.3723
12208TIP3    H258116   0.904   2.884   4.757  1.9122 -2.0411 -0.1772
12209TIP3   OH258117   3.426   6.737  12.557  0.2872  0.1459 -0.9002
12209TIP3    H158118   3.379   6.819  12.542  1.1839  0.7272 -0.6511
12209TIP3    H258119   3.423   6.724  12.652  1.8588  0.9881 -0.6922
12210TIP3   OH258120   2.598   6.520  13.112  0.3108  0.8018 -0.0102
12210TIP3    H158121   2.684   6.501  13.077  0.4656  1.8737 -0.2288
12210TIP3    H258122   2.538   6.510  13.038  0.2716  0.3709  0.0714
12211TIP3   OH258123   0.628   0.664   1.348  0.2384  0.1146  0.5196
12211TIP3    H158124   0.564   0.631   1.285  0.0026  0.2009  0.7100
12211TIP3    H258125   0.578   0.723   1.404  0.6744  0.8481  0.1426
12212TIP3   OH258126   2.107   0.938  11.776  0.0829 -0.2044 -0.3810
12212TIP3    H158127   2.076   1.009  11.831 -1.2755 -0.6451 -0.5293
12212TIP3    H258128   2.158   0.981  11.707  0.3826  0.4917  0.2594
12213TIP3   OH258129   3.585   1.838  12.318 -0.1204  0.0041  0.2085
12213TIP3    H158130   3.522   1.778  12.359  0.0439  0.4354  1.1276
12213TIP3    H258131   3.670   1.805  12.346  0.0671 -0.4596 -0.8687
12214TIP3   OH258132   5.173   4.547  11.632 -0.4225  0.2271 -0.3795
12214TIP3    H158133   5.199   4.470  11.682  1.0294  0.2781 -1.0344
12214TIP3    H258134   5.191   4.525  11.541 -1.6173  0.7101 -0.7591
12215TIP3   OH258135   6.647   2.079  15.950  0.1540 -0.1396 -0.4482
12215TIP3    H158136   6.665   2.114  15.863  0.2120 -0.0326 -0.3950
12215TIP3    H258137   6.724   2.026  15.970  0.8093  0.9830  0.1222
12216TIP3   OH258138   6.313   2.127   0.529 -0.0892  0.3140  0.0932
12216TIP3    H158139   6.333   2.165   0.615 -1.9128  1.1486  0.1846
12216TIP3    H258140   6.349   2.038   0.534 -0.0008  0.4026  1.6600
12217TIP3   OH258141   0.320   4.096   2.704 -0.4971  0.4531  0.5916
12217TIP3    H158142   0.248   4.033   2.699  0.5649 -0.7798 -2.8135
12217TIP3    H258143   0.394   4.049   2.665  0.8179  3.2385 -0.5331
12218TIP3   OH258144   5.688   1.970  10.717  0.3933  0.1494 -0.3370
12218TIP3    H158145   5.660   2.057  10.747  1.2514  0.3688 -0.1339
12218TIP3    H258146   5.761   1.987  10.658  0.1762 -0.4089 -0.7749
12219TIP3   OH258147   3.048   6.311  15.202  0.4698  0.4683  0.7281
12219TIP3    H158148   3.126   6.312  15.257 -0.3204  1.1230  1.8777
12219TIP3    H258149   3.077   6.349  15.119  1.8160 -1.0214  0.4496
12220TIP3   OH258150   4.038   4.807  15.973  0.0534  0.2727  0.2045
12220TIP3    H158151   4.078   4.893  15.962  1.5264 -0.6291 -2.3279
12220TIP3    H258152   3.983   4.796  15.896  0.5478 -1.3435  0.0384
12221TIP3   OH258153   1.346   0.196  15.251 -0.1255  0.6710 -0.4037
12221TIP3    H158154   1.373   0.288  15.255  1.3730  0.2073  2.2168
12221TIP3    H258155   1.325   0.174  15.342 -0.6786 -1.5287 -1.0222
12222TIP3   OH258156   0.224   4.380   0.920  0.2789  0.0937 -0.2012
12222TIP3    H158157   0.295   4.417   0.868 -0.2254  0.6965 -0.4716
12222TIP3    H258158   0.226   4.286   0.900 -0.5311  0.4321 -2.1111
12223TIP3   OH258159   5.673   5.061  11.080 -0.2267  0.1346  0.3969
12223TIP3    H158160   5.589   5.103  11.060 -0.4453 -0.5143 -0.0750
12223TIP3    H258161   5.721   5.064  10.997  0.8702  1.9205  1.0374
12224TIP3   OH258162   4.994   6.631   1.878 -0.0645  0.1971  0.0345
12224TIP3    H158163   5.051   6.707   1.869 -1.8232  1.4279 -1.5496
12224TIP3    H258164   4.907   6.663   1.855 -1.1103 -2.0129  0.5975
12225TIP3   OH258165   4.821   0.283   0.344  0.0104  0.4104  0.0483
12225TIP3    H158166   4.900   0.228   0.342 -0.5326 -0.3949  0.2773
12225TIP3    H258167   4.802   0.293   0.437 -0.6233 -0.0814 -0.0245
12226TIP3   OH258168   3.343   0.003   4.527  0.6805 -0.2382 -0.2151
12226TIP3    H158169   3.282   0.066   4.487 -0.8849 -1.7774 -0.3977
12226TIP3    H258170   3.374   0.046   4.607 -1.0706  0.4143  0.1574
12227TIP3   OH258171   0.538   3.102  14.795  0.4264  0.1378  0.0086
12227TIP3    H158172   0.564   3.194  14.807 -0.3680  0.3008  0.5692
12227TIP3    H258173   0.464   3.090  14.855  0.0945 -0.6879 -0.5465
12228TIP3   OH258174   5.467   1.330  14.572  0.1808 -0.1301  0.2223
12228TIP3    H158175   5.503   1.242  14.564  2.1026  0.7673 -3.4950
12228TIP3    H258176   5.378   1.317  14.605 -0.8042 -3.8366 -3.1245
12229TIP3   OH258177   0.667   0.838  16.355  0.5261 -0.2087 -0.2747
12229TIP3    H158178   0.644   0.875  16.270 -2.8181 -0.1086  0.5081
12229TIP3    H258179   0.742   0.890  16.385  0.2510  1.3776 -2.1277
12230TIP3   OH258180   1.801   3.385   6.048 -0.7984 -0.1476  0.4691
12230TIP3    H158181   1.884   3.395   6.001 -1.2211 -2.3448 -0.8716
12230TIP3    H258182   1.783   3.472   6.083  0.6770  1.0519 -1.5517
12231TIP3   OH258183   2.837   4.355  15.290 -0.5028 -0.3800  0.0992
12231TIP3    H158184   2.822   4.408  15.368 -0.0523 -1.5672  1.0233
12231TIP3    H258185   2.888   4.412  15.232  0.5994 -0.0300  1.3539
12232TIP3   OH258186   4.243   1.092  16.949 -0.6075 -0.3884  0.0531
12232TIP3    H158187   4.295   1.062  16.875 -2.0170  0.4027 -1.3131
12232TIP3    H258188   4.211   1.012  16.990  1.5674 -0.8929  0.9006
12233TIP3   OH258189   5.938   6.141  13.190  0.2362  0.2199 -0.6278
12233TIP3    H158190   5.851   6.129  13.153 -0.0771 -0.8327  0.3947
12233TIP3    H258191   5.995   6.151  13.114 -0.8464  1.5871 -1.2979
12234TIP3   OH258192   2.612   0.678  12.410  0.9181  0.7284 -0.1222
12234TIP3    H158193   2.539   0.641  12.361  0.6437  1.6956 -0.4591
12234TIP3    H258194   2.688   0.665  12.354  0.7508  1.0551 -0.4273
12235TIP3   OH258195   4.473   6.416  11.562 -0.0955  0.1147  0.8426
12235TIP3    H158196   4.475   6.418  11.657  0.5340 -1.4264  0.8958
12235TIP3    H258197   4.564   6.425  11.535 -0.2419  0.3001  0.3992
12236TIP3   OH258198   4.938   2.267   1.507  0.3324 -0.0377  0.2517
12236TIP3    H158199   4.851   2.225   1.502  0.9898 -1.5053  0.4693
12236TIP3    H258200   4.982   2.240   1.427  0.6829  0.4853  0.2672
12237TIP3   OH258201   5.977   5.658   2.979  0.2073 -0.2543 -0.0836
12237TIP3    H158202   5.966   5.564   2.993  0.2959 -0.0101  1.8078
12237TIP3    H258203   5.941   5.699   3.058 -1.4413  1.4154 -1.5970
12238TIP3   OH258204   0.957   3.087   5.480 -0.2351  0.4426 -0.9803
12238TIP3    H158205   0.902   3.165   5.476 -3.6140 -1.7617 -1.4628
12238TIP3    H258206   0.946   3.054   5.569  1.7100  0.8008 -0.5652
12239TIP3   OH258207   0.960   6.216  12.809 -0.1835  0.5506 -0.4038
12239TIP3    H158208   1.020   6.235  12.881 -1.3981 -3.2127  1.8742
12239TIP3    H258209   0.876   6.253  12.837 -0.4767 -0.2493 -0.1850
12240TIP3   OH258210   5.447   0.865  15.151 -0.3873  0.2347  0.2678
12240TIP3    H158211   5.363   0.843  15.112  0.5070 -1.9238 -0.6628
12240TIP3    H258212   5.455   0.806  15.226 -0.1063  1.1024  0.9369
12241TIP3   OH258213   3.233   6.803  13.679  0.5880 -0.3803  0.6817
12241TIP3    H158214   3.257   6.713  13.700  2.5069  0.1019  0.7089
12241TIP3    H258215   3.315   6.851  13.679 -0.1505  1.0356 -1.1008
12242TIP3   OH258216   2.886   0.636  13.623 -0.0598 -0.2735 -0.4151
12242TIP3    H158217   2.901   0.578  13.548  0.8840 -0.0838 -0.3817
12242TIP3    H258218   2.865   0.576  13.694  2.4895 -0.7636  0.0271
12243TIP3   OH258219   4.914   6.201  16.601 -0.3529  0.5198  0.0273
12243TIP3    H158220   4.896   6.187  16.694 -0.7446  2.3738  0.2669
12243TIP3    H258221   4.930   6.113  16.566  0.5735 -0.1418  1.9890
12244TIP3   OH258222   1.099   6.205   5.556 -0.6786 -0.0717  0.3899
12244TIP3    H158223   1.146   6.144   5.614  1.3833 -0.0462 -1.1486
12244TIP3    H258224   1.168   6.253   5.511 -2.1301 -0.3528 -2.3565
12245TIP3   OH258225   0.761   6.267   1.026  0.0328 -0.3079 -0.1624
12245TIP3    H158226   0.769   6.327   0.952 -2.3627  0.3627  0.0325
12245TIP3    H258227   0.817   6.306   1.094  0.1704  0.5491 -0.7483
12246TIP3   OH258228   5.398   3.751  15.554 -0.5204 -0.1943  0.2760
12246TIP3    H158229   5.395   3.672  15.608 -2.7788 -1.1646 -1.1623
12246TIP3    H258230   5.464   3.732  15.487 -0.3517 -0.4455  0.5104
12247TIP3   OH258231   5.934   0.081  11.965  0.4876  0.1611  0.4718
12247TIP3    H158232   5.918   0.175  11.964 -0.8563 -0.0525  0.4637
12247TIP3    H258233   5.910   0.053  12.054  0.0222 -0.3099  0.2037
12248TIP3   OH258234   3.729   1.429   4.172 -0.0957  0.0335 -0.1630
12248TIP3    H158235   3.709   1.380   4.252  0.1596  1.2504  0.6756
12248TIP3    H258236   3.646   1.431   4.124 -0.8617  1.1407  1.1281
12249TIP3   OH258237   2.133   1.663  16.295 -0.1891  0.1205 -0.2130
12249TIP3    H158238   2.159   1.690  16.383 -0.9322 -0.3610  0.1682
12249TIP3    H258239   2.114   1.570  16.304 -1.4278  0.3168 -0.5969
12250TIP3   OH258240   2.160   5.701  12.304 -0.3337  0.1347  0.2447
12250TIP3    H158241   2.108   5.647  12.245  0.7238 -1.6567  0.8893
12250TIP3    H258242   2.198   5.640  12.367  3.3269  1.1644 -0.7149
12251TIP3   OH258243   3.760   2.485   4.652  0.2937  0.6835  0.1665
12251TIP3    H158244   3.682   2.429   4.642  1.0424 -0.6812  1.5705
12251TIP3    H258245   3.830   2.437   4.609  1.4215 -0.6280  3.1827
12252TIP3   OH258246   4.325   5.040  11.492  0.1194  0.3201  0.0784
12252TIP3    H158247   4.327   5.032  11.588  0.6445  2.2127  0.2602
12252TIP3    H258248   4.266   5.113  11.475 -0.0754 -0.0900 -1.0589
12253TIP3   OH258249   5.044   1.823   0.311  0.5454 -0.1374 -0.2284
12253TIP3    H158250   5.056   1.886   0.240  0.1594 -1.8437 -1.9073
12253TIP3    H258251   5.110   1.845   0.376  1.4916  0.9540 -1.5253
12254TIP3   OH258252   0.014   5.211   0.814  0.0334  0.0591  0.0292
12254TIP3    H158253   0.082   5.229   0.749  0.2463  1.8682  0.6903
12254TIP3    H258254  -0.011   5.297   0.846 -2.7964 -0.5097 -0.3754
12255TIP3   OH258255   6.593   0.194   0.439  0.1933  0.6102 -0.0078
12255TIP3    H158256   6.683   0.170   0.418  0.7302  2.0656  0.5532
12255TIP3    H258257   6.553   0.112   0.468  1.2162 -0.1310 -0.6064
12256TIP3   OH258258   4.320   3.758  10.952 -0.0493 -0.6393 -0.0107
12256TIP3    H158259   4.233   3.770  10.990  0.0292 -0.3980  0.0896
12256TIP3    H258260   4.305   3.761  10.857  0.1060  1.2547 -0.0050
12257TIP3   OH258261   0.546   4.392  12.158  0.0257  0.0161  0.3569
12257TIP3    H158262   0.537   4.400  12.063 -1.9684  0.8679  0.5610
12257TIP3    H258263   0.570   4.300  12.172 -0.5796 -0.3670 -0.9241
12258TIP3   OH258264   1.801   5.164  10.622 -0.0201  0.3677 -0.1001
12258TIP3    H158265   1.787   5.173  10.716  1.5623 -0.0529  0.2111
12258TIP3    H258266   1.826   5.073  10.610  1.4806  0.8241 -0.6581
12259TIP3   OH258267   4.634   5.325  15.207  0.1681 -0.6482  0.0053
12259TIP3    H158268   4.594   5.255  15.156 -2.2261  0.1118  0.7369
12259TIP3    H258269   4.640   5.290  15.296 -0.0128 -0.3126  0.1517
12260TIP3   OH258270   2.780   2.271  13.137  0.0420  0.1333  0.2827
12260TIP3    H158271   2.737   2.337  13.082 -0.7915 -0.5590  0.0904
12260TIP3    H258272   2.734   2.276  13.221  0.0825 -0.0919  0.3197
12261TIP3   OH258273   5.728   4.257   6.520  0.1202  0.3799  0.5173
12261TIP3    H158274   5.654   4.249   6.460  0.8830  1.8049 -0.6519
12261TIP3    H258275   5.778   4.177   6.507 -0.0729  0.3790 -0.2740
12262TIP3   OH258276   3.662   0.278  14.300  0.1404 -0.1561 -0.2939
12262TIP3    H158277   3.733   0.225  14.336 -0.4855 -2.5139 -2.2647
12262TIP3    H258278   3.662   0.258  14.207 -3.0450 -0.2248 -0.3945
12263TIP3   OH258279   1.831   2.358   0.541  0.2777 -0.1540 -0.1379
12263TIP3    H158280   1.861   2.435   0.588  0.4970 -0.0577 -0.4327
12263TIP3    H258281   1.738   2.375   0.524  0.0595 -0.4254  0.7210
12264TIP3   OH258282   1.000   4.814  13.983  0.3965 -0.2532  0.2274
12264TIP3    H158283   0.924   4.848  14.030  0.3884  1.5739 -1.0121
12264TIP3    H258284   0.990   4.719  13.987 -1.5691 -0.0656  0.7165
12265TIP3   OH258285   1.833   0.217   0.456 -0.0962 -0.6797  0.0170
12265TIP3    H158286   1.786   0.168   0.524  0.2661 -1.7005 -0.4517
12265TIP3    H258287   1.923   0.220   0.486 -0.2490  0.3534  0.3973
12266TIP3   OH258288   5.748   2.330  10.672  0.0644  0.2338  0.4782
12266TIP3    H158289   5.680   2.273  10.706  0.2177 -0.8276 -0.8911
12266TIP3    H258290   5.823   2.315  10.729 -0.1281 -0.3879  0.5714
12267TIP3   OH258291   4.864   3.160  11.886  0.0616  0.7913  0.0716
12267TIP3    H158292   4.782   3.175  11.840 -0.7094  0.7713  1.3697
12267TIP3    H258293   4.874   3.065  11.887  0.2965  0.8133 -0.4254
12268TIP3   OH258294   5.578   5.546   5.553  0.5580  0.4891 -0.1005
12268TIP3    H158295   5.554   5.620   5.498 -1.4748  0.3942  0.5860
12268TIP3    H258296   5.582   5.582   5.642  0.1781 -0.0875  0.1543
12269TIP3   OH258297   2.736   2.425   3.111 -0.0703  0.3656 -0.1826
12269TIP3    H158298   2.789   2.388   3.040  0.5520  0.3202  0.2998
12269TIP3    H258299   2.770   2.514   3.122  1.1590 -0.2552  1.3478
12270TIP3   OH258300   3.678   3.037   2.980  0.0276  0.0231 -0.7129
12270TIP3    H158301   3.606   2.974   2.990 -1.1268  1.4547  0.3772
12270TIP3    H258302   3.635   3.122   2.970  1.5581  1.0475  0.9001
12271TIP3   OH258303   3.961   2.293   6.016 -0.1778  0.5248 -0.5822
12271TIP3    H158304   3.877   2.251   6.033 -0.8005  2.4306  1.4981
12271TIP3    H258305   3.938   2.378   5.978  0.6885  1.6663  1.3211
12272TIP3   OH258306   3.842   4.270  10.920  0.1988  0.0890 -0.2953
12272TIP3    H158307   3.787   4.262  10.998 -0.2902  2.0650 -0.4041
12272TIP3    H258308   3.808   4.203  10.860  0.6426 -1.5227  1.1648
12273TIP3   OH258309   2.341   1.459   1.379 -0.1579 -0.3052  0.1410
12273TIP3    H158310   2.355   1.537   1.432 -3.0853 -0.8877  1.9952
12273TIP3    H258311   2.278   1.486   1.312  1.5959 -0.2302 -1.5648
12274TIP3   OH258312   5.316   0.131  10.821  0.5707 -0.4062  0.0307
12274TIP3    H158313   5.310   0.047  10.866  0.7210 -0.2737  0.3008
12274TIP3    H258314   5.248   0.127  10.753  1.8341 -1.5121 -1.2442
12275TIP3   OH258315   4.608   1.243   2.705  0.2097 -0.2072 -0.4303
12275TIP3    H158316   4.656   1.165   2.733 -0.7253 -0.8748 -0.6328
12275TIP3    H258317   4.546   1.211   2.640  1.0665  1.0168 -1.9188
12276TIP3   OH258318   0.302   2.089  11.702  0.2664 -0.2812  0.2983
12276TIP3    H158319   0.237   2.148  11.665  1.2159 -0.4885 -1.8234
12276TIP3    H258320   0.336   2.135  11.778 -0.8131  0.7711  0.1653
12277TIP3   OH258321   6.335   4.192  13.997  0.5781 -0.0629 -0.0611
12277TIP3    H158322   6.419   4.204  13.954  0.3103 -1.3632 -1.0057
12277TIP3    H258323   6.301   4.110  13.961 -0.6873 -0.0250  0.9681
12278TIP3   OH258324   1.414   4.331   2.124  0.2815  0.0830 -0.2612
12278TIP3    H158325   1.410   4.398   2.055  1.3414  0.4501  0.0157
12278TIP3    H258326   1.326   4.293   2.125  0.0354  0.5746 -1.3113
12279TIP3   OH258327   3.875   0.427  12.372 -0.0578 -0.0140  0.2884
12279TIP3    H158328   3.896   0.443  12.280  1.6092  0.7287  0.7607
12279TIP3    H258329   3.833   0.341  12.373  0.1802 -0.1647 -1.1246
12280TIP3   OH258330   6.423   1.599   6.016 -0.0280  0.0431  0.0806
12280TIP3    H158331   6.484   1.653   6.066 -0.6229  0.1089  0.7468
12280TIP3    H258332   6.343   1.597   6.069 -1.1206  1.1444 -1.4519
12281TIP3   OH258333   5.611   0.365  15.353  0.4143 -0.1977  1.0181
12281TIP3    H158334   5.703   0.340  15.347  0.3859 -0.4135  1.4236
12281TIP3    H258335   5.582   0.374  15.262  1.5032  2.3666  0.8339
12282TIP3   OH258336   3.226   1.055  11.339  0.5026 -0.5680  0.6598
12282TIP3    H158337   3.204   1.148  11.333 -1.6744 -1.0979 -0.5900
12282TIP3    H258338   3.247   1.029  11.249 -1.0358 -1.7170  0.5912
12283TIP3   OH258339   2.362   0.080  16.519 -0.0030  0.8341 -0.4816
12283TIP3    H158340   2.442   0.129  16.499 -0.2911  1.4671 -0.1381
12283TIP3    H258341   2.312   0.139  16.577 -0.0759 -0.1442  0.4750
12284TIP3   OH258342   6.820   5.607   4.172 -0.1748  0.5582 -0.0924
12284TIP3    H158343   6.832   5.520   4.210 -0.1930  0.3554 -0.5470
12284TIP3    H258344   6.889   5.614   4.106  0.6167  1.3808  0.7979
12285TIP3   OH258345   4.683   3.772   0.327 -0.2199 -0.0856 -0.1838
12285TIP3    H158346   4.721   3.855   0.297 -0.1323 -0.6531 -1.7202
12285TIP3    H258347   4.641   3.794   0.410  0.8533  1.2204  0.0546
12286TIP3   OH258348   0.773   2.168   3.623 -0.2143 -0.2848  0.7306
12286TIP3    H158349   0.745   2.252   3.659  1.1345  0.1803  0.7391
12286TIP3    H258350   0.858   2.186   3.582  0.2206 -1.6901  0.9561
12287TIP3   OH258351   2.658   3.033   2.908 -0.1176 -0.4821 -0.6102
12287TIP3    H158352   2.693   3.026   2.997 -0.2960  1.4324 -0.3568
12287TIP3    H258353   2.721   3.087   2.861 -0.5033 -0.6912 -1.3907
12288TIP3   OH258354   4.405   0.552  15.684 -0.1003  0.0258  0.7013
12288TIP3    H158355   4.362   0.479  15.641 -0.1083  0.7948 -0.6668
12288TIP3    H258356   4.343   0.625  15.675  0.6245  0.6314  0.4718
12289TIP3   OH258357   0.709   0.548  15.228  0.6501 -0.4164  0.1620
12289TIP3    H158358   0.792   0.531  15.184  0.4993  0.6383 -0.5538
12289TIP3    H258359   0.644   0.499  15.178  0.8360 -1.4035  0.8370
12290TIP3   OH258360   4.958   2.484  12.187  0.4337 -0.1072  0.0936
12290TIP3    H158361   4.894   2.556  12.193  1.1135  0.5438 -0.2812
12290TIP3    H258362   4.910   2.407  12.219 -2.3027 -0.8479 -4.7291
12291TIP3   OH258363   6.766   2.466   5.306  0.3372 -0.1821  0.1957
12291TIP3    H158364   6.731   2.378   5.298  2.3865 -1.1102  0.8747
12291TIP3    H258365   6.851   2.463   5.262  1.7273  0.6274  2.6165
12292TIP3   OH258366   4.021   2.726  16.558 -0.5748  0.5615  0.0261
12292TIP3    H158367   4.115   2.740  16.570 -0.0999  0.9938 -3.3762
12292TIP3    H258368   3.981   2.803  16.599  0.6358  1.1143  0.2417
12293TIP3   OH258369   4.899   3.905  15.231  0.3244 -0.6385  0.5634
12293TIP3    H158370   4.963   3.949  15.288  1.4188 -1.3505 -0.0885
12293TIP3    H258371   4.904   3.954  15.149  1.0384 -1.5215  0.0663
12294TIP3   OH258372   4.190   0.239   2.003 -0.1301 -0.3148  0.2071
12294TIP3    H158373   4.166   0.192   1.923 -0.1343  1.3322 -0.8275
12294TIP3    H258374   4.279   0.271   1.985 -0.7638  1.5104  0.1058
12295TIP3   OH258375   5.807   4.392  16.081  0.1702 -0.5869 -0.5820
12295TIP3    H158376   5.735   4.331  16.065  0.2388 -0.4964 -1.2981
12295TIP3    H258377   5.765   4.471  16.115  0.0711 -0.9877  0.2392
12296TIP3   OH258378   2.742   1.288   3.231 -0.6824  0.2614 -0.6251
12296TIP3    H158379   2.830   1.323   3.222  0.0831 -1.5895 -0.7929
12296TIP3    H258380   2.698   1.310   3.149 -1.1608  3.1121  0.2995
12297TIP3   OH258381   5.371   1.255   2.560 -0.1888 -0.1691  0.0907
12297TIP3    H158382   5.431   1.327   2.541 -0.3664 -0.3621 -1.3285
12297TIP3    H258383   5.429   1.181   2.579 -0.0068  0.3570  1.6993
12298TIP3   OH258384   2.759   4.515   4.480  0.2352  0.9211  0.1071
12298TIP3    H158385   2.794   4.427   4.467  0.5283  0.9868  0.4428
12298TIP3    H258386   2.664   4.505   4.472  0.1924  0.3950  1.1577
12299TIP3   OH258387   2.682   1.361  14.950 -0.4015  0.0321 -0.4350
12299TIP3    H158388   2.625   1.436  14.969 -1.5219 -0.7571 -0.5763
12299TIP3    H258389   2.683   1.310  15.031 -0.0582 -0.0682 -0.5022
12300TIP3   OH258390   2.383   1.445   6.145 -0.7123 -0.6189 -0.3452
12300TIP3    H158391   2.459   1.490   6.183 -1.5754 -0.5290  1.3250
12300TIP3    H258392   2.332   1.515   6.105 -1.3615 -0.2558  1.0649
12301TIP3   OH258393   5.191   4.743   0.683 -0.0034 -0.1571 -0.1964
12301TIP3    H158394   5.232   4.751   0.597  0.8890  0.8623  0.2962
12301TIP3    H258395   5.153   4.829   0.700  0.8078  0.0056  0.8971
12302TIP3   OH258396   3.765   0.687  11.310  0.5724  0.1238  0.2214
12302TIP3    H158397   3.772   0.727  11.223  1.3089 -0.3648  0.0430
12302TIP3    H258398   3.843   0.718  11.356  0.8436 -0.6161  0.2796
12303TIP3   OH258399   6.280   3.898   6.094 -0.0277  0.3485  0.1180
12303TIP3    H158400   6.375   3.908   6.091 -0.0214  0.0790 -0.7860
12303TIP3    H258401   6.258   3.849   6.015 -0.7605 -1.0173  1.1234
12304TIP3   OH258402   3.589   4.718  15.882 -0.4144  0.6000 -0.1775
12304TIP3    H158403   3.500   4.685  15.871 -0.6215  1.0023  0.2621
12304TIP3    H258404   3.587   4.763  15.967  0.8758 -1.6508  1.1396
12305TIP3   OH258405   0.523   5.406   2.040 -0.4931 -1.0386  0.1633
12305TIP3    H158406   0.463   5.480   2.048  0.7722 -0.0776  0.9906
12305TIP3    H258407   0.551   5.407   1.949 -0.3140 -0.3724  0.2258
12306TIP3   OH258408   5.840   5.348   2.036 -0.3900 -0.0949  0.2786
12306TIP3    H158409   5.810   5.432   2.070 -0.1981  0.4872 -0.9625
12306TIP3    H258410   5.874   5.367   1.949  1.4693 -1.1259  0.7277
12307TIP3   OH258411   2.241   2.032  12.755  0.2377 -0.2185  0.5175
12307TIP3    H158412   2.308   1.969  12.730  1.8824  1.8473 -0.5163
12307TIP3    H258413   2.195   1.990  12.829  1.6431 -2.3196  0.2768
12308TIP3   OH258414   0.463   1.026  11.374  0.1716  0.4623  0.7466
12308TIP3    H158415   0.374   1.000  11.352  0.1943  0.0957  1.0684
12308TIP3    H258416   0.515   0.947  11.362  0.9570  1.2787 -2.0384
12309TIP3   OH258417   6.133   5.942  15.810 -0.0907  0.0309  0.3951
12309TIP3    H158418   6.057   5.967  15.863  1.0962  2.1981  1.1852
12309TIP3    H258419   6.095   5.911  15.728 -1.8342  1.2060  0.6919
12310TIP3   OH258420   4.920   0.554   0.631 -0.0733 -0.3750  0.1905
12310TIP3    H158421   4.876   0.469   0.624  0.5751 -0.9549  2.4112
12310TIP3    H258422   5.006   0.540   0.591  1.7122 -2.1594  4.0994
12311TIP3   OH258423   4.433   0.198  11.949  0.4729 -0.0452 -0.1229
12311TIP3    H158424   4.372   0.270  11.935 -0.0488 -0.4332  0.1319
12311TIP3    H258425   4.396   0.125  11.900  1.2431 -0.0226 -0.7710
12312TIP3   OH258426   5.961   2.750   0.528 -0.3087 -0.0352 -0.2735
12312TIP3    H158427   5.927   2.746   0.618 -0.6918  0.8724 -0.3752
12312TIP3    H258428   6.035   2.689   0.528 -1.7890 -1.9266  0.0026
12313TIP3   OH258429   5.963   6.532  13.636 -0.4411 -0.1216 -0.3648
12313TIP3    H158430   5.957   6.449  13.683 -0.3740  0.0951  0.0232
12313TIP3    H258431   5.895   6.526  13.569 -0.6329 -0.3647 -0.1481
12314TIP3   OH258432   2.287   2.023   3.206 -0.3125 -0.0255 -0.4060
12314TIP3    H158433   2.194   2.036   3.222 -0.2583 -0.8817  0.7082
12314TIP3    H258434   2.292   1.953   3.141 -0.4344 -2.2264  1.8484
12315TIP3   OH258435   4.678   1.556   3.035  0.2458 -0.4436  0.7592
12315TIP3    H158436   4.637   1.636   3.068  3.2869  0.6530  2.3189
12315TIP3    H258437   4.693   1.573   2.942  0.2931  0.5914  0.9405
12316TIP3   OH258438   3.381   6.808  14.863  0.1815  0.1326 -0.1306
12316TIP3    H158439   3.443   6.739  14.886  1.8097  0.9415 -1.8387
12316TIP3    H258440   3.297   6.763  14.853  1.4819 -1.9895 -2.8613
12317TIP3   OH258441   6.403   3.491   6.437 -0.4906  0.1742 -0.1740
12317TIP3    H158442   6.496   3.469   6.445 -0.3884 -0.2168 -2.0140
12317TIP3    H258443   6.362   3.454   6.515  0.6334 -1.1936 -0.1995
12318TIP3   OH258444   4.248   0.564  11.234  0.4311 -0.2441  0.1286
12318TIP3    H158445   4.241   0.624  11.161  0.3066 -1.7311 -1.1290
12318TIP3    H258446   4.223   0.479  11.198  1.4914 -1.2297  1.5961
12319TIP3   OH258447   5.264   4.139  12.792  0.4037 -0.2203  0.0958
12319TIP3    H158448   5.330   4.072  12.810  0.0349 -0.8427 -0.7873
12319TIP3    H258449   5.200   4.129  12.862  0.3807 -0.7638  0.0053
12320TIP3   OH258450   1.895   3.418   3.535 -0.1845 -0.1464  0.3835
12320TIP3    H158451   1.974   3.409   3.589 -0.0050 -2.5570 -0.1940
12320TIP3    H258452   1.832   3.357   3.574 -0.9120 -0.0649 -0.6449
12321TIP3   OH258453   3.392   2.067  13.552  0.1053  0.3462  0.3602
12321TIP3    H158454   3.324   2.014  13.595 -2.0674  0.4588 -2.6295
12321TIP3    H258455   3.371   2.157  13.576  0.5841  0.2391  1.2126
12322TIP3   OH258456   6.001   3.507  15.907 -0.3561 -0.2048 -0.2707
12322TIP3    H158457   6.022   3.550  15.824  0.6258 -0.4797 -0.1759
12322TIP3    H258458   6.014   3.575  15.973  2.0968 -0.8198 -0.0232
12323TIP3   OH258459   0.498   4.272   2.829 -0.0864 -0.1872  0.5944
12323TIP3    H158460   0.484   4.346   2.770  2.4975 -0.1841 -0.1492
12323TIP3    H258461   0.434   4.206   2.800  0.2562  0.2941 -1.3967
12324TIP3   OH258462   2.647   2.805  16.599 -0.1756 -0.1360 -0.1504
12324TIP3    H158463   2.632   2.717  16.632  0.1834  0.0330  0.4693
12324TIP3    H258464   2.723   2.796  16.542  0.8175  0.0458  1.1134
12325TIP3   OH258465   2.131   2.888   4.724  0.1107  0.0957 -0.5686
12325TIP3    H158466   2.172   2.858   4.805 -1.7964  0.8930  0.7576
12325TIP3    H258467   2.103   2.809   4.680 -2.9226 -0.3572  1.8298
12326TIP3   OH258468   4.940   3.035  14.173 -0.4164 -0.1718 -0.5898
12326TIP3    H158469   4.871   3.044  14.106 -1.5452  1.2562  0.6997
12326TIP3    H258470   4.982   3.121  14.175 -0.9677  0.0799  1.1160
12327TIP3   OH258471   6.115   4.242  13.165 -0.2631  0.1736 -0.3501
12327TIP3    H158472   6.161   4.316  13.205  0.7867 -0.7661  0.2447
12327TIP3    H258473   6.058   4.281  13.100  1.2492  1.4161 -0.9874
12328TIP3   OH258474   6.015   6.475  16.645 -0.4338  1.2569  0.2937
12328TIP3    H158475   5.966   6.552  16.673 -1.2264  0.3668  1.4664
12328TIP3    H258476   5.991   6.462  16.553 -0.2048  2.4591  0.0568
12329TIP3   OH258477   4.919   2.276   5.983  0.7471  0.0260  0.3538
12329TIP3    H158478   4.853   2.265   5.915 -0.7148  0.9386  1.5619
12329TIP3    H258479   4.991   2.218   5.956  0.3983  0.6451 -2.1149
12330TIP3   OH258480   5.401   4.824  14.358 -0.1131 -0.7313 -0.0918
12330TIP3    H158481   5.349   4.744  14.355  0.7410 -1.3396  0.5221
12330TIP3    H258482   5.337   4.895  14.364 -0.8713 -1.4252  0.1678
12331TIP3   OH258483   4.912   4.380  11.662  0.9057 -0.1702  0.3476
12331TIP3    H158484   5.007   4.369  11.657  0.7362 -1.5656 -0.5471
12331TIP3    H258485   4.878   4.323  11.592 -0.6488 -1.0403  1.7387
12332TIP3   OH258486   6.532   3.751  12.301  0.1356  0.3917 -0.4301
12332TIP3    H158487   6.545   3.778  12.392  1.0447  0.4795 -0.5732
12332TIP3    H258488   6.496   3.828  12.257 -1.2154  0.0612  0.0400
12333TIP3   OH258489   6.662   1.737  13.579 -0.1879  0.5665  0.4302
12333TIP3    H158490   6.754   1.710  13.574 -0.3958  0.0558 -1.1534
12333TIP3    H258491   6.641   1.734  13.672  0.9399 -0.8896  0.6653
12334TIP3   OH258492   0.807   2.979   5.688 -0.7640 -0.3493  0.1199
12334TIP3    H158493   0.864   2.916   5.733  1.1968  1.1891 -0.0440
12334TIP3    H258494   0.756   3.019   5.758 -1.9606 -1.9611  0.2385
12335TIP3   OH258495   2.796   5.938   5.815 -0.2915 -0.1751 -0.1076
12335TIP3    H158496   2.743   5.859   5.801  0.7107 -1.1044  1.0072
12335TIP3    H258497   2.884   5.904   5.831  0.1390  1.1816  0.5269
12336TIP3   OH258498   6.750   0.180   4.686 -0.2558 -0.3386  0.4453
12336TIP3    H158499   6.692   0.116   4.644  0.1639 -0.4825  0.0863
12336TIP3    H258500   6.776   0.138   4.768  1.1555 -1.2423 -0.4348
12337TIP3   OH258501   1.244   2.060   0.597  0.3567 -0.2773  0.6625
12337TIP3    H158502   1.249   2.078   0.503  1.0854 -1.1429  0.5260
12337TIP3    H258503   1.267   2.144   0.638 -1.2164  0.4635  0.1017
12338TIP3   OH258504   1.127   4.716  16.994  0.2433 -0.3070 -0.3704
12338TIP3    H158505   1.198   4.676  17.046 -0.3134 -1.2126 -0.2829
12338TIP3    H258506   1.129   4.808  17.018  0.9340 -0.4524  0.1743
12339TIP3   OH258507   4.567   4.307   5.732 -0.1496 -0.1545 -0.3573
12339TIP3    H158508   4.479   4.301   5.768 -0.9049 -0.2793 -2.1199
12339TIP3    H258509   4.600   4.392   5.763 -0.6603 -0.3527  0.7716
12340TIP3   OH258510   3.465   2.646   5.754  0.3514  0.1565 -0.4713
12340TIP3    H158511   3.507   2.605   5.829 -1.7032  0.8421  1.1757
12340TIP3    H258512   3.491   2.594   5.678  3.6813  0.3011  0.4448
12341TIP3   OH258513   0.798   3.770   1.533 -1.1807 -0.0097 -0.3144
12341TIP3    H158514   0.712   3.737   1.558 -1.5498  1.7457  0.8484
12341TIP3    H258515   0.780   3.840   1.469 -0.6784  0.8342  0.4456
12342TIP3   OH258516   1.755   5.012   4.219 -0.2154 -0.6430  0.1295
12342TIP3    H158517   1.679   4.972   4.262 -0.0364  0.7573  1.8154
12342TIP3    H258518   1.775   5.089   4.272  0.8629  0.4101 -1.7180
12343TIP3   OH258519   0.842   4.565   4.233  0.6461 -0.3449 -0.2278
12343TIP3    H158520   0.861   4.566   4.139  0.3905  2.2089 -0.3170
12343TIP3    H258521   0.756   4.607   4.241  1.2272  0.6597  1.2187
12344TIP3   OH258522   2.618   5.519  11.092  0.0339 -0.2725 -0.1910
12344TIP3    H158523   2.694   5.460  11.096 -0.5777 -1.0443  0.2600
12344TIP3    H258524   2.654   5.605  11.117  0.6607 -0.7331  0.5450
12345TIP3   OH258525   1.851   3.695  13.547 -0.0297 -0.2250 -0.1078
12345TIP3    H158526   1.933   3.743  13.561  0.5027 -1.7153  2.6373
12345TIP3    H258527   1.801   3.750  13.487  1.5971  2.4315  0.7979
12346TIP3   OH258528   2.530   1.522   5.421 -0.4540  0.2516 -0.2422
12346TIP3    H158529   2.596   1.465   5.382  1.7498  1.7571  1.0172
12346TIP3    H258530   2.454   1.515   5.363 -0.2455 -3.6488 -0.2823
12347TIP3   OH258531   0.511   3.697  11.649 -0.8305 -0.0511  0.0466
12347TIP3    H158532   0.518   3.789  11.674  1.2407  0.2683 -1.4764
12347TIP3    H258533   0.591   3.656  11.681 -0.3879 -0.6712 -1.7402
12348TIP3   OH258534   2.309   5.586   2.999 -0.0894  0.0357 -0.0785
12348TIP3    H158535   2.242   5.652   3.016 -0.6916 -0.4590 -0.4873
12348TIP3    H258536   2.261   5.511   2.964  0.5018 -0.8278  0.8783
12349TIP3   OH258537   3.304   4.140  15.654 -0.3612 -0.0582  0.3626
12349TIP3    H158538   3.354   4.169  15.730 -1.8654  3.0179  0.3251
12349TIP3    H258539   3.364   4.153  15.580 -0.0455  0.1460  0.6499
12350TIP3   OH258540   1.961   1.970   4.146 -0.0136 -0.0365  0.5570
12350TIP3    H158541   2.034   2.031   4.160 -1.2204  1.5570  0.2353
12350TIP3    H258542   1.979   1.931   4.060 -1.2847  3.0613 -1.2689
12351TIP3   OH258543   1.161   3.126  11.707  0.1849  0.2750 -0.5883
12351TIP3    H158544   1.204   3.199  11.751  0.4607  0.5120 -1.2311
12351TIP3    H258545   1.070   3.153  11.697  0.0765  0.1368  0.0035
12352TIP3   OH258546   2.360   2.780   3.699 -0.3122 -0.5559  0.0544
12352TIP3    H158547   2.293   2.848   3.708  1.6402  1.7066 -1.2030
12352TIP3    H258548   2.372   2.771   3.605  0.3681 -1.7305  0.2401
12353TIP3   OH258549   5.375   5.347   3.614  0.2521  0.2909  0.6006
12353TIP3    H158550   5.386   5.268   3.667  0.0114  0.1012  0.3723
12353TIP3    H258551   5.368   5.418   3.678  1.3861  0.2548  0.7813
12354TIP3   OH258552   3.223   2.066  10.586 -0.3820 -0.0741  0.1973
12354TIP3    H158553   3.168   2.108  10.652 -2.6685  0.1776 -1.7425
12354TIP3    H258554   3.207   1.972  10.597 -0.0989 -0.0819  0.5434
12355TIP3   OH258555   5.751   4.913  16.659  0.1132 -0.5979 -0.2678
12355TIP3    H158556   5.790   4.909  16.572 -0.9481 -0.2014 -0.7697
12355TIP3    H258557   5.679   4.851  16.657 -0.2275 -0.2261  0.1634
12356TIP3   OH258558   0.722   1.409  10.403  0.0062  0.3924 -0.6215
12356TIP3    H158559   0.684   1.431  10.318  3.4720  1.5103 -2.0605
12356TIP3    H258560   0.719   1.313  10.407  0.1150  0.3088 -2.1973
12357TIP3   OH258561   2.528   1.330   2.572  0.5207  0.5273 -0.1669
12357TIP3    H158562   2.452   1.329   2.630  1.1001 -0.7010  0.6188
12357TIP3    H258563   2.492   1.342   2.485 -0.3854  2.3162  0.4089
12358TIP3   OH258564   3.492   4.785  10.937 -0.0689 -0.1613  0.3410
12358TIP3    H158565   3.437   4.845  10.887  1.5272  0.9114 -0.2340
12358TIP3    H258566   3.446   4.701  10.934  0.1720 -0.3029 -3.4117
12359TIP3   OH258567   4.887   3.068   2.691  0.1414 -0.5780 -0.0128
12359TIP3    H158568   4.949   3.015   2.641  2.1624 -0.4690  2.2165
12359TIP3    H258569   4.879   3.023   2.775  0.1535  1.4215  1.1199
12360TIP3   OH258570   4.880   2.198   5.233  0.3250 -0.1598 -0.5574
12360TIP3    H158571   4.927   2.258   5.175  1.0583 -1.1713 -1.0263
12360TIP3    H258572   4.829   2.142   5.174  0.8197 -0.9832 -0.2183
12361TIP3   OH258573   4.743   2.158  15.506 -0.2713 -0.3689  0.1580
12361TIP3    H158574   4.758   2.069  15.540 -0.4463  0.1748  1.7570
12361TIP3    H258575   4.668   2.149  15.448  0.2728 -1.4195 -0.4129
12362TIP3   OH258576   3.549   2.113   1.378  0.5203  0.2156 -0.1442
12362TIP3    H158577   3.634   2.154   1.370  0.6843 -0.2919 -1.1359
12362TIP3    H258578   3.513   2.114   1.290  0.1821 -0.9993 -0.0391
12363TIP3   OH258579   1.348   0.125  10.728 -0.3311  0.3030 -0.4701
12363TIP3    H158580   1.369   0.087  10.643 -1.2872 -1.1452 -0.0943
12363TIP3    H258581   1.405   0.201  10.735 -1.8058  1.8213 -3.3508
12364TIP3   OH258582   4.582   1.500  14.450  0.0296 -0.3428  0.4431
12364TIP3    H158583   4.489   1.482  14.436  0.0608 -0.4439  0.3599
12364TIP3    H258584   4.600   1.472  14.540  0.0529 -0.6291  0.3513
12365TIP3   OH258585   3.253   5.063  13.072 -0.1885  0.3685  0.8216
12365TIP3    H158586   3.251   5.123  12.998  5.2778  1.1894  0.9069
12365TIP3    H258587   3.226   5.117  13.147  0.7510  1.6113  0.3085
12366TIP3   OH258588   5.571   1.460  15.157  0.0268 -0.1912  0.1389
12366TIP3    H158589   5.530   1.387  15.204  0.9381  0.2043  1.6079
12366TIP3    H258590   5.665   1.449  15.172  0.3410  0.0506 -1.4969
12367TIP3   OH258591   2.864   3.328  10.441  0.2831  0.0956 -0.2012
12367TIP3    H158592   2.831   3.280  10.517 -0.8498 -1.3669 -1.5433
12367TIP3    H258593   2.807   3.300  10.369  1.9465  0.6346 -1.7959
12368TIP3   OH258594   0.098   0.374   5.040  0.1380  0.5453  0.2503
12368TIP3    H158595   0.182   0.387   5.083  0.7258 -0.6430 -0.4746
12368TIP3    H258596   0.051   0.311   5.096  0.7698 -0.7410 -0.6016
12369TIP3   OH258597   1.555   0.421   3.158 -0.1377 -1.0564 -0.2402
12369TIP3    H158598   1.479   0.463   3.119 -0.5162 -1.4310  0.0829
12369TIP3    H258599   1.628   0.446   3.102 -0.1903  0.8170  0.4598
12370TIP3   OH258600   5.499   4.221   2.185  0.5076  0.3475  0.4322
12370TIP3    H158601   5.557   4.147   2.205  0.8244  0.6450  0.6206
12370TIP3    H258602   5.498   4.224   2.089  1.6188  0.9649  0.4238
12371TIP3   OH258603   5.333   4.416   4.024 -0.0688  0.7244 -0.0794
12371TIP3    H158604   5.306   4.354   4.092  1.2803 -0.4602 -0.5615
12371TIP3    H258605   5.381   4.484   4.071  1.3660 -0.3875  0.1682
12372TIP3   OH258606   5.853   5.342  15.115  0.0024  0.2802  0.3284
12372TIP3    H158607   5.808   5.259  15.096 -0.0030  0.7695 -2.0928
12372TIP3    H258608   5.946   5.321  15.107 -0.0107  0.6378 -1.2643
12373TIP3   OH258609   2.023   1.174   6.211  0.4723 -0.3216  0.1608
12373TIP3    H158610   2.068   1.235   6.269  2.2149 -1.7357  0.3817
12373TIP3    H258611   1.959   1.129   6.267 -0.8821  1.2630 -0.0211
12374TIP3   OH258612   1.211   2.201   2.553  0.0286  0.2563 -0.0917
12374TIP3    H158613   1.180   2.210   2.463 -0.2681 -2.2187 -0.3008
12374TIP3    H258614   1.168   2.122   2.585 -0.2242  1.3167  2.4144
12375TIP3   OH258615   0.002   4.111  14.470  0.0073  0.3714 -0.4927
12375TIP3    H158616   0.002   4.105  14.566  0.1820 -0.1215 -0.5185
12375TIP3    H258617   0.075   4.054  14.443  0.0159  0.5801 -0.9131
12376TIP3   OH258618   1.527   6.118  11.785 -0.4468  0.1830 -0.4073
12376TIP3    H158619   1.445   6.168  11.783 -0.4686  0.2739  1.4816
12376TIP3    H258620   1.580   6.161  11.852  0.5583 -0.8049 -0.5428
12377TIP3   OH258621   5.111   4.928  14.050  0.0704  0.0439  0.1600
12377TIP3    H158622   5.056   4.945  13.973  0.5881 -0.9514 -0.4581
12377TIP3    H258623   5.159   4.848  14.027 -0.0346 -0.4821  1.6659
12378TIP3   OH258624   5.297   0.991   6.728 -0.1980 -0.4704  0.4473
12378TIP3    H158625   5.288   0.989   6.633 -1.7164 -1.1545  0.5746
12378TIP3    H258626   5.362   0.923   6.747  1.3725  0.8070 -0.1849
12379TIP3   OH258627   4.885   1.779  10.942 -0.1613  0.4353 -0.2797
12379TIP3    H158628   4.948   1.753  10.875  0.6583  2.0475 -0.1708
12379TIP3    H258629   4.935   1.781  11.023 -0.1898  2.2075 -0.2719
12380TIP3   OH258630   4.697   1.164  13.429 -0.4624  0.0155 -0.4911
12380TIP3    H158631   4.623   1.111  13.459  0.5173 -0.9310  0.3587
12380TIP3    H258632   4.774   1.123  13.469  0.2666  2.9358  1.4416
12381TIP3   OH258633   4.549   4.852   0.929 -0.0414 -0.0643 -0.4483
12381TIP3    H158634   4.607   4.793   0.880 -0.6877  0.1781 -1.5202
12381TIP3    H258635   4.607   4.895   0.992  0.3271 -2.4377  0.9793
12382TIP3   OH258636   0.913   4.382  15.105  0.5396  0.2545 -0.4937
12382TIP3    H158637   0.988   4.415  15.155  1.5402 -0.3977 -1.5168
12382TIP3    H258638   0.856   4.458  15.095  1.7418  1.1347 -0.8995
12383TIP3   OH258639   3.383   6.201  15.051  0.3331 -0.5705 -0.2736
12383TIP3    H158640   3.373   6.233  15.141 -0.6220 -2.6628  0.4306
12383TIP3    H258641   3.476   6.209  15.033  0.3872  0.8900  0.4866
12384TIP3   OH258642   3.096   2.298  16.032  0.1546 -0.1549 -0.4564
12384TIP3    H158643   3.089   2.214  16.078 -2.1997  0.0504 -0.3180
12384TIP3    H258644   3.190   2.313  16.024  0.6385 -2.4291  0.1908
12385TIP3   OH258645   1.251   3.309   1.306  1.0908 -0.4742  0.3681
12385TIP3    H158646   1.332   3.266   1.332  0.6014 -1.6737 -0.0170
12385TIP3    H258647   1.207   3.246   1.250  0.7254  0.8690 -0.9270
12386TIP3   OH258648   3.826   6.785  15.319  0.4133 -0.0739 -0.2668
12386TIP3    H158649   3.740   6.826  15.311  0.5970  0.5005  0.5360
12386TIP3    H258650   3.856   6.810  15.407  1.3099 -0.4335 -0.4615
12387TIP3   OH258651   5.783   1.546   0.549 -0.4928 -0.6919  0.2997
12387TIP3    H158652   5.749   1.498   0.473 -0.7386 -0.0946  0.0165
12387TIP3    H258653   5.759   1.493   0.624 -0.1737 -1.3391 -0.0445
12388TIP3   OH258654   4.079   1.532  12.066 -0.1766 -0.9367  0.2648
12388TIP3    H158655   4.057   1.493  12.151  1.4423  1.0222  1.6843
12388TIP3    H258656   3.994   1.560  12.031 -0.9169 -2.1063  1.0431
12389TIP3   OH258657   6.248   2.717   2.197  0.3189  0.2429  0.0159
12389TIP3    H158658   6.290   2.786   2.145  0.6601 -0.4905 -0.7163
12389TIP3    H258659   6.208   2.763   2.270  1.5669  1.0917  0.2064
12390TIP3   OH258660   4.661   3.757  15.034  0.2391 -0.8689 -0.4046
12390TIP3    H158661   4.756   3.744  15.032  0.4994  0.7157  0.2788
12390TIP3    H258662   4.643   3.812  14.958  0.1247  0.1291  0.3112
12391TIP3   OH258663   4.116   3.780   3.013 -0.3741 -0.3460  0.2889
12391TIP3    H158664   4.048   3.713   3.014 -0.9230  0.1636  2.3328
12391TIP3    H258665   4.129   3.802   3.105  2.4395 -0.2802 -0.0327
12392TIP3   OH258666   5.711   1.420   3.515  0.0303 -0.4691  0.1061
12392TIP3    H158667   5.770   1.468   3.573 -1.2011  1.5470 -0.2462
12392TIP3    H258668   5.624   1.430   3.554 -0.3880 -1.7136 -0.4486
12393TIP3   OH258669   5.907   1.992  11.215 -0.4623  0.2639  0.0199
12393TIP3    H158670   5.995   1.995  11.252 -0.1872  0.3909 -0.6296
12393TIP3    H258671   5.899   2.073  11.164 -1.0892  0.4288  0.3649
12394TIP3   OH258672   5.556   0.409  13.084 -0.3844 -0.3292  0.5015
12394TIP3    H158673   5.625   0.459  13.039 -0.9297  0.0634  0.0918
12394TIP3    H258674   5.474   0.444  13.048 -0.8598  0.3806  2.1821
12395TIP3   OH258675   6.249   3.571   0.421 -0.0069 -0.1560 -0.5039
12395TIP3    H158676   6.173   3.627   0.439 -0.0782  0.1404 -1.6320
12395TIP3    H258677   6.293   3.562   0.505 -0.1030  1.4541 -0.2475
12396TIP3   OH258678   0.364   0.359  12.611  0.2827 -0.2070 -0.1495
12396TIP3    H158679   0.365   0.265  12.630 -0.4181 -0.1863  0.0201
12396TIP3    H258680   0.297   0.370  12.544  0.6823  0.1197 -0.5047
12397TIP3   OH258681   3.085   0.706   1.175  0.4265  0.0819 -0.1824
12397TIP3    H158682   3.127   0.791   1.156  1.2619 -0.4378 -0.7782
12397TIP3    H258683   3.002   0.710   1.128  0.2128  0.7802  0.2398
12398TIP3   OH258684   0.434   1.514   0.689 -0.0561 -0.2466 -0.8722
12398TIP3    H158685   0.497   1.482   0.625  1.7138 -1.6375  1.3841
12398TIP3    H258686   0.381   1.437   0.710  0.8868 -0.4749  0.8951
12399TIP3   OH258687   5.771   6.513  16.949 -0.5143 -0.1544 -0.0622
12399TIP3    H158688   5.781   6.564  16.868 -2.1770  0.2064 -0.0949
12399TIP3    H258689   5.700   6.452  16.929 -1.4668  0.4305  1.3298
12400TIP3   OH258690   3.965   4.640  17.019  0.0973 -0.1689 -0.3869
12400TIP3    H158691   4.033   4.649  16.952  0.9773  0.6206  0.5644
12400TIP3    H258692   3.883   4.657  16.973  0.6590  0.1710 -1.2951
12401TIP3   OH258693   4.834   6.159  14.589  0.9635  0.3546 -0.0111
12401TIP3    H158694   4.914   6.211  14.595  1.2633 -0.2303  2.0373
12401TIP3    H258695   4.865   6.068  14.596  0.3516 -0.1031 -2.3329
12402TIP3   OH258696   1.254   5.924  14.979 -0.9779 -0.0516  0.1174
12402TIP3    H158697   1.181   5.863  14.992 -0.8278 -0.2192  0.1820
12402TIP3    H258698   1.251   5.945  14.885 -1.2805  0.1612  0.1738
12403TIP3   OH258699   0.103   2.070   5.367  0.7709  0.2914 -0.1358
12403TIP3    H158700   0.072   2.115   5.289  0.0951  1.9214  1.0164
12403TIP3    H258701   0.170   2.129   5.403  2.2776 -1.2224 -0.3594
12404TIP3   OH258702   5.131   0.881  11.265 -0.7381  0.0303 -0.0881
12404TIP3    H158703   5.061   0.906  11.204 -1.2767 -1.2793 -0.0366
12404TIP3    H258704   5.156   0.963  11.306  0.2490  1.1224 -2.6525
12405TIP3   OH258705   1.863   4.099  12.889  0.0920 -0.5967 -0.5491
12405TIP3    H158706   1.788   4.060  12.934  0.8325  1.2926  2.6478
12405TIP3    H258707   1.940   4.057  12.929  0.7976  1.6133  0.5892
12406TIP3   OH258708   5.563   5.816  16.443 -0.8417 -0.0612 -0.7910
12406TIP3    H158709   5.615   5.760  16.501 -0.1576  0.9022 -0.4545
12406TIP3    H258710   5.516   5.754  16.386 -0.3541 -0.9804 -0.2224
12407TIP3   OH258711   3.833   3.403  15.516  0.5117 -0.1480 -0.0054
12407TIP3    H158712   3.738   3.416  15.515  0.4459 -0.3963 -2.2110
12407TIP3    H258713   3.848   3.339  15.585 -0.4781  2.3691  2.7763
12408TIP3   OH258714   6.047   6.066  16.868  0.8452  0.4160  0.2575
12408TIP3    H158715   6.060   5.972  16.881  0.7237  0.1763 -1.2382
12408TIP3    H258716   6.116   6.092  16.807  2.0149  1.6905  2.0331
12409TIP3   OH258717   0.383   5.716  10.472 -0.1834  0.0326 -0.1417
12409TIP3    H158718   0.417   5.805  10.458 -2.0429  0.7248 -0.5959
12409TIP3    H258719   0.322   5.726  10.545 -2.2829 -0.3022 -1.7624
12410TIP3   OH258720   2.445   3.890  12.785  0.1883  0.0852 -0.4437
12410TIP3    H158721   2.395   3.954  12.735  0.8355 -0.2713 -1.5832
12410TIP3    H258722   2.518   3.940  12.822  0.4947  0.0998 -1.0411
12411TIP3   OH258723   2.511   2.841  11.548 -0.4376  0.0363 -0.3602
12411TIP3    H158724   2.506   2.746  11.559 -0.0819  0.0914  0.2870
12411TIP3    H258725   2.468   2.857  11.464 -0.4735 -0.6995 -0.4905
12412TIP3   OH258726   6.517   1.577   2.895 -0.4443  0.5042  0.2892
12412TIP3    H158727   6.513   1.570   2.799 -0.4422 -1.5284  0.3979
12412TIP3    H258728   6.610   1.573   2.915 -0.5069 -0.8317  0.4344
12413TIP3   OH258729   1.038   0.795  16.253  0.3546  0.0313  0.2610
12413TIP3    H158730   1.042   0.798  16.157  0.4536  1.3376  0.2901
12413TIP3    H258731   1.111   0.848  16.282  1.1636 -1.4768  1.1062
12414TIP3   OH258732   0.210   3.678  11.620 -0.5116 -0.3800 -0.5994
12414TIP3    H158733   0.304   3.662  11.619 -0.5081 -0.8525  1.7673
12414TIP3    H258734   0.173   3.607  11.567  0.3853 -0.9618 -0.4626
12415TIP3   OH258735   4.321   3.096  15.957  0.0941  0.0257 -0.5863
12415TIP3    H158736   4.383   3.048  15.902 -1.3128 -0.5604 -1.7105
12415TIP3    H258737   4.317   3.045  16.038  0.9963  0.0294 -0.5257
12416TIP3   OH258738   1.338   4.945  13.815 -0.4822  0.2186  0.4582
12416TIP3    H158739   1.390   4.866  13.833  1.2369  0.9472 -1.0680
12416TIP3    H258740   1.249   4.911  13.801  0.2878 -1.5636 -0.6263
12417TIP3   OH258741   0.859   0.735   2.860  0.3079  0.9323  0.3826
12417TIP3    H158742   0.929   0.714   2.923 -0.9055 -0.9014  1.1990
12417TIP3    H258743   0.799   0.791   2.909  0.2904  1.0148  0.2662
12418TIP3   OH258744   3.013   5.684   2.168 -0.3315 -0.2801  0.6978
12418TIP3    H158745   2.964   5.759   2.201 -1.0641  0.5562 -2.0559
12418TIP3    H258746   3.085   5.723   2.118 -1.2356 -1.2896 -1.5490
12419TIP3   OH258747   5.460   4.267  11.353 -0.4388  0.0862  0.1755
12419TIP3    H158748   5.493   4.206  11.419  1.0411 -0.4895 -1.0342
12419TIP3    H258749   5.538   4.315  11.325 -0.9056 -0.1248 -1.5838
12420TIP3   OH258750   6.034   5.701   0.220 -0.1507  0.5875  0.1449
12420TIP3    H158751   6.072   5.787   0.240 -2.5633  1.6595  0.4632
12420TIP3    H258752   6.078   5.674   0.139  2.4569  0.9105  1.3604
12421TIP3   OH258753   4.739   0.108  15.249  0.1222 -0.2406  0.1564
12421TIP3    H158754   4.673   0.171  15.275 -0.4301 -1.2646  1.3454
12421TIP3    H258755   4.772   0.072  15.332  1.7480 -0.1928 -0.4217
12422TIP3   OH258756   0.615   2.363   0.772 -0.1473  0.2694  0.4806
12422TIP3    H158757   0.615   2.417   0.693 -1.0032 -0.0509  0.2535
12422TIP3    H258758   0.676   2.408   0.831  0.3017  0.6569 -0.2536
12423TIP3   OH258759   6.384   6.093  15.552 -0.1709 -0.1314  0.7294
12423TIP3    H158760   6.381   6.180  15.514  0.8470 -0.4709 -0.1771
12423TIP3    H258761   6.395   6.034  15.477 -0.4917 -1.0121  1.3551
12424TIP3   OH258762   6.797   0.676  12.391  0.7877 -0.4464 -0.1860
12424TIP3    H158763   6.747   0.596  12.407 -3.3026  1.5821 -1.3278
12424TIP3    H258764   6.819   0.672  12.298  1.2652 -0.5668 -0.0696
12425TIP3   OH258765   1.829   0.222   5.440 -0.5315 -0.2103  0.6607
12425TIP3    H158766   1.902   0.270   5.479 -0.4770 -0.5464  0.9757
12425TIP3    H258767   1.821   0.259   5.352 -0.1691  0.0318  0.7258
12426TIP3   OH258768   6.283   1.277   5.030  0.4085 -0.2729 -0.0778
12426TIP3    H158769   6.345   1.344   5.059  1.5702 -1.8867  1.3877
12426TIP3    H258770   6.256   1.233   5.111 -0.2728 -1.6037 -0.9958
12427TIP3   OH258771   6.401   0.711   0.710  0.0935  0.6795 -0.0619
12427TIP3    H158772   6.378   0.639   0.651  0.3487 -0.1339  0.8183
12427TIP3    H258773   6.320   0.731   0.757  0.3285  0.1449  0.5678
12428TIP3   OH258774   3.816   4.095  15.408 -0.4463  0.7546 -0.5526
12428TIP3    H158775   3.746   4.156  15.432 -0.4109  0.7948 -0.5531
12428TIP3    H258776   3.885   4.111  15.472 -1.2183 -0.6654  0.7002
12429TIP3   OH258777   0.250   3.603  12.854 -0.3459  0.4049  0.1343
12429TIP3    H158778   0.174   3.545  12.854 -1.0114  1.2086  1.5737
12429TIP3    H258779   0.214   3.690  12.871  0.9387  0.7064  1.6013
12430TIP3   OH258780   3.483   0.728   3.622 -0.0477  0.2764 -0.1425
12430TIP3    H158781   3.420   0.775   3.675  1.0611  1.6012  0.0640
12430TIP3    H258782   3.479   0.637   3.653 -0.8837  0.6110  0.7580
12431TIP3   OH258783   1.775   0.872  15.142  0.2748  0.2590 -0.3006
12431TIP3    H158784   1.818   0.951  15.176  1.2807  0.1898 -1.3296
12431TIP3    H258785   1.791   0.875  15.047 -0.5568 -0.6586 -0.4866
12432TIP3   OH258786   2.406   1.469  11.155 -0.1628 -0.1615 -0.2701
12432TIP3    H158787   2.392   1.379  11.126 -1.7590 -0.4586  1.2807
12432TIP3    H258788   2.338   1.520  11.112  1.4420  0.5857 -2.0799
12433TIP3   OH258789   0.372   1.538  11.108 -0.2402  0.1259 -0.7691
12433TIP3    H158790   0.398   1.455  11.148 -1.8401 -0.1160 -0.1668
12433TIP3    H258791   0.425   1.543  11.028  0.5197 -1.0419 -0.3732
12434TIP3   OH258792   6.464   5.869   5.783  0.1040  0.0284  0.2312
12434TIP3    H158793   6.538   5.869   5.844 -0.3146 -2.2430  0.8318
12434TIP3    H258794   6.472   5.785   5.737 -1.5616  0.1792 -0.3815
12435TIP3   OH258795   3.011   2.974   2.454 -0.2987  0.0539 -0.2787
12435TIP3    H158796   2.933   2.932   2.419 -1.7604  3.2857 -1.2163
12435TIP3    H258797   3.077   2.962   2.386 -0.9841  0.1347 -0.9718
12436TIP3   OH258798   2.830   5.572  12.793 -0.3195 -0.3684 -0.5610
12436TIP3    H158799   2.742   5.603  12.816 -0.3477 -1.6926  1.3085
12436TIP3    H258800   2.846   5.609  12.705 -3.3087 -1.2498 -1.5890
12437TIP3   OH258801   2.316   1.572   2.989  0.1289  0.0749  0.2523
12437TIP3    H158802   2.252   1.545   2.923 -0.6052  1.5022  0.3326
12437TIP3    H258803   2.355   1.490   3.020 -1.8457 -0.8790  0.3928
12438TIP3   OH258804   2.036   3.397   3.780  0.4111  0.2494 -0.0507
12438TIP3    H158805   2.049   3.415   3.873  0.5890 -0.0715 -0.0140
12438TIP3    H258806   2.120   3.417   3.739  0.7860 -0.9832  0.0646
12439TIP3   OH258807   5.166   1.018  12.076  0.0721 -0.1853 -0.1570
12439TIP3    H158808   5.150   1.110  12.098  1.1188  0.0301 -0.2298
12439TIP3    H258809   5.217   1.021  11.995 -0.1886 -0.8442 -0.3520
12440TIP3   OH258810   2.392   5.120  16.417  0.2740  0.3066  0.8614
12440TIP3    H158811   2.436   5.058  16.359  0.7676  1.1037  0.3637
12440TIP3    H258812   2.331   5.067  16.468  0.1779 -0.4781 -0.0580
12441TIP3   OH258813   4.604   1.083   2.093 -0.1225  0.3998 -0.3833
12441TIP3    H158814   4.654   1.051   2.168 -0.4030 -1.3518 -0.9051
12441TIP3    H258815   4.638   1.172   2.078  0.4226  0.5298  1.3584
12442TIP3   OH258816   6.335   4.289   4.028 -0.1731  0.5940 -0.1639
12442TIP3    H158817   6.385   4.370   4.044 -1.2098  1.2338 -0.0379
12442TIP3    H258818   6.334   4.245   4.113  1.9222 -0.4777 -0.6415
12443TIP3   OH258819   6.707   4.202  16.624 -0.1620 -0.3019 -0.2942
12443TIP3    H158820   6.673   4.275  16.676 -0.4412 -0.1342 -0.7034
12443TIP3    H258821   6.783   4.171  16.672  0.4523  0.8003 -0.5364
12444TIP3   OH258822   3.455   3.116   1.095 -0.6114 -0.0857 -0.0003
12444TIP3    H158823   3.528   3.149   1.044  0.8624 -0.1371  1.9405
12444TIP3    H258824   3.461   3.021   1.088 -1.4530 -0.0794 -1.0611
12445TIP3   OH258825   0.859   6.120  12.084  0.5442  0.3048  0.7278
12445TIP3    H158826   0.857   6.056  12.013  1.0654  0.0815  0.9020
12445TIP3    H258827   0.773   6.161  12.083  1.3230  2.0835 -1.6455
12446TIP3   OH258828   6.760   2.076   4.349  0.1105  0.6134  0.8448
12446TIP3    H158829   6.672   2.070   4.311 -0.4974 -0.3978  2.3043
12446TIP3    H258830   6.745   2.110   4.437  1.2205  0.6266  1.0388
12447TIP3   OH258831   3.284   5.197   4.184 -0.2433  0.4769 -0.0976
12447TIP3    H158832   3.320   5.259   4.247 -1.3786  1.5167 -0.4256
12447TIP3    H258833   3.346   5.123   4.184 -0.2611  0.4054  2.2565
12448TIP3   OH258834   2.074   1.808   3.924  0.3428 -0.1168 -0.3445
12448TIP3    H158835   2.102   1.862   3.850 -1.8598  0.3481 -0.9226
12448TIP3    H258836   2.106   1.720   3.904  2.6061  0.6149 -0.1770
12449TIP3   OH258837   2.765   1.288   4.492 -0.3430  0.0311 -0.8573
12449TIP3    H158838   2.726   1.228   4.555 -0.4637  1.4586  0.4695
12449TIP3    H258839   2.858   1.289   4.513 -0.5835  1.5936  0.2888
12450TIP3   OH258840   5.992   3.396   0.971 -0.1191 -0.6922 -0.4814
12450TIP3    H158841   6.066   3.346   1.004 -1.7940 -2.0166  1.5202
12450TIP3    H258842   5.986   3.372   0.879  2.4126  0.1662 -0.9603
12451TIP3   OH258843   0.172   6.749  13.234  0.0299 -0.3018 -0.2942
12451TIP3    H158844   0.188   6.754  13.140 -0.7578  2.0144 -0.3649
12451TIP3    H258845   0.256   6.772  13.274  0.3963 -1.4000 -0.3993
12452TIP3   OH258846   2.686   3.510   3.898 -0.4239 -0.1038 -0.1196
12452TIP3    H158847   2.667   3.602   3.920 -0.3651  0.0065 -0.5320
12452TIP3    H258848   2.601   3.473   3.873 -0.8292 -0.7084  1.9688
12453TIP3   OH258849   3.727   1.696   2.951  0.5118  0.1211 -0.1377
12453TIP3    H158850   3.662   1.761   2.925 -1.2685 -1.7256 -0.5421
12453TIP3    H258851   3.694   1.660   3.033  1.5782 -0.1415  0.1900
12454TIP3   OH258852   0.814   4.858  14.731 -0.1670  0.2728  0.1663
12454TIP3    H158853   0.736   4.811  14.761 -0.5088  1.1895  0.7534
12454TIP3    H258854   0.790   4.892  14.645 -0.4535  0.6559  0.3985
12455TIP3   OH258855   4.124   6.247   2.427  0.5310  0.0215  0.4508
12455TIP3    H158856   4.040   6.201   2.434  0.8439 -0.5283  0.6383
12455TIP3    H258857   4.106   6.321   2.369  0.0420 -0.4011  0.0545
12456TIP3   OH258858   5.434   5.574  16.615 -0.5276 -0.4764 -0.6337
12456TIP3    H158859   5.526   5.596  16.629 -0.9093  0.8992 -0.1821
12456TIP3    H258860   5.432   5.535  16.528  0.4213 -0.2118 -0.7832
12457TIP3   OH258861   3.862   2.434   0.556  0.1824  0.0409  0.4453
12457TIP3    H158862   3.806   2.394   0.623 -0.5457  1.8094  0.9320
12457TIP3    H258863   3.948   2.442   0.599  0.5866 -1.7041  0.0526
12458TIP3   OH258864   6.809   2.224  14.595 -0.3537 -0.0911  0.6167
12458TIP3    H158865   6.899   2.247  14.620 -0.1618  1.2402 -1.0931
12458TIP3    H258866   6.755   2.295  14.629 -0.8221 -0.9743  1.7918
12459TIP3   OH258867   4.730   4.100  16.647 -0.1145  0.1411  0.1411
12459TIP3    H158868   4.686   4.026  16.606  1.2001 -1.2583  1.1242
12459TIP3    H258869   4.799   4.125  16.585  0.7831 -0.8746  0.6794
12460TIP3   OH258870   4.223   2.379  13.195 -0.2386  0.4218 -0.3694
12460TIP3    H158871   4.157   2.448  13.205  0.1953  0.9206 -0.8766
12460TIP3    H258872   4.304   2.427  13.178  0.1854 -0.2002 -0.1105
12461TIP3   OH258873   0.656   1.965   1.908 -0.2653  0.5156  0.6366
12461TIP3    H158874   0.599   1.945   1.983 -1.2121 -0.4144 -0.2978
12461TIP3    H258875   0.596   1.970   1.833  0.5457  2.2554  0.0406
12462TIP3   OH258876   0.052   1.023   1.651 -0.2638 -0.4230 -0.4950
12462TIP3    H158877  -0.011   1.094   1.643 -0.3037 -0.5065 -0.9383
12462TIP3    H258878   0.058   0.986   1.563  1.6039  0.6130 -0.8603
12463TIP3   OH258879   0.966   3.907   2.530 -0.1313 -0.1633  0.2126
12463TIP3    H158880   0.893   3.960   2.500  1.6542  1.4174 -1.6879
12463TIP3    H258881   1.019   3.966   2.584  0.4490 -0.8485  0.4207
12464TIP3   OH258882   0.354   0.658  12.582 -0.2159 -0.5288  0.0535
12464TIP3    H158883   0.375   0.565  12.592  1.8374  0.0231  1.6721
12464TIP3    H258884   0.262   0.665  12.604 -0.8995 -2.3860 -1.8321
12465TIP3   OH258885   0.583   6.680  11.289 -0.4162 -0.2950 -0.3643
12465TIP3    H158886   0.627   6.600  11.318 -1.7307 -0.6681  0.6582
12465TIP3    H258887   0.564   6.665  11.196  1.9426  0.0586 -0.9699
12466TIP3   OH258888   6.122   4.059  12.615 -0.9419  0.2797  0.2538
12466TIP3    H158889   6.150   4.009  12.538  0.4720 -0.2503  1.0814
12466TIP3    H258890   6.057   4.121  12.581 -2.1858 -1.5910 -0.9400
12467TIP3   OH258891   2.921   3.072   1.779  0.0521  1.0566  0.3442
12467TIP3    H158892   2.920   3.043   1.870  1.1270 -0.3765 -0.0523
12467TIP3    H258893   2.948   2.994   1.730  0.4743  2.0648 -1.0847
12468TIP3   OH258894   6.185   1.833  16.863 -0.2714  0.2982 -1.0506
12468TIP3    H158895   6.232   1.905  16.904  0.3368 -0.3394 -0.5999
12468TIP3    H258896   6.213   1.834  16.772 -0.6926  0.9720 -1.1769
12469TIP3   OH258897   5.012   4.541   0.766 -0.4457  0.2984 -0.2319
12469TIP3    H158898   5.033   4.623   0.721  0.5647 -0.9383 -2.1632
12469TIP3    H258899   5.071   4.538   0.841 -0.1880  1.1271 -0.3994
12470TIP3   OH258900   1.521   4.120   4.599 -0.8060  0.6639 -0.0923
12470TIP3    H158901   1.573   4.106   4.679 -0.3465 -0.4773 -0.5745
12470TIP3    H258902   1.536   4.212   4.577  1.1069  0.3499 -0.2677
12471TIP3   OH258903   2.171   4.877   4.278  0.2600  0.1213 -0.4706
12471TIP3    H158904   2.264   4.856   4.288 -0.3709 -1.9912  2.0299
12471TIP3    H258905   2.162   4.965   4.315  1.4451  1.0626 -2.2628
12472TIP3   OH258906   0.800   2.787   0.729  0.5171  0.3988  0.2918
12472TIP3    H158907   0.745   2.791   0.651 -2.6332 -1.9299  2.1378
12472TIP3    H258908   0.818   2.879   0.750  0.6921  1.1075 -2.5775
12473TIP3   OH258909   0.578   3.366   2.526 -0.1101  0.5277  0.2471
12473TIP3    H158910   0.607   3.342   2.439 -0.9668  0.5478 -0.0467
12473TIP3    H258911   0.483   3.363   2.522 -0.1671 -1.2613  1.6874
12474TIP3   OH258912   3.917   0.423  14.371  0.0159 -0.2088  0.0524
12474TIP3    H158913   3.837   0.460  14.333 -1.6406 -3.9464 -0.4794
12474TIP3    H258914   3.914   0.450  14.463  0.2560  2.8187 -0.6930
12475TIP3   OH258915   1.607   4.341  15.238 -0.3766  0.8587  0.2805
12475TIP3    H158916   1.585   4.341  15.145  0.3872 -0.9573  0.0572
12475TIP3    H258917   1.536   4.389  15.280 -0.4585  2.1870 -1.2821
12476TIP3   OH258918   6.557   2.824  15.181 -0.2080 -0.3313 -0.3504
12476TIP3    H158919   6.620   2.863  15.120  0.5603 -0.9394  0.0418
12476TIP3    H258920   6.472   2.849  15.146  0.1731 -1.7133 -2.3869
12477TIP3   OH258921   3.943   3.837  12.664 -0.3367 -0.2712 -0.3769
12477TIP3    H158922   3.936   3.933  12.662 -1.8143 -0.3401  0.3098
12477TIP3    H258923   4.037   3.820  12.676 -0.1530  1.0996  0.2890
12478TIP3   OH258924   5.014   2.155  17.114 -0.0265  0.2445 -0.4372
12478TIP3    H158925   4.922   2.142  17.090 -0.1880 -1.1615  0.7659
12478TIP3    H258926   5.040   2.235  17.068 -1.8356  0.6574 -0.8274
12479TIP3   OH258927   2.942   6.748  14.339 -0.3923 -0.0646 -0.5437
12479TIP3    H158928   2.882   6.690  14.386  0.5627 -1.6452 -1.1919
12479TIP3    H258929   2.991   6.793  14.407 -0.7591 -0.4617 -0.0148
12480TIP3   OH258930   1.849   1.208  15.823 -0.2810 -0.0139  0.5013
12480TIP3    H158931   1.782   1.267  15.788  0.7744  2.0935  1.8624
12480TIP3    H258932   1.805   1.163  15.896 -1.0919 -1.0014 -0.5488
12481TIP3   OH258933   4.396   0.073  10.725 -0.6434  0.3212 -0.3548
12481TIP3    H158934   4.473   0.083  10.781 -0.1793  3.0643 -1.3322
12481TIP3    H258935   4.331   0.032  10.782  0.7044  0.3742  1.3230
12482TIP3   OH258936   6.218   5.434  11.865  0.2550  0.1596 -0.5610
12482TIP3    H158937   6.278   5.505  11.842  0.8409 -0.4414 -0.9402
12482TIP3    H258938   6.136   5.477  11.886  1.0024  1.0642  0.6425
12483TIP3   OH258939   1.781   1.295   5.130 -0.4211  0.6199  0.3829
12483TIP3    H158940   1.686   1.304   5.140 -0.4322 -1.1259  3.1264
12483TIP3    H258941   1.817   1.365   5.185 -0.2070 -0.2526  1.3887
12484TIP3   OH258942   2.674   4.752  12.356  0.4297 -0.2871  0.2119
12484TIP3    H158943   2.705   4.663  12.343  0.0311 -0.7816  2.2356
12484TIP3    H258944   2.752   4.802  12.381  0.3334 -0.5383  1.0358
12485TIP3   OH258945   2.443   4.665   2.873 -0.3538 -0.3916  0.6908
12485TIP3    H158946   2.398   4.589   2.835 -0.0090 -0.1497 -0.2484
12485TIP3    H258947   2.384   4.698   2.940  0.0291 -2.2410  2.0281
12486TIP3   OH258948   2.920   4.336  10.980 -0.1645  0.1212  0.1437
12486TIP3    H158949   2.842   4.289  10.950 -0.7234  0.4650  0.9980
12486TIP3    H258950   2.910   4.425  10.944 -0.2242  0.1963  0.3451
12487TIP3   OH258951   3.651   4.120  15.806 -0.1221 -0.0566  0.1496
12487TIP3    H158952   3.732   4.076  15.830  0.2290  1.4173  1.8408
12487TIP3    H258953   3.678   4.192  15.750 -0.1849  0.7067  1.0768
12488TIP3   OH258954   1.329   5.753  11.271 -0.9514  0.0098 -0.2873
12488TIP3    H158955   1.234   5.758  11.260 -1.1586 -0.8957  0.9926
12488TIP3    H258956   1.352   5.664  11.245 -0.2235  0.6416 -1.9770
12489TIP3   OH258957   4.562   4.458  11.699  0.3195 -0.0844 -0.2800
12489TIP3    H158958   4.496   4.462  11.630 -0.5312 -1.0864  0.4368
12489TIP3    H258959   4.573   4.365  11.718 -0.1966  0.1786  1.5675
12490TIP3   OH258960   4.686   2.224  12.043  0.1587  0.1297 -0.2533
12490TIP3    H158961   4.753   2.230  11.975  1.2026  1.8951  0.8807
12490TIP3    H258962   4.603   2.235  11.996  0.7962  0.3867 -1.3454
12491TIP3   OH258963   6.061   2.932   1.355 -0.1695  0.5116 -0.3388
12491TIP3    H158964   6.113   2.927   1.274  2.9507  0.7352  1.4675
12491TIP3    H258965   6.043   3.025   1.367  1.2463  0.7363  0.2419
12492TIP3   OH258966   1.035   0.176   1.527 -0.2007 -0.2407  0.4401
12492TIP3    H158967   1.018   0.216   1.442 -1.4853  0.4167  0.9831
12492TIP3    H258968   1.131   0.173   1.533 -0.0586 -1.3998 -1.5109
12493TIP3   OH258969   5.172   3.781  14.253 -0.2291 -0.0868  0.5767
12493TIP3    H158970   5.250   3.808  14.206 -0.1930 -0.4069  0.4494
12493TIP3    H258971   5.202   3.761  14.341 -0.4244  1.2598  0.9700
12494TIP3   OH258972   4.310   0.853  17.175  0.6576  0.0635 -0.3740
12494TIP3    H158973   4.226   0.828  17.136  0.9032  0.5694 -1.2441
12494TIP3    H258974   4.328   0.784  17.239 -0.0260 -0.4877 -0.7645
12495TIP3   OH258975   3.444   0.498  16.540 -0.4348  0.1004  0.2108
12495TIP3    H158976   3.439   0.507  16.636  3.0925  0.4380  0.4947
12495TIP3    H258977   3.467   0.586  16.510  0.0435 -0.3546 -0.7777
12496TIP3   OH258978   2.608   2.263  15.591 -0.1381  0.0784 -0.3880
12496TIP3    H158979   2.633   2.183  15.545  0.6985 -1.2931  2.2420
12496TIP3    H258980   2.519   2.281  15.562  0.0156 -1.2165 -1.7892
12497TIP3   OH258981   6.374   5.747  13.872 -0.6514 -0.0215  0.2002
12497TIP3    H158982   6.309   5.789  13.815 -1.8109 -0.7875  0.9142
12497TIP3    H258983   6.334   5.746  13.959  0.8606  0.6176  0.9428
12498TIP3   OH258984   5.104   4.817  16.245  0.2468 -0.0219  0.2125
12498TIP3    H158985   5.013   4.847  16.242 -0.0135 -0.8295 -0.2331
12498TIP3    H258986   5.124   4.811  16.338 -0.0192  0.5501  0.3125
12499TIP3   OH258987   2.806   5.263   1.086 -0.5289  0.0043 -0.2151
12499TIP3    H158988   2.815   5.256   0.991  0.7306 -1.9193 -0.0130
12499TIP3    H258989   2.850   5.344   1.109 -1.5131  0.8899 -1.3244
12500TIP3   OH258990   3.639   0.098  10.633 -0.1511  0.0476  0.8350
12500TIP3    H158991   3.696   0.094  10.556 -1.0668  1.1323  0.0665
12500TIP3    H258992   3.698   0.117  10.706  0.7178 -0.8873  0.4025
12501TIP3   OH258993   2.847   1.746   0.019  0.1371  0.0974 -0.0381
12501TIP3    H158994   2.859   1.839   0.036 -0.4578  0.2074 -0.2092
12501TIP3    H258995   2.757   1.738  -0.013  0.6679 -0.3343 -1.4998
12502TIP3   OH258996   2.832   0.022  15.970  0.3323 -0.0209 -0.7931
12502TIP3    H158997   2.881   0.092  16.013 -0.5018 -0.4843  0.9555
12502TIP3    H258998   2.787   0.065  15.897  0.6175  1.0611 -0.3368
12503TIP3   OH258999   2.901   3.005  10.987  0.2432  0.2698 -0.3532
12503TIP3    H159000   2.826   3.014  10.927 -0.7262  3.2688  1.1234
12503TIP3    H259001   2.977   2.994  10.929 -1.0889 -1.4131 -1.9331
12504TIP3   OH259002   4.278   6.576  12.240 -0.2245 -0.3897  0.1830
12504TIP3    H159003   4.286   6.671  12.247 -0.6993 -0.3851  0.7548
12504TIP3    H259004   4.191   6.557  12.275 -0.3666 -0.9795 -0.4677
12505TIP3   OH259005   2.627   4.420   4.232 -0.5071  0.0092 -0.4967
12505TIP3    H159006   2.702   4.479   4.238  0.2549 -0.5285 -3.2477
12505TIP3    H259007   2.562   4.468   4.181 -0.6749 -0.7670 -1.0412
12506TIP3   OH259008   0.781   1.394   2.727 -0.0691 -0.3589 -0.0376
12506TIP3    H159009   0.692   1.378   2.757 -0.1576  1.2122  0.6589
12506TIP3    H259010   0.831   1.319   2.758 -0.7420 -0.2025  1.4948
12507TIP3   OH259011   6.701   5.740   1.657  0.2419 -0.0478  0.4297
12507TIP3    H159012   6.762   5.787   1.600  1.1278 -1.6988 -0.0543
12507TIP3    H259013   6.650   5.685   1.597 -2.0673  1.5482  0.7742
12508TIP3   OH259014   1.367   3.207  13.275 -0.2066  0.6159 -0.8492
12508TIP3    H159015   1.294   3.150  13.298  1.5392 -1.3982  0.1163
12508TIP3    H259016   1.430   3.194  13.347  1.4510  1.5792 -2.0665
12509TIP3   OH259017   6.109   0.096   3.919  0.5146 -0.1086  0.0990
12509TIP3    H159018   6.017   0.120   3.902  0.6239 -0.2999 -0.7888
12509TIP3    H259019   6.104   0.024   3.981  0.0491 -0.3658 -0.2328
12510TIP3   OH259020   6.030   3.565   1.878  0.2245 -0.4246 -0.2483
12510TIP3    H159021   6.108   3.605   1.838  0.2112  0.4070  0.5306
12510TIP3    H259022   6.065   3.508   1.946  0.2102 -1.2213 -0.8970
12511TIP3   OH259023   1.092   4.570   5.758  0.1327  0.2604 -0.0498
12511TIP3    H159024   1.170   4.525   5.726  1.4541  2.3479  0.0335
12511TIP3    H259025   1.045   4.595   5.678 -1.8747 -3.1103 -0.1073
12512TIP3   OH259026   0.926   2.384  12.435 -0.0644 -0.0211 -0.0211
12512TIP3    H159027   0.930   2.472  12.473  2.8347 -0.6694  1.4761
12512TIP3    H259028   0.929   2.399  12.341  3.4098  1.5591  0.1778
12513TIP3   OH259029   3.776   2.616   3.126 -0.4760 -0.4098  0.2436
12513TIP3    H159030   3.772   2.632   3.220 -0.2086 -0.6956  0.3053
12513TIP3    H259031   3.861   2.651   3.099 -1.3810  1.4961 -0.2515
12514TIP3   OH259032   6.143   4.017   3.550 -0.5836 -0.0896 -0.3786
12514TIP3    H159033   6.155   4.100   3.503  0.9311 -1.3452 -2.3983
12514TIP3    H259034   6.220   4.010   3.606 -1.4729  0.5222  0.9879
12515TIP3   OH259035   1.746   4.076   1.619  0.2159  0.3734 -0.2630
12515TIP3    H159036   1.684   4.017   1.575 -0.1711 -0.2118  1.0072
12515TIP3    H259037   1.824   4.022   1.633 -0.2033  0.0754  1.0648
12516TIP3   OH259038   6.434   0.595  11.053 -0.8587  0.3346  0.3838
12516TIP3    H159039   6.405   0.604  10.963 -1.0609  0.8610  0.5000
12516TIP3    H259040   6.446   0.685  11.084  1.1720  0.1721  0.2514
12517TIP3   OH259041   4.638   3.566   0.896  0.7909  0.1413  0.2442
12517TIP3    H159042   4.646   3.642   0.954  0.0992  0.6385 -0.3007
12517TIP3    H259043   4.565   3.588   0.838  1.1248 -0.5865 -0.4589
12518TIP3   OH259044   5.733   5.646  13.058 -0.0556  0.3157 -0.5881
12518TIP3    H159045   5.695   5.710  12.997 -0.5802 -0.3859 -1.0199
12518TIP3    H259046   5.689   5.564  13.036  0.0663 -0.0416  0.4537
12519TIP3   OH259047   2.416   1.142  13.377 -0.0339 -0.2475 -0.6166
12519TIP3    H159048   2.459   1.085  13.441  2.1149  0.7808 -1.0781
12519TIP3    H259049   2.439   1.231  13.404  0.1553  0.2414 -2.2952
12520TIP3   OH259050   0.464   3.398   4.164 -0.2374 -0.0696 -0.5532
12520TIP3    H159051   0.515   3.368   4.239 -0.0416  0.6300 -0.4026
12520TIP3    H259052   0.456   3.493   4.176  2.2885  0.5490 -2.9020
12521TIP3   OH259053   1.578   0.988   3.697  0.1381 -0.0132  0.6500
12521TIP3    H159054   1.580   0.939   3.615 -2.8724 -1.5837  1.3815
12521TIP3    H259055   1.511   1.056   3.684  1.7463  1.6995  0.8645
12522TIP3   OH259056   0.359   0.945  13.877 -0.3412 -0.0380  0.2867
12522TIP3    H159057   0.290   0.883  13.854  2.0443 -2.4083 -1.0847
12522TIP3    H259058   0.422   0.938  13.805  0.9155  2.7239  0.9810
12523TIP3   OH259059   4.770   3.897  13.596  0.5436 -0.1408 -0.1481
12523TIP3    H159060   4.696   3.845  13.628 -1.4268  1.5040 -1.8053
12523TIP3    H259061   4.784   3.962  13.664  1.2063 -1.0924  0.6562
12524TIP3   OH259062   4.392   2.389  13.828 -0.3003 -0.4422 -0.3201
12524TIP3    H159063   4.473   2.426  13.793 -1.3627  1.3812 -1.0148
12524TIP3    H259064   4.334   2.381  13.752 -1.2992 -0.2232  0.3886
12525TIP3   OH259065   6.707   0.546  15.457  0.1243  0.2140  0.3452
12525TIP3    H159066   6.702   0.558  15.362 -1.2510 -0.0064  0.3615
12525TIP3    H259067   6.795   0.512  15.473  0.2117 -0.1902 -0.9015
12526TIP3   OH259068   2.360   4.817   2.569  0.5573 -0.7251 -0.2977
12526TIP3    H159069   2.406   4.872   2.505 -1.6630  1.5553 -0.0951
12526TIP3    H259070   2.342   4.735   2.522  0.7016  0.1420 -1.9284
12527TIP3   OH259071   4.951   1.502   0.955 -0.2434 -0.4828 -0.1994
12527TIP3    H159072   5.023   1.565   0.953  0.2925 -1.0742 -0.0985
12527TIP3    H259073   4.919   1.499   0.865 -0.2876 -0.0515 -0.1977
12528TIP3   OH259074   1.398   2.782   4.456 -0.4384  0.4663  0.1477
12528TIP3    H159075   1.327   2.744   4.406 -0.4752 -1.3547  1.4878
12528TIP3    H259076   1.355   2.823   4.531 -0.1776  0.6092  0.2218
12529TIP3   OH259077   1.373   0.813   4.042 -0.1897 -0.2317  0.2400
12529TIP3    H159078   1.373   0.748   3.971  0.5335 -1.5014  1.3648
12529TIP3    H259079   1.307   0.878   4.015  0.2198 -0.5610 -1.6751
12530TIP3   OH259080   3.420   1.868   1.496  0.4664 -0.5290 -0.9724
12530TIP3    H159081   3.512   1.888   1.477 -0.1942  2.2357 -1.6224
12530TIP3    H259082   3.376   1.953   1.497 -1.4224 -1.3280  3.3099
12531TIP3   OH259083   2.323   5.105  13.919 -0.0060 -0.0536  0.0302
12531TIP3    H159084   2.270   5.172  13.875  0.1208 -0.8801 -1.4456
12531TIP3    H259085   2.390   5.154  13.966 -1.5031  0.9730  1.1973
12532TIP3   OH259086   6.183   4.720   5.812 -0.3542  0.0001 -0.0792
12532TIP3    H159087   6.256   4.744   5.869  0.2455 -1.4555 -0.2125
12532TIP3    H259088   6.128   4.664   5.867 -1.5795  1.3189  0.1241
12533TIP3   OH259089   1.901   1.433  13.160  0.4542 -0.6158  0.1315
12533TIP3    H159090   1.890   1.353  13.109 -2.1703  0.7014 -1.5462
12533TIP3    H259091   1.865   1.413  13.246 -0.6166 -1.1096 -0.4294
12534TIP3   OH259092   5.289   6.323   1.137 -0.4631 -0.2341 -0.2425
12534TIP3    H159093   5.383   6.305   1.126 -0.4465  0.1451 -0.7557
12534TIP3    H259094   5.250   6.237   1.150  0.0850 -0.3157  1.0550
12535TIP3   OH259095   6.228   5.121  14.158 -0.6867 -0.3834  0.0498
12535TIP3    H159096   6.133   5.121  14.169 -0.6841  0.9975  0.1805
12535TIP3    H259097   6.248   5.207  14.122  0.5596 -0.5102  0.3992
12536TIP3   OH259098   6.748   6.543   4.162 -0.1690 -0.6170  0.5134
12536TIP3    H159099   6.681   6.611   4.152 -1.4098 -1.8501  0.2233
12536TIP3    H259100   6.823   6.590   4.198 -0.4263  1.2270 -1.1709
12537TIP3   OH259101   6.412   6.197   1.416  1.0615  0.5627  0.0729
12537TIP3    H159102   6.389   6.272   1.472 -1.7904  2.4848 -3.2558
12537TIP3    H259103   6.467   6.235   1.347  1.8209 -1.0016 -0.2122
12538TIP3   OH259104   4.002   2.297   2.769  0.3488 -0.3835 -0.4200
12538TIP3    H159105   4.056   2.288   2.848 -0.1515 -0.4444 -0.0850
12538TIP3    H259106   3.944   2.371   2.787  0.1565 -0.4667 -0.6908
12539TIP3   OH259107   0.915   4.995   2.421  0.1031  0.9106  0.3835
12539TIP3    H159108   1.001   5.023   2.453  0.9611 -2.9169  1.8939
12539TIP3    H259109   0.866   4.972   2.500 -1.1853  0.0593 -0.6199
12540TIP3   OH259110   5.801   3.536  16.718  0.1555  0.2202 -0.0444
12540TIP3    H159111   5.813   3.627  16.694 -0.6580  0.8566  1.7628
12540TIP3    H259112   5.854   3.487  16.655 -0.8376  1.7803 -2.1687
12541TIP3   OH259113   2.156   0.477  16.793  0.2199 -0.3326 -0.5865
12541TIP3    H159114   2.176   0.384  16.784  0.1657 -0.5718  1.3367
12541TIP3    H259115   2.228   0.512  16.846 -1.0142  0.1715  0.8302
12542TIP3   OH259116   4.800   6.755   1.767 -0.2414 -0.6823 -0.6405
12542TIP3    H159117   4.705   6.760   1.770 -0.2262  0.7623 -1.5761
12542TIP3    H259118   4.822   6.770   1.675  0.8112 -3.6173 -0.9685
12543TIP3   OH259119   0.923   3.674  13.101  0.0523 -0.0438  0.0691
12543TIP3    H159120   0.996   3.696  13.159  1.0573  0.3685 -1.2964
12543TIP3    H259121   0.953   3.597  13.053 -0.4539  0.0800 -0.4568
12544TIP3   OH259122   3.776   1.932   4.701  0.1614  0.4228 -0.0505
12544TIP3    H159123   3.765   1.975   4.615 -1.3489  0.7666  0.2771
12544TIP3    H259124   3.714   1.977   4.758 -0.8607 -1.5966  0.5391
12545TIP3   OH259125   3.717   2.740  16.786  0.3530  0.0290  0.0123
12545TIP3    H159126   3.719   2.822  16.735 -0.8980  0.7565  1.0585
12545TIP3    H259127   3.799   2.741  16.835 -0.3635  1.5507  1.2846
12546TIP3   OH259128   1.192   4.183  14.588  0.1378  0.0144 -0.6716
12546TIP3    H159129   1.202   4.090  14.567 -1.0895 -0.6991  1.5880
12546TIP3    H259130   1.124   4.213  14.528  0.3866 -0.5934 -1.2726
12547TIP3   OH259131   5.371   2.936   2.488  0.4134  0.0498 -0.0648
12547TIP3    H159132   5.391   2.889   2.408  2.1206 -0.7311  0.7683
12547TIP3    H259133   5.456   2.957   2.526 -0.2814  2.9017  0.1549
12548TIP3   OH259134   6.518   2.620  16.342 -0.2492 -0.2711  0.0641
12548TIP3    H159135   6.554   2.533  16.326 -1.8885 -0.9694 -0.1124
12548TIP3    H259136   6.543   2.672  16.266  1.1295 -0.4457  0.3873
12549TIP3   OH259137   0.937   6.695  10.675 -0.2248 -0.3045 -0.2885
12549TIP3    H159138   0.868   6.635  10.647  0.4138 -1.1443 -0.1024
12549TIP3    H259139   0.930   6.697  10.770 -0.5828  0.3469 -0.3211
12550TIP3   OH259140   3.075   0.959   3.845  0.0993  0.5880  0.1678
12550TIP3    H159141   2.995   0.909   3.833 -0.0411  0.6034  0.9504
12550TIP3    H259142   3.085   0.965   3.940  1.0332  0.5834  0.0778
12551TIP3   OH259143   2.894   5.072  12.876 -1.2229 -0.6190 -0.3150
12551TIP3    H159144   2.801   5.057  12.892 -1.3391 -0.5345 -0.8888
12551TIP3    H259145   2.904   5.167  12.880 -0.7195 -0.7039  2.0524
12552TIP3   OH259146   6.342   1.883   6.347  0.4198 -0.0648  0.0705
12552TIP3    H159147   6.293   1.965   6.355 -1.6796 -1.4358  3.0159
12552TIP3    H259148   6.275   1.815   6.347  2.1478 -1.9332  2.1139
12553TIP3   OH259149   4.511   4.469  12.466 -0.0060 -0.2870  0.4062
12553TIP3    H159150   4.470   4.477  12.380 -0.7477  1.4395  0.8747
12553TIP3    H259151   4.602   4.495  12.452 -0.6881  2.4352  0.5236
12554TIP3   OH259152   2.893   3.632   3.182 -0.5854 -0.1763 -0.1217
12554TIP3    H159153   2.974   3.616   3.230 -0.3288  0.1508 -0.4440
12554TIP3    H259154   2.836   3.677   3.245 -0.3385  0.0337 -0.0492
12555TIP3   OH259155   0.565   3.043   5.481  0.0291  0.1925 -0.5916
12555TIP3    H159156   0.583   2.991   5.402 -0.5271 -0.0172 -0.5878
12555TIP3    H259157   0.621   3.004   5.548 -0.9701 -0.9716 -0.3780
12556TIP3   OH259158   0.106   2.710   5.542 -0.1185  0.3058 -0.0978
12556TIP3    H159159   0.054   2.770   5.489  0.0104  0.0450 -0.5239
12556TIP3    H259160   0.182   2.761   5.570 -1.4557  1.2756  2.0643
12557TIP3   OH259161   0.095   0.682  12.643 -0.0428  0.1238 -0.2608
12557TIP3    H159162   0.079   0.776  12.654 -0.3785 -0.0273  0.6921
12557TIP3    H259163   0.039   0.657  12.570 -3.1515 -0.0569  1.9280
12558TIP3   OH259164   0.397   5.189   1.736  0.1329  0.1386  0.2492
12558TIP3    H159165   0.400   5.134   1.814  1.8682 -0.3578 -0.1310
12558TIP3    H259166   0.468   5.252   1.748  0.2035  0.2650 -0.7832
12559TIP3   OH259167   5.746   0.133   2.017 -0.1539 -0.3255  0.1255
12559TIP3    H159168   5.812   0.189   1.977 -0.4804 -0.9277 -1.3279
12559TIP3    H259169   5.794   0.053   2.041 -0.0107 -0.0631  0.7417
12560TIP3   OH259170   4.296   3.846  13.709  0.0876  0.0465  0.3492
12560TIP3    H159171   4.380   3.808  13.734 -0.5590 -1.1423  0.7609
12560TIP3    H259172   4.307   3.870  13.616  0.7070 -0.5489  0.2633
12561TIP3   OH259173   2.215   1.885  13.126 -0.0188  0.7375  0.4121
12561TIP3    H159174   2.146   1.951  13.134  0.0196  1.0894 -1.6545
12561TIP3    H259175   2.168   1.801  13.123 -0.4971  1.0250 -1.8360
12562TIP3   OH259176   6.815   1.257   3.846  0.1690  0.4376  0.1298
12562TIP3    H159177   6.804   1.297   3.932 -1.1628  2.7143 -1.0165
12562TIP3    H259178   6.909   1.239   3.840  0.2657  0.0565  2.0863
12563TIP3   OH259179   6.354   3.576  12.433 -0.3304 -0.2348  0.4308
12563TIP3    H159180   6.427   3.601  12.377 -0.6171  0.1543  0.2297
12563TIP3    H259181   6.376   3.612  12.519 -0.9461  1.1080  0.0460
12564TIP3   OH259182   2.905   6.403  12.104  0.3001  0.1825 -0.6449
12564TIP3    H159183   2.834   6.395  12.169  0.6486 -0.9728 -0.3856
12564TIP3    H259184   2.862   6.385  12.021  0.4214 -1.3101 -0.4058
12565TIP3   OH259185   5.097   0.545   3.311 -0.4394 -0.5520  0.2646
12565TIP3    H159186   5.160   0.558   3.240  1.2252  0.8051  1.9124
12565TIP3    H259187   5.119   0.459   3.347 -0.3105 -0.5927  0.0905
12566TIP3   OH259188   0.711   4.819   2.561 -0.2223 -0.3473 -0.0998
12566TIP3    H159189   0.740   4.824   2.652 -2.0632 -1.0678  0.5702
12566TIP3    H259190   0.781   4.772   2.515  1.8136  2.0026  0.4006
12567TIP3   OH259191   2.080   4.096   1.010 -0.1211 -0.1397  0.6671
12567TIP3    H159192   2.017   4.109   0.940  0.5880  0.4712  0.1198
12567TIP3    H259193   2.029   4.101   1.091 -0.7613  0.4069  0.2373
12568TIP3   OH259194   2.649   5.139   3.665  0.6154 -0.2711  0.0199
12568TIP3    H159195   2.667   5.091   3.584 -0.1189 -1.0070  0.2726
12568TIP3    H259196   2.582   5.087   3.709  3.2856 -1.7453  2.7116
12569TIP3   OH259197   0.175   1.937  15.812 -0.1959 -0.0958  0.0967
12569TIP3    H159198   0.167   1.907  15.903 -1.5308 -1.4822 -0.4399
12569TIP3    H259199   0.126   2.019  15.810  0.4222  0.3101  0.7610
12570TIP3   OH259200   4.671   3.452  13.897  0.1947  0.5320 -0.1673
12570TIP3    H159201   4.708   3.481  13.814 -1.6236  0.9370 -0.8765
12570TIP3    H259202   4.643   3.362  13.880  0.5137  0.3572  0.2379
12571TIP3   OH259203   5.452   5.486  12.128  0.2215 -0.1758 -0.2023
12571TIP3    H159204   5.530   5.540  12.113 -0.4085  0.8285  0.0483
12571TIP3    H259205   5.481   5.418  12.189  0.7065  0.6595  0.5132
12572TIP3   OH259206   5.358   2.940   4.930  0.1043 -0.0282  0.1835
12572TIP3    H159207   5.449   2.925   4.955 -0.2222 -1.5496  0.5904
12572TIP3    H259208   5.359   2.940   4.834  0.4368 -0.8938  0.1705
12573TIP3   OH259209   5.920   0.866   5.206 -0.1947  0.2730 -0.2999
12573TIP3    H159210   5.863   0.789   5.207  2.1095 -1.6393 -2.5552
12573TIP3    H259211   5.859   0.940   5.205 -2.5321 -1.4307  1.6593
12574TIP3   OH259212   6.829   1.160   3.235 -0.0492  0.0968 -0.0966
12574TIP3    H159213   6.791   1.073   3.221 -0.1444  0.1824 -0.3807
12574TIP3    H259214   6.883   1.175   3.158 -0.3026  0.4301 -0.2141
12575TIP3   OH259215   1.871   6.073  14.149  0.5802 -0.6795  0.1175
12575TIP3    H159216   1.893   6.166  14.151  1.0818 -0.7854 -0.4541
12575TIP3    H259217   1.917   6.036  14.224 -0.0958 -0.3689  0.6958
12576TIP3   OH259218   1.131   1.987  13.014  0.5575  0.5146 -0.5639
12576TIP3    H159219   1.077   2.053  13.057 -0.1794 -0.2661 -0.2607
12576TIP3    H259220   1.113   1.999  12.920 -1.6541 -0.9311 -0.4102
12577TIP3   OH259221   5.735   0.137  14.789  0.6207  0.2015 -0.9346
12577TIP3    H159222   5.686   0.206  14.832 -1.4045 -1.6971 -0.0118
12577TIP3    H259223   5.669   0.089  14.739  1.7275 -1.7376 -0.6141
12578TIP3   OH259224   5.716   0.631   3.908 -0.6003  1.2743 -0.6072
12578TIP3    H159225   5.694   0.723   3.895 -1.8289  1.0444 -0.2485
12578TIP3    H259226   5.636   0.592   3.943  0.8990  0.7695  2.5407
12579TIP3   OH259227   3.527   1.421  15.913  0.2679  0.3222 -0.2885
12579TIP3    H159228   3.560   1.403  16.001  1.2677  0.9074 -0.5273
12579TIP3    H259229   3.551   1.343  15.863  1.8976  0.9952 -0.6079
12580TIP3   OH259230   6.475   4.180   2.703  0.9127  0.4757 -0.3036
12580TIP3    H159231   6.543   4.230   2.659  0.9921  2.3939  1.7694
12580TIP3    H259232   6.494   4.191   2.796 -0.1125 -2.0772  0.2865
12581TIP3   OH259233   1.570   0.519   0.637 -0.6897 -0.0048  0.6811
12581TIP3    H159234   1.606   0.499   0.551  0.4666 -0.9638  1.3646
12581TIP3    H259235   1.477   0.535   0.621 -0.7506 -1.4282 -0.5717
12582TIP3   OH259236   5.253   6.399  16.723  0.4772 -1.1275 -0.4423
12582TIP3    H159237   5.301   6.353  16.654  2.7054  2.0921 -1.2644
12582TIP3    H259238   5.301   6.481  16.735 -2.5236  0.5059  1.7033
12583TIP3   OH259239   5.912   1.301  12.567 -0.1975 -0.1403  0.1583
12583TIP3    H159240   5.830   1.332  12.530 -0.6099  1.1544  2.0279
12583TIP3    H259241   5.921   1.212  12.533 -1.0206  0.5706 -2.1405
12584TIP3   OH259242   3.225   6.680  13.989 -0.3734 -0.4926 -0.6066
12584TIP3    H159243   3.283   6.632  13.929  0.4434  0.2262 -0.4055
12584TIP3    H259244   3.150   6.621  14.001  0.5715 -1.6924 -0.4127
12585TIP3   OH259245   1.362   0.556  11.266 -0.1084  0.2461  0.0379
12585TIP3    H159246   1.355   0.475  11.215 -0.1197  1.6742 -2.3451
12585TIP3    H259247   1.404   0.528  11.348 -0.3681 -2.1989 -0.5717
12586TIP3   OH259248   2.601   4.927   0.229 -0.2267  0.2143 -0.6406
12586TIP3    H159249   2.676   4.979   0.199  0.8162 -0.8756  0.0071
12586TIP3    H259250   2.583   4.867   0.158  0.5078 -0.5432 -0.2035
12587TIP3   OH259251   3.880   6.258  11.658  0.4997  0.3409  0.0030
12587TIP3    H159252   3.892   6.287  11.568  0.5156  0.6680  0.1107
12587TIP3    H259253   3.917   6.328  11.712 -1.0250  0.9333  0.3190
12588TIP3   OH259254   6.067   2.967  15.247  0.0763 -0.2796 -0.0568
12588TIP3    H159255   6.078   2.924  15.332  0.4150 -0.4546 -0.1880
12588TIP3    H259256   6.062   2.895  15.184  0.7388 -0.1299 -0.2878
12589TIP3   OH259257   6.393   4.860   2.969  0.5145 -0.5830 -0.2546
12589TIP3    H159258   6.407   4.791   3.035  0.4129  0.5771  1.0236
12589TIP3    H259259   6.481   4.897   2.956  0.6727 -1.3138 -1.3800
12590TIP3   OH259260   2.449   2.184  15.914  0.2406  0.0822  0.2813
12590TIP3    H159261   2.483   2.267  15.879  2.7898 -0.8411  0.3455
12590TIP3    H259262   2.472   2.186  16.007  0.9702 -0.9765  0.1371
12591TIP3   OH259263   2.760   3.908   1.649  0.3794 -0.0746  0.3289
12591TIP3    H159264   2.828   3.960   1.606 -0.1413 -0.2562 -0.7466
12591TIP3    H259265   2.697   3.973   1.680  1.1971  0.1240  1.6710
12592TIP3   OH259266   5.882   0.832  14.983  0.0978  0.2023 -0.0009
12592TIP3    H159267   5.837   0.903  15.030 -0.3639 -0.6786  0.9280
12592TIP3    H259268   5.863   0.849  14.891 -0.0828  1.2286  0.2053
12593TIP3   OH259269   3.170   6.374  13.667  0.2389 -0.7502  0.4102
12593TIP3    H159270   3.177   6.335  13.754 -1.1475 -1.8576  0.0524
12593TIP3    H259271   3.096   6.330  13.626  1.7092 -1.3157 -1.8830
12594TIP3   OH259272   5.318   6.568   5.453 -0.6172  0.2735 -0.5013
12594TIP3    H159273   5.376   6.501   5.491 -1.5248 -0.6661 -0.7114
12594TIP3    H259274   5.351   6.651   5.488 -1.3248 -0.5022  2.3213
12595TIP3   OH259275   3.645   1.109  11.438  0.5095  0.1587  0.1988
12595TIP3    H159276   3.733   1.112  11.399  0.4457 -2.2185 -0.2442
12595TIP3    H259277   3.602   1.188  11.405  1.4729 -0.1957 -2.1450
12596TIP3   OH259278   3.240   6.476  11.888 -0.0676 -0.0459  0.3418
12596TIP3    H159279   3.193   6.410  11.938  1.4474 -0.6228  1.0914
12596TIP3    H259280   3.206   6.469  11.799 -1.3638 -0.4115  0.8476
12597TIP3   OH259281   0.928   3.907   6.325 -0.1104 -0.6935  0.3368
12597TIP3    H159282   0.854   3.910   6.385  1.4626  0.7856  2.3371
12597TIP3    H259283   0.945   3.814   6.313 -1.2671 -1.0286  1.1392
12598TIP3   OH259284   5.454   3.935  13.889 -0.1718 -0.0540  0.0698
12598TIP3    H159285   5.535   3.912  13.844 -0.0726  0.7161 -0.1554
12598TIP3    H259286   5.410   3.996  13.830 -1.0699 -0.7031  0.0506
12599TIP3   OH259287   5.245   5.746  17.085 -0.0994  0.1356 -0.0126
12599TIP3    H159288   5.256   5.667  17.032 -1.1231 -0.7390  1.0325
12599TIP3    H259289   5.158   5.779  17.061  0.4065  1.0940 -0.6028
12600TIP3   OH259290   6.701   3.237   3.117 -0.0953  0.6337  0.1371
12600TIP3    H159291   6.606   3.240   3.121 -0.1573 -0.5006 -0.2264
12600TIP3    H259292   6.724   3.307   3.056 -0.4868  2.8065  2.3510
12601TIP3   OH259293   5.061   0.602   2.976 -0.4438  0.7808  0.2689
12601TIP3    H159294   5.039   0.678   3.030  0.0882 -0.5110  2.4594
12601TIP3    H259295   5.136   0.562   3.021 -1.6556 -1.8771  0.1529
12602TIP3   OH259296   4.556   4.811   4.774 -0.4423 -0.2038  0.8395
12602TIP3    H159297   4.497   4.840   4.844 -0.9420 -1.5221  0.9869
12602TIP3    H259298   4.618   4.883   4.764 -1.8208  1.0420  0.9744
12603TIP3   OH259299   0.137   3.358  12.218 -0.5420  0.5519  0.6851
12603TIP3    H159300   0.130   3.278  12.166  0.7709  0.7983  0.1064
12603TIP3    H259301   0.152   3.327  12.308 -1.2580  0.1516  0.6748
12604TIP3   OH259302   1.326   5.129  13.606  0.1533  0.0227  1.0002
12604TIP3    H159303   1.342   5.076  13.683 -0.8983  0.9425  1.8941
12604TIP3    H259304   1.382   5.206  13.618  0.4408 -0.1053  0.5289
12605TIP3   OH259305   6.008   3.904   5.900  0.0651  0.0106  0.9982
12605TIP3    H159306   6.027   3.858   5.981 -0.0263  2.5737  2.6183
12605TIP3    H259307   5.932   3.958   5.921  0.3804  1.1609 -0.6040
12606TIP3   OH259308   5.767   4.534  12.340  0.4656  0.1484 -0.4510
12606TIP3    H159309   5.717   4.544  12.421 -1.1455  0.1250 -1.3999
12606TIP3    H259310   5.814   4.616  12.330 -0.4222  0.7011 -0.1980
12607TIP3   OH259311   5.936   6.606   0.930  0.2165 -0.0786 -0.0950
12607TIP3    H159312   5.963   6.516   0.913  1.5103  0.3813 -0.5992
12607TIP3    H259313   5.924   6.645   0.843  0.2584  0.4098  0.1139
12608TIP3   OH259314   3.210   2.578   0.210  0.3633 -0.3029 -0.0616
12608TIP3    H159315   3.248   2.620   0.288  1.2303 -1.1440 -0.0104
12608TIP3    H259316   3.259   2.614   0.137 -1.5086  1.6835 -0.4053
12609TIP3   OH259317   4.083   5.905  13.112  0.1293  0.4073  0.0364
12609TIP3    H159318   4.111   5.942  13.196  0.0671 -0.3696  0.4043
12609TIP3    H259319   4.114   5.815  13.114 -1.2742 -0.0989 -0.0943
12610TIP3   OH259320   2.299   0.792  13.255  0.5445 -0.4819 -0.5262
12610TIP3    H159321   2.242   0.786  13.178  1.0125  1.7638 -1.1301
12610TIP3    H259322   2.259   0.734  13.319 -1.3756 -0.3905 -1.5649
12611TIP3   OH259323   0.791   5.390  11.759  0.5660 -0.1117 -0.1141
12611TIP3    H159324   0.841   5.431  11.829  0.5111 -1.7049  0.9076
12611TIP3    H259325   0.823   5.300  11.755 -0.9547 -0.6789 -0.6415
12612TIP3   OH259326   1.503   5.561   1.011  0.1820  0.0261  0.3427
12612TIP3    H159327   1.558   5.578   1.087  0.4222 -1.5756  0.5443
12612TIP3    H259328   1.457   5.480   1.032  0.8758 -0.9072 -1.5600
12613TIP3   OH259329   5.359   0.001   3.126 -0.2417 -0.0763 -0.0397
12613TIP3    H159330   5.383   0.053   3.203 -1.2654  0.7785 -0.2906
12613TIP3    H259331   5.411   0.038   3.055 -0.6741  0.3547 -0.1358
12614TIP3   OH259332   0.370   1.050  11.634  0.4237 -0.3333 -0.4025
12614TIP3    H159333   0.423   1.029  11.557  3.6971  1.2524  1.2167
12614TIP3    H259334   0.345   1.142  11.622 -0.4872 -0.5526 -0.2988
12615TIP3   OH259335   5.419   5.214   2.189 -0.2753 -0.0445  0.1614
12615TIP3    H159336   5.395   5.245   2.276  0.8709  0.3394  0.3652
12615TIP3    H259337   5.373   5.273   2.129  1.6179  1.9874  0.5423
12616TIP3   OH259338   4.729   5.364   4.727 -0.4733  0.1781  0.2419
12616TIP3    H159339   4.808   5.350   4.779 -1.0023  0.4101  1.1327
12616TIP3    H259340   4.759   5.367   4.637  0.5942  0.7502  0.6095
12617TIP3   OH259341   2.688   5.302  11.568 -0.0199 -0.2995  0.4218
12617TIP3    H159342   2.602   5.290  11.528  0.3136 -1.5848  0.0448
12617TIP3    H259343   2.675   5.278  11.660  0.2171 -1.8749  0.0728
12618TIP3   OH259344   1.429   6.171  15.426  0.3532 -0.2672 -0.5599
12618TIP3    H159345   1.447   6.261  15.453  0.2287 -0.3906 -0.0607
12618TIP3    H259346   1.513   6.138  15.395  0.6617 -0.3569  0.3614
12619TIP3   OH259347   6.762   5.883   3.361  0.3360 -0.2199 -0.6750
12619TIP3    H159348   6.809   5.801   3.374  1.4619  0.6534  1.0195
12619TIP3    H259349   6.794   5.916   3.277  4.7239  1.4751  1.3421
12620TIP3   OH259350   3.735   2.363   3.226 -0.2964  0.0639 -0.0377
12620TIP3    H159351   3.744   2.451   3.190 -1.3736  0.1056 -0.2440
12620TIP3    H259352   3.825   2.333   3.240  0.1371  0.3855 -1.8984
12621TIP3   OH259353   6.701   3.600   5.494  0.5596 -0.1987  0.6038
12621TIP3    H159354   6.745   3.530   5.542  0.7093  0.4404  1.4274
12621TIP3    H259355   6.750   3.607   5.412 -0.6452 -2.3399 -0.3755
12622TIP3   OH259356   5.439   6.283   2.409 -0.1474 -0.2376  0.3818
12622TIP3    H159357   5.447   6.360   2.465 -0.1004 -0.6477  0.9534
12622TIP3    H259358   5.468   6.313   2.323  0.0784  0.3249  0.6449
12623TIP3   OH259359   5.800   0.309  17.034  0.3143 -0.2698  0.0560
12623TIP3    H159360   5.871   0.351  17.083  0.5720  0.2986 -0.7720
12623TIP3    H259361   5.785   0.226  17.079  2.1781 -0.8566 -0.3154
12624TIP3   OH259362   5.514   1.503   3.672  0.6308 -0.0362  0.2622
12624TIP3    H159363   5.419   1.512   3.665  0.7455  0.6212 -0.6033
12624TIP3    H259364   5.534   1.539   3.759 -0.0042 -1.1137  0.8817
12625TIP3   OH259365   0.507   5.200   2.238 -0.3370  0.0679 -0.8912
12625TIP3    H159366   0.584   5.146   2.218 -0.8522 -0.7907 -0.6174
12625TIP3    H259367   0.482   5.238   2.154 -0.6524 -1.0627 -1.3312
12626TIP3   OH259368   3.161   4.097  12.283  0.5974 -0.4134  0.0983
12626TIP3    H159369   3.080   4.046  12.279 -0.4565  1.2342 -0.7766
12626TIP3    H259370   3.198   4.089  12.195  0.5044  0.1726 -0.0005
12627TIP3   OH259371   1.546   3.841   1.558 -0.0901  0.0251  0.6049
12627TIP3    H159372   1.603   3.805   1.490  0.2588 -0.4003  1.1134
12627TIP3    H259373   1.458   3.831   1.522  0.0376 -0.8234  0.4935
12628TIP3   OH259374   6.421   1.064   0.340 -0.9197 -0.1860 -0.0214
12628TIP3    H159375   6.370   1.027   0.411 -0.5459 -0.1528  0.2675
12628TIP3    H259376   6.385   1.152   0.326 -2.2599 -0.8741 -1.1587
12629TIP3   OH259377   4.132   0.298  12.943 -0.5533  0.2038 -0.4381
12629TIP3    H159378   4.087   0.221  12.976  0.6506  0.4002  1.8435
12629TIP3    H259379   4.070   0.339  12.883 -1.9138 -1.5178 -0.2604
12630TIP3   OH259380   0.197   1.742   2.935 -0.3498  0.5166 -0.1827
12630TIP3    H159381   0.267   1.776   2.990  0.0080  0.6707 -0.7276
12630TIP3    H259382   0.149   1.819   2.906 -0.1736  0.4848 -0.5668
12631TIP3   OH259383   1.012   2.204  15.207  0.4127 -0.2322  0.2557
12631TIP3    H159384   1.033   2.110  15.199 -1.4878 -0.6467 -0.3993
12631TIP3    H259385   0.918   2.205  15.229  0.3459  1.5349 -0.0312
12632TIP3   OH259386   5.852   3.938  15.007 -0.0179  0.2556  0.1888
12632TIP3    H159387   5.924   3.909  15.064 -0.7700 -0.5376  0.7702
12632TIP3    H259388   5.825   3.858  14.961  1.7102  1.1611 -2.6764
12633TIP3   OH259389   5.469   0.763  13.925 -0.1761  0.2480 -0.0589
12633TIP3    H159390   5.508   0.756  14.012 -1.7991  0.7772  0.7476
12633TIP3    H259391   5.384   0.804  13.939 -1.6426 -2.0192 -1.5572
12634TIP3   OH259392   6.198   1.497   3.799  0.0059  0.0527  0.5784
12634TIP3    H159393   6.192   1.568   3.864 -1.0830 -0.7089  1.3560
12634TIP3    H259394   6.258   1.433   3.838 -1.0858 -0.6679  1.1342
12635TIP3   OH259395   2.468   2.963  14.424  0.0050  0.0895  0.0000
12635TIP3    H159396   2.515   2.880  14.432  0.7819  0.3930 -1.2268
12635TIP3    H259397   2.518   3.024  14.479 -0.1146 -0.0566  0.2746
12636TIP3   OH259398   5.536   5.507   2.710 -0.4166  0.1965 -0.2454
12636TIP3    H159399   5.451   5.462   2.717  0.1989 -1.2388 -1.2999
12636TIP3    H259400   5.520   5.579   2.649 -0.7247 -0.5599 -1.0871
12637TIP3   OH259401   6.118   5.552  15.266 -0.4713 -0.3509  0.6588
12637TIP3    H159402   6.127   5.457  15.279 -1.4768 -0.7070 -1.0138
12637TIP3    H259403   6.043   5.576  15.321 -1.9488 -1.0540 -0.9674
12638TIP3   OH259404   6.652   4.629   2.240  0.1046  0.1066 -0.8624
12638TIP3    H159405   6.636   4.723   2.240 -0.2858  0.0424 -1.0807
12638TIP3    H259406   6.570   4.590   2.210  0.1409 -0.3266 -0.4190
12639TIP3   OH259407   6.791   2.349   1.460  0.1744  0.4837 -0.7295
12639TIP3    H159408   6.861   2.410   1.483 -0.1110  0.6794 -0.3652
12639TIP3    H259409   6.822   2.263   1.488 -0.2031  0.7296  0.4781
12640TIP3   OH259410   1.689   2.942   5.300 -0.1047 -0.1414 -0.3467
12640TIP3    H159411   1.674   2.905   5.213 -1.8469 -3.1727  1.1145
12640TIP3    H259412   1.771   2.903   5.329 -1.1474 -1.7419  0.5735
12641TIP3   OH259413   5.457   3.785  11.042  0.1432  0.3582 -0.5594
12641TIP3    H159414   5.540   3.783  10.994  0.5993  2.2246  0.0571
12641TIP3    H259415   5.402   3.845  10.992 -1.2112 -1.5571 -1.4611
12642TIP3   OH259416   4.070   5.189   0.821  0.4223 -0.4001  0.4275
12642TIP3    H159417   4.077   5.278   0.856  0.7707 -0.2405 -0.0365
12642TIP3    H259418   4.052   5.134   0.898 -1.5404  0.2695  0.5243
12643TIP3   OH259419   4.053   4.092  11.162  0.0030  0.0173  0.2337
12643TIP3    H159420   3.986   4.043  11.209 -0.4631  0.8444  0.4550
12643TIP3    H259421   4.019   4.101  11.073 -0.1903  0.4569  0.3523
12644TIP3   OH259422   0.702   5.036   3.035 -0.7725 -0.3157  0.2709
12644TIP3    H159423   0.708   5.106   2.970  0.6875  2.2820  2.9705
12644TIP3    H259424   0.755   5.067   3.108 -2.2606 -3.0892  2.7122
12645TIP3   OH259425   0.516   2.612   4.774 -0.3068  0.4876 -0.2406
12645TIP3    H159426   0.597   2.659   4.754  0.7714 -0.5047  1.5685
12645TIP3    H259427   0.476   2.662   4.845 -0.3720  0.0353  0.0502
12646TIP3   OH259428   1.414   3.037  12.690 -0.5615 -0.2183  0.5166
12646TIP3    H159429   1.468   3.049  12.769  0.4096 -0.6731 -0.0539
12646TIP3    H259430   1.399   3.126  12.658  0.0118 -0.0859  0.5918
12647TIP3   OH259431   6.149   3.564   3.588 -0.8913 -0.0169  0.1285
12647TIP3    H159432   6.098   3.485   3.572 -2.3917  1.2546 -1.9298
12647TIP3    H259433   6.120   3.626   3.521  0.9517  1.9589  1.0006
12648TIP3   OH259434   2.469   2.106  14.171  0.4572  0.3693  0.5105
12648TIP3    H159435   2.536   2.170  14.195  1.7293 -0.5215 -0.5310
12648TIP3    H259436   2.515   2.023  14.168 -1.0956 -0.5796  1.4852
12649TIP3   OH259437   2.942   3.199  15.778  0.0747 -0.3869  0.6768
12649TIP3    H159438   2.990   3.146  15.714 -0.4925 -0.0278 -0.0470
12649TIP3    H259439   2.951   3.289  15.748 -1.2849 -0.3348  0.3693
12650TIP3   OH259440   3.562   0.200   0.047  0.1721 -0.2690  0.3361
12650TIP3    H159441   3.493   0.260   0.018 -0.3319 -0.3013  1.3997
12650TIP3    H259442   3.591   0.156  -0.033 -0.7718  0.0322 -0.1882
12651TIP3   OH259443   0.321   3.676  13.286 -0.0369 -0.0207 -0.4433
12651TIP3    H159444   0.404   3.668  13.240 -0.2335 -0.3822 -0.7417
12651TIP3    H259445   0.278   3.751  13.245  0.5514  0.7986  0.3760
12652TIP3   OH259446   3.729   2.328   0.108  0.4204 -0.6435 -0.2545
12652TIP3    H159447   3.728   2.286   0.194 -3.9187  0.4884  0.4949
12652TIP3    H259448   3.793   2.398   0.116  0.3948 -0.8046  1.9730
12653TIP3   OH259449   3.970   5.203   2.396 -0.6123 -0.1369  0.9114
12653TIP3    H159450   3.885   5.215   2.354  0.6477  1.7625 -1.3133
12653TIP3    H259451   4.003   5.291   2.411  0.8047 -0.8152  2.1294
12654TIP3   OH259452   0.945   1.758  17.093  0.0179 -0.1763 -0.2647
12654TIP3    H159453   0.883   1.770  17.021  0.0546 -0.4405 -0.3400
12654TIP3    H259454   1.023   1.806  17.066 -1.1058  2.6118  1.0755
12655TIP3   OH259455   0.340   2.241   0.825 -0.2095 -0.3865  0.3057
12655TIP3    H159456   0.425   2.280   0.803  1.0877 -1.9794  2.2206
12655TIP3    H259457   0.310   2.290   0.901 -1.4063  0.6220 -0.7631
12656TIP3   OH259458   6.746   1.586   4.845 -0.5013  0.3165 -0.3901
12656TIP3    H159459   6.834   1.561   4.875 -0.2794 -1.2127 -2.1359
12656TIP3    H259460   6.691   1.511   4.867 -1.6641  1.6823  1.6319
12657TIP3   OH259461   1.304   1.674  11.873 -0.1122 -0.0979  0.7614
12657TIP3    H159462   1.213   1.672  11.844  0.0109 -0.2734  0.3787
12657TIP3    H259463   1.336   1.584  11.860  0.9731  0.6021 -1.9268
12658TIP3   OH259464   4.210   2.460  12.219 -0.0733  0.0900 -0.0635
12658TIP3    H159465   4.147   2.405  12.266 -0.2543 -0.6717 -1.1627
12658TIP3    H259466   4.170   2.474  12.133  1.1899 -0.3083 -0.7448
12659TIP3   OH259467   1.001   5.101  11.400 -0.3056  0.0489 -0.4878
12659TIP3    H159468   0.907   5.102  11.413 -0.3646 -1.8595 -0.4822
12659TIP3    H259469   1.017   5.169  11.334 -1.4051  1.7096  0.8921
12660TIP3   OH259470   4.389   4.501   2.603 -0.4787 -0.1774  0.0848
12660TIP3    H159471   4.368   4.489   2.696  1.2326  0.7177  0.6364
12660TIP3    H259472   4.327   4.567   2.573 -2.5156 -2.0412 -0.0446
12661TIP3   OH259473   4.102   1.622  15.385 -0.7503 -0.2715 -0.3186
12661TIP3    H159474   4.104   1.663  15.472 -0.2966 -1.7196  0.3862
12661TIP3    H259475   4.141   1.687  15.327 -0.5724  0.5103  0.6498
12662TIP3   OH259476   1.517   6.257  12.584  0.5034 -0.0755 -0.2521
12662TIP3    H159477   1.479   6.210  12.659 -0.8194 -0.4741 -1.1200
12662TIP3    H259478   1.462   6.335  12.574  0.3193 -0.3023 -1.1211
12663TIP3   OH259479   6.539   0.984  15.396  0.2666 -0.3535 -0.8703
12663TIP3    H159480   6.582   1.067  15.417 -1.6991  0.3983  0.4789
12663TIP3    H259481   6.485   1.005  15.320 -1.4698  0.1019  0.4354
12664TIP3   OH259482   5.987   4.329   5.573 -0.4063  0.1341  0.4241
12664TIP3    H159483   6.065   4.301   5.620  0.2078  0.7510 -0.2013
12664TIP3    H259484   5.953   4.248   5.534  0.6852  0.0441 -0.3974
12665TIP3   OH259485   4.722   3.450   3.997  0.0647 -0.7470 -0.7200
12665TIP3    H159486   4.633   3.416   4.009 -0.1421  0.4692  1.7644
12665TIP3    H259487   4.710   3.535   3.955 -0.0146 -0.3947 -0.0059
12666TIP3   OH259488   4.151   4.517  15.738 -0.1089  0.2633  0.0530
12666TIP3    H159489   4.118   4.607  15.733  0.5429  0.6453  1.9962
12666TIP3    H259490   4.073   4.464  15.755 -0.5417  0.3700 -1.3987
12667TIP3   OH259491   3.274   4.576   3.701 -0.0333  0.1515 -0.2309
12667TIP3    H159492   3.290   4.484   3.724  0.0666  0.2342  0.0367
12667TIP3    H259493   3.360   4.617   3.707 -0.3112  0.5939  1.1831
12668TIP3   OH259494   1.255   3.831   5.352 -0.8985  0.7030  0.0397
12668TIP3    H159495   1.268   3.738   5.370 -2.4331  0.6669  1.1513
12668TIP3    H259496   1.288   3.876   5.430 -0.5319  1.0636 -0.3205
12669TIP3   OH259497   0.968   0.148   5.451  0.4107  0.3090  0.1262
12669TIP3    H159498   0.920   0.065   5.451 -0.8307  0.9931  0.7849
12669TIP3    H259499   1.055   0.126   5.483  0.1629 -0.7763  0.0714
12670TIP3   OH259500   1.367   6.773   3.234 -0.1657 -0.2119  0.6887
12670TIP3    H159501   1.274   6.756   3.247 -0.4623  1.0945  0.4007
12670TIP3    H259502   1.395   6.815   3.315  0.0775 -0.2277  0.6132
12671TIP3   OH259503   1.488   1.463  14.224  0.0101 -0.7538  0.2607
12671TIP3    H159504   1.530   1.527  14.167 -0.6328  1.1095  1.7877
12671TIP3    H259505   1.543   1.385  14.216  0.4050 -0.3288 -2.2197
12672TIP3   OH259506   0.352   3.252  15.861  0.1959 -0.3106  0.0350
12672TIP3    H159507   0.405   3.308  15.917 -0.0183  0.3275 -0.3941
12672TIP3    H259508   0.411   3.182  15.833  0.5666 -0.0860  0.2540
12673TIP3   OH259509   4.652   6.333  16.761  0.3947  0.0415  0.7506
12673TIP3    H159510   4.674   6.425  16.778 -0.9011  0.5495 -0.1310
12673TIP3    H259511   4.736   6.287  16.765  1.6391  1.8096 -2.1103
12674TIP3   OH259512   2.207   3.304   1.400  0.3558 -0.4139 -0.2712
12674TIP3    H159513   2.214   3.302   1.496  0.3838  1.2850 -0.2012
12674TIP3    H259514   2.196   3.213   1.375  1.6814 -1.0571  1.2562
12675TIP3   OH259515   1.795   0.954  11.158 -0.1085 -0.0634 -0.7105
12675TIP3    H159516   1.761   0.961  11.069  0.2869 -1.3820 -0.9831
12675TIP3    H259517   1.725   0.912  11.208  0.5418 -1.4836 -0.9542
12676TIP3   OH259518   4.022   1.448   4.555  0.7094  0.0513 -0.1169
12676TIP3    H159519   4.021   1.356   4.578  0.1055  0.1288  0.1863
12676TIP3    H259520   3.990   1.451   4.464  0.1287  0.0163  0.0845
12677TIP3   OH259521   5.102   2.475   5.047  0.4053 -0.5092 -0.2834
12677TIP3    H159522   5.151   2.397   5.022  0.9989 -0.9526  2.0161
12677TIP3    H259523   5.147   2.547   5.004  1.9699 -1.1059  0.2716
12678TIP3   OH259524   0.500   3.300   1.703 -0.4429 -0.2871 -0.6612
12678TIP3    H159525   0.530   3.304   1.612  1.1254 -0.1775 -0.1678
12678TIP3    H259526   0.421   3.246   1.700  0.9923 -2.4677 -1.7673
12679TIP3   OH259527   0.478   1.487   1.492  0.5560  0.3094  0.2143
12679TIP3    H159528   0.443   1.568   1.529 -0.0055 -0.6260  1.8353
12679TIP3    H259529   0.573   1.500   1.491  0.4201  1.4255 -0.6986
12680TIP3   OH259530   2.742   1.662  14.019  0.0157  0.2209  0.3805
12680TIP3    H159531   2.733   1.753  13.992  1.3460  0.3134  0.2149
12680TIP3    H259532   2.834   1.640  14.003 -0.0686 -0.8816  1.2423
12681TIP3   OH259533   2.958   6.358  12.501 -0.3437 -0.4395  0.0402
12681TIP3    H159534   2.873   6.393  12.476 -0.4853 -1.0584 -0.3739
12681TIP3    H259535   3.017   6.434  12.500  0.0767 -0.5732 -3.9684
12682TIP3   OH259536   2.354   0.747  16.380 -0.0719 -0.2557  0.3237
12682TIP3    H159537   2.426   0.695  16.346  1.1138  0.8430  1.0827
12682TIP3    H259538   2.390   0.835  16.390 -2.2420  0.9961 -1.7840
12683TIP3   OH259539   1.590   6.596  13.493 -0.2663  0.0083 -0.3071
12683TIP3    H159540   1.512   6.604  13.548  0.1070  1.8478  0.0332
12683TIP3    H259541   1.569   6.527  13.430 -1.1642 -1.3250  1.3803
12684TIP3   OH259542   4.060   4.959  10.755 -0.2099 -0.1353 -0.3601
12684TIP3    H159543   4.087   4.967  10.664  1.2331  0.6029  0.1008
12684TIP3    H259544   4.076   4.867  10.777 -1.5423 -0.5834 -1.1036
12685TIP3   OH259545   1.035   2.544  13.533 -0.1379  0.2391  0.0740
12685TIP3    H159546   0.982   2.622  13.548  0.4448  0.8354 -0.8004
12685TIP3    H259547   0.972   2.475  13.515 -0.7146  1.4475 -3.4380
12686TIP3   OH259548   5.044   3.681  15.484 -0.0783  0.2403  0.0168
12686TIP3    H159549   5.061   3.672  15.578  0.2424 -1.3147 -0.1578
12686TIP3    H259550   5.097   3.756  15.457 -0.1926  0.7187  1.0800
12687TIP3   OH259551   1.358   5.465  11.647 -0.1496 -0.1806  0.0951
12687TIP3    H159552   1.393   5.515  11.721  0.3946  1.6839 -1.3566
12687TIP3    H259553   1.267   5.448  11.671 -0.2580  1.2354  0.7967
12688TIP3   OH259554   1.632   6.513   5.884 -0.2396  0.2653  0.0029
12688TIP3    H159555   1.555   6.564   5.860 -1.3857 -1.4421 -0.1800
12688TIP3    H259556   1.665   6.479   5.801 -0.2330 -0.2627  0.2164
12689TIP3   OH259557   2.718   4.468   0.814 -0.4016 -0.2875 -0.3862
12689TIP3    H159558   2.745   4.559   0.803 -1.3230  0.0489  0.0314
12689TIP3    H259559   2.623   4.471   0.817 -0.4822 -1.3652 -1.1555
12690TIP3   OH259560   3.326   3.632  14.338  0.4520 -0.0397  0.0415
12690TIP3    H159561   3.416   3.662  14.355  0.6550 -0.9352  0.6386
12690TIP3    H259562   3.337   3.543  14.302 -0.2061 -0.3832  0.6714
12691TIP3   OH259563   1.573   5.320  10.245 -0.0376  0.0193 -0.0569
12691TIP3    H159564   1.570   5.346  10.153  0.2748 -0.6613 -0.2665
12691TIP3    H259565   1.509   5.376  10.288 -1.7287 -1.0682 -1.0426
12692TIP3   OH259566   3.874   1.316  15.997 -0.2070  0.2082 -0.0718
12692TIP3    H159567   3.872   1.290  15.905 -0.2461 -0.9059  0.2372
12692TIP3    H259568   3.966   1.334  16.014 -0.0085 -0.8141 -0.0049
12693TIP3   OH259569   2.718   6.392   2.652  0.3371  0.7944 -0.2663
12693TIP3    H159570   2.761   6.351   2.576  1.0602 -0.8367  0.9536
12693TIP3    H259571   2.642   6.336   2.668  0.9862  0.2512  1.0555
12694TIP3   OH259572   3.636   4.005   3.478  0.0174 -0.1796 -0.5036
12694TIP3    H159573   3.705   3.986   3.542  0.8631  3.4017 -0.1345
12694TIP3    H259574   3.555   3.975   3.520  1.0637 -2.6771 -0.1057
12695TIP3   OH259575   0.576   4.278   3.776  0.0662 -0.0337  0.4954
12695TIP3    H159576   0.553   4.368   3.798  1.2002  0.7372 -1.2387
12695TIP3    H259577   0.645   4.287   3.710 -1.5668 -2.1525 -1.6269
12696TIP3   OH259578   4.432   5.895  12.182 -0.1838  0.2600 -0.0397
12696TIP3    H159579   4.518   5.872  12.218 -0.2569  1.4733  1.0061
12696TIP3    H259580   4.451   5.969  12.123 -0.4224  0.0863 -0.3342
12697TIP3   OH259581   3.418   6.178   4.905 -0.5118 -1.0247  0.0403
12697TIP3    H159582   3.420   6.223   4.821 -2.3337 -1.5103 -0.3269
12697TIP3    H259583   3.486   6.111   4.898  1.1884  0.6140  0.0225
12698TIP3   OH259584   5.219   3.963   1.037  0.1112  0.0631 -0.0587
12698TIP3    H159585   5.254   4.015   1.109 -0.7904  1.4110 -0.5410
12698TIP3    H259586   5.131   4.000   1.023 -0.0874 -0.8216 -1.2035
12699TIP3   OH259587   0.925   0.065   2.412 -0.1019  0.7180 -0.0696
12699TIP3    H159588   0.859   0.025   2.469  2.0817 -0.9552  1.4412
12699TIP3    H259589   0.929   0.007   2.336  0.2585  0.3166  0.2555
12700TIP3   OH259590   5.145   1.316   1.475 -0.0435  0.3941  0.5810
12700TIP3    H159591   5.053   1.338   1.486 -0.2025  0.7117 -1.1205
12700TIP3    H259592   5.150   1.222   1.493 -0.3721  0.6606  2.2712
12701TIP3   OH259593   4.119   2.495   1.611 -0.2376 -0.2829 -0.6597
12701TIP3    H159594   4.105   2.400   1.604  1.5559 -0.5828 -0.6825
12701TIP3    H259595   4.056   2.523   1.677 -2.1984 -1.1228 -2.0762
12702TIP3   OH259596   4.457   6.637  16.525  0.0096  0.3400  0.3129
12702TIP3    H159597   4.362   6.631  16.513  0.0033 -1.2224  0.9325
12702TIP3    H259598   4.480   6.558  16.574  1.6129  0.7846  0.3282
12703TIP3   OH259599   1.268   5.808  12.653  0.3091  0.4906 -0.3307
12703TIP3    H159600   1.254   5.842  12.741 -0.7728 -0.2931 -0.1741
12703TIP3    H259601   1.357   5.835  12.631  0.5052  0.9313  0.8948
12704TIP3   OH259602   5.583   3.938  14.814  0.1346 -0.5245  0.2186
12704TIP3    H159603   5.669   3.911  14.847 -0.4976 -1.5683  1.0855
12704TIP3    H259604   5.524   3.927  14.889 -0.5975  1.1224 -0.0728
12705TIP3   OH259605   4.127   3.119  16.270 -0.6282 -0.0014 -0.3864
12705TIP3    H159606   4.219   3.137  16.251 -1.0670  0.5997 -2.1838
12705TIP3    H259607   4.103   3.049  16.209 -0.8949 -1.5606  1.4153
12706TIP3   OH259608   3.649   6.195  14.935  0.5428 -0.4843 -0.5605
12706TIP3    H159609   3.600   6.198  14.853  1.7731  0.2862 -1.3043
12706TIP3    H259610   3.734   6.234  14.914  0.5278  0.7085  1.3349
12707TIP3   OH259611   4.913   3.388  14.647  0.1546  0.1962  0.2682
12707TIP3    H159612   4.841   3.447  14.625 -0.2242  0.2317  1.5066
12707TIP3    H259613   4.989   3.423  14.600 -0.7692 -0.2457 -1.6164
12708TIP3   OH259614   1.149   6.142  14.282 -0.2357  0.0903  0.5115
12708TIP3    H159615   1.241   6.115  14.287 -0.5056 -0.7163  1.2422
12708TIP3    H259616   1.150   6.216  14.220  0.5958 -1.2535 -1.1816
12709TIP3   OH259617   6.204   1.316  16.553 -0.3636  0.3331 -0.8958
12709TIP3    H159618   6.170   1.406  16.556 -0.0034  0.4563 -0.0480
12709TIP3    H259619   6.141   1.268  16.500 -0.0714  1.2901 -2.1638
12710TIP3   OH259620   4.409   6.495  11.824 -0.3164  0.1558  0.1286
12710TIP3    H159621   4.323   6.513  11.862  0.0865  0.5841  0.8579
12710TIP3    H259622   4.457   6.576  11.834 -0.0581  0.1435 -0.9487
12711TIP3   OH259623   4.165   3.768   0.625  0.6165  0.4192  0.3511
12711TIP3    H159624   4.121   3.710   0.563  0.8650 -2.4146  2.5993
12711TIP3    H259625   4.096   3.800   0.683  0.9363 -1.0776  1.6359
12712TIP3   OH259626   2.536   6.657  11.631 -0.1079  0.4443  0.7441
12712TIP3    H159627   2.516   6.665  11.537 -1.3656 -1.0847  0.8600
12712TIP3    H259628   2.561   6.746  11.657 -1.7144  1.3574 -0.6043
12713TIP3   OH259629   3.139   1.102  14.698 -0.6274 -0.2114 -0.4146
12713TIP3    H159630   3.196   1.127  14.771  0.0225 -0.0523 -0.9716
12713TIP3    H259631   3.094   1.023  14.729 -2.0637  1.0910  1.0318
12714TIP3   OH259632   0.418   4.839   3.599  0.7745  0.7972  0.0359
12714TIP3    H159633   0.359   4.796   3.538  2.5475  0.5166 -1.5811
12714TIP3    H259634   0.380   4.925   3.614 -1.0982 -0.1019  0.7144
12715TIP3   OH259635   1.073   1.333   5.531  0.0145  0.2827  0.1563
12715TIP3    H159636   1.121   1.267   5.482  3.9886  2.2586  0.9213
12715TIP3    H259637   1.046   1.289   5.611 -0.2216 -1.1694 -0.6959
12716TIP3   OH259638   6.027   6.769  12.772 -0.2307  0.1591 -0.0466
12716TIP3    H159639   6.019   6.863  12.756 -0.0610  0.0531 -0.8181
12716TIP3    H259640   5.945   6.733  12.738  0.0660 -0.0564 -0.5505
12717TIP3   OH259641   2.763   3.637  11.241 -0.5338 -0.0671 -0.3166
12717TIP3    H159642   2.854   3.629  11.212 -0.2393 -1.6701  0.8855
12717TIP3    H259643   2.764   3.711  11.302  0.3628 -1.1113  0.9918
12718TIP3   OH259644   6.708   5.671  11.683 -0.5527 -0.6501 -0.1718
12718TIP3    H159645   6.667   5.686  11.598  1.2468  0.2943 -0.9203
12718TIP3    H259646   6.802   5.664  11.663 -0.2413 -2.0969  1.5421
12719TIP3   OH259647   4.750   2.397  16.564 -0.4596  0.4343 -0.4232
12719TIP3    H159648   4.669   2.372  16.520 -0.5046  0.1455 -0.1772
12719TIP3    H259649   4.781   2.474  16.516  0.1549 -0.6192 -1.7695
12720TIP3   OH259650   3.615   5.660  12.359  0.0241  0.0346 -0.6092
12720TIP3    H159651   3.527   5.665  12.397  0.0841  0.8103 -0.5470
12720TIP3    H259652   3.666   5.725  12.407 -0.2668  2.1365 -2.9002
12721TIP3   OH259653   1.336   0.651  13.404  0.7012 -0.0386  0.2920
12721TIP3    H159654   1.325   0.602  13.322 -0.3643  0.2163  0.2607
12721TIP3    H259655   1.363   0.586  13.468 -0.3481 -0.6105  0.1715
12722TIP3   OH259656   5.714   2.473   5.266 -0.1292  0.1462 -0.0476
12722TIP3    H159657   5.720   2.561   5.302 -1.2554 -0.2617  1.2423
12722TIP3    H259658   5.707   2.416   5.343  0.8097 -1.1022 -0.8436
12723TIP3   OH259659   4.157   1.781  13.194 -0.4995 -0.0130  0.4191
12723TIP3    H159660   4.174   1.860  13.142  0.6088  0.2127  1.0894
12723TIP3    H259661   4.235   1.727  13.181 -0.4549 -0.2041  1.3756
12724TIP3   OH259662   6.434   3.971  15.301 -0.3417  0.2507 -0.2880
12724TIP3    H159663   6.378   3.901  15.335 -0.5864  0.3486 -0.4837
12724TIP3    H259664   6.520   3.930  15.292 -0.1587  0.3425  0.8647
12725TIP3   OH259665   4.891   6.234  14.247  0.1974 -0.1973 -0.2899
12725TIP3    H159666   4.867   6.293  14.319 -1.4928  0.3747 -1.2697
12725TIP3    H259667   4.922   6.292  14.177  0.1808 -0.6080 -0.6433
12726TIP3   OH259668   5.289   2.450   3.037 -0.0545 -0.3116 -0.1588
12726TIP3    H159669   5.202   2.487   3.058  0.0092 -0.8669  1.1930
12726TIP3    H259670   5.340   2.465   3.117  1.0877 -0.0571 -0.9199
12727TIP3   OH259671   4.587   3.934   5.315  0.2037 -0.0900 -0.0865
12727TIP3    H159672   4.615   3.917   5.224 -0.1778  2.2360 -0.7052
12727TIP3    H259673   4.590   3.848   5.357  0.6850 -1.1979 -2.2152
12728TIP3   OH259674   4.852   4.112  13.765 -0.0609  0.5555 -0.3813
12728TIP3    H159675   4.811   4.163  13.835  0.5436  0.8831 -0.2569
12728TIP3    H259676   4.945   4.115  13.786  0.0861  0.3695 -1.0173
12729TIP3   OH259677   5.991   3.659   0.555  0.4759  0.5651 -0.2957
12729TIP3    H159678   6.018   3.749   0.570 -1.6097  0.9761  1.5828
12729TIP3    H259679   5.899   3.665   0.528  0.2360 -0.9809  0.0555
12730TIP3   OH259680   4.676   3.065  13.599 -0.3284 -0.2574  0.1705
12730TIP3    H159681   4.687   2.971  13.584  1.7756  0.1020 -0.9749
12730TIP3    H259682   4.719   3.106  13.524  0.4931  1.6355  1.6115
12731TIP3   OH259683   2.723   5.930  16.620  0.5237  0.8380  0.4543
12731TIP3    H159684   2.645   5.983  16.604  0.0661  0.2138  0.6193
12731TIP3    H259685   2.690   5.844  16.645  1.2632  0.4733  0.2154
12732TIP3   OH259686   5.701   4.631   1.826 -0.2531  0.2391 -0.7822
12732TIP3    H159687   5.666   4.588   1.748 -1.8782 -0.2817  0.1725
12732TIP3    H259688   5.623   4.657   1.875  0.6587  3.5636 -0.8836
12733TIP3   OH259689   3.746   5.647  14.747  0.1363 -0.0124  0.2239
12733TIP3    H159690   3.716   5.737  14.759 -0.1204 -0.0815  0.0966
12733TIP3    H259691   3.781   5.645  14.658  1.9214  0.4640  0.8599
12734TIP3   OH259692   3.717   3.802  11.145  0.4904 -0.2045 -0.1592
12734TIP3    H159693   3.775   3.873  11.172  1.1865 -0.2896 -1.3741
12734TIP3    H259694   3.725   3.799  11.050 -0.2421 -1.3079 -0.2040
12735TIP3   OH259695   3.774   2.453  11.237  0.1615  0.4653 -0.1307
12735TIP3    H159696   3.851   2.478  11.288 -1.8206  1.6133  2.5463
12735TIP3    H259697   3.765   2.359  11.252 -0.3657  0.7732  1.7405
12736TIP3   OH259698   6.475   0.232   2.504  0.3507  0.5065 -0.1901
12736TIP3    H159699   6.566   0.247   2.527  0.1566  1.4056  0.0410
12736TIP3    H259700   6.425   0.257   2.582 -0.0468 -1.1202  0.1232
12737TIP3   OH259701   1.436   5.208   0.670 -0.7776 -0.0187 -0.1861
12737TIP3    H159702   1.483   5.285   0.702 -1.3220 -0.5396  1.9922
12737TIP3    H259703   1.355   5.244   0.633  0.2792  0.6724 -1.9801
12738TIP3   OH259704   5.828   0.812   6.517  0.2713  0.3528 -0.1049
12738TIP3    H159705   5.839   0.750   6.590  0.9896 -0.3172 -0.7547
12738TIP3    H259706   5.768   0.878   6.550 -0.4182 -0.6210  0.6744
12739TIP3   OH259707   1.590   0.347   5.540 -0.1149  0.3099 -0.4381
12739TIP3    H159708   1.596   0.355   5.635 -1.1384 -0.1400 -0.3196
12739TIP3    H259709   1.663   0.290   5.516 -0.5727 -0.5863  0.2328
12740TIP3   OH259710   3.379   6.055   3.851  0.0890  0.3341  0.4392
12740TIP3    H159711   3.298   6.006   3.841  0.3181  0.1273 -0.4835
12740TIP3    H259712   3.407   6.037   3.941  1.2109 -2.8749 -0.4352
12741TIP3   OH259713   5.646   1.184  15.797  0.4508 -0.1161 -0.1049
12741TIP3    H159714   5.657   1.100  15.841  1.3481 -0.3012 -0.6616
12741TIP3    H259715   5.561   1.216  15.828 -1.1701 -2.4162 -1.8428
12742TIP3   OH259716   2.320   4.729   1.045  0.7746 -0.3026 -0.2743
12742TIP3    H159717   2.358   4.811   1.015 -0.0779  0.1028 -0.2849
12742TIP3    H259718   2.290   4.747   1.134  0.5745 -0.5949 -0.2806
12743TIP3   OH259719   5.100   4.286   1.870 -0.5367  0.5077  0.0230
12743TIP3    H159720   5.056   4.211   1.830 -0.0427 -1.5042  2.9241
12743TIP3    H259721   5.169   4.309   1.808 -1.1350 -0.9601 -1.2598
12744TIP3   OH259722   2.098   1.719   0.292  0.7129 -0.1260  0.5085
12744TIP3    H159723   2.109   1.784   0.362 -1.4333  0.1959  0.5937
12744TIP3    H259724   2.036   1.655   0.328  0.5275 -0.6277 -0.6557
12745TIP3   OH259725   1.316   1.087  11.307 -0.4309  0.0432  0.8819
12745TIP3    H159726   1.396   1.067  11.259  0.9412  0.4299  2.8783
12745TIP3    H259727   1.320   1.181  11.323 -0.6261 -0.1230  2.0372
12746TIP3   OH259728   2.717   0.265  13.328 -0.4574  0.3836 -0.5816
12746TIP3    H159729   2.743   0.267  13.236 -0.5827 -0.6064 -0.6394
12746TIP3    H259730   2.708   0.173  13.350  1.3448  0.5023  0.9300
12747TIP3   OH259731   3.589   3.105  11.555  0.3108 -0.1251 -0.6171
12747TIP3    H159732   3.648   3.030  11.564 -0.0909 -0.5272 -1.2292
12747TIP3    H259733   3.509   3.068  11.517 -0.4950  0.3437  0.5831
12748TIP3   OH259734   3.317   2.083   4.702  0.2317  0.2297 -0.5006
12748TIP3    H159735   3.357   2.037   4.629 -0.9315  0.0849 -1.0659
12748TIP3    H259736   3.308   2.174   4.672 -1.8979 -0.1889 -1.2755
12749TIP3   OH259737   5.953   0.099  13.484  0.3614 -0.1839 -0.1077
12749TIP3    H159738   6.012   0.038  13.529  0.6412  0.0771 -0.1125
12749TIP3    H259739   5.990   0.108  13.396  0.7533  0.5621  0.1215
12750TIP3   OH259740   2.104   5.204  13.043 -0.4602 -0.8943 -0.0714
12750TIP3    H159741   2.157   5.279  13.068 -0.8196 -1.3636  2.2951
12750TIP3    H259742   2.153   5.162  12.973  1.0635  0.0568  0.3941
12751TIP3   OH259743   4.116   6.153  10.960 -0.9048  0.4644  0.0559
12751TIP3    H159744   4.098   6.144  10.867  1.3174  0.1655 -0.3915
12751TIP3    H259745   4.158   6.239  10.968 -0.2117  0.0870  0.6155
12752TIP3   OH259746   1.095   3.031  16.431  0.3468 -0.0730 -0.4658
12752TIP3    H159747   1.106   3.099  16.497 -0.9455 -0.7191  0.4516
12752TIP3    H259748   1.074   3.079  16.350  2.1044  0.7246 -0.4855
12753TIP3   OH259749   6.792   4.030  11.754  0.0096  0.6460  0.1283
12753TIP3    H159750   6.719   3.969  11.759 -0.4440  1.2522  1.1181
12753TIP3    H259751   6.854   3.989  11.693 -0.5236 -0.5274  0.3605
12754TIP3   OH259752   6.734   4.910   4.041  0.0225 -0.1942 -0.6918
12754TIP3    H159753   6.827   4.928   4.059  0.0291 -0.0293 -0.8913
12754TIP3    H259754   6.687   4.966   4.104  0.0439  0.4874 -1.2661
12755TIP3   OH259755   0.853   5.148   1.571 -0.0942  0.5870  0.7450
12755TIP3    H159756   0.903   5.072   1.540 -0.1350  1.1392 -0.7233
12755TIP3    H259757   0.770   5.112   1.600  0.4665 -0.1122  1.5516
12756TIP3   OH259758   1.766   5.592   4.364 -0.4700  0.4632  0.1036
12756TIP3    H159759   1.720   5.591   4.448 -2.3885 -2.6757 -0.8268
12756TIP3    H259760   1.858   5.601   4.388 -0.9192 -0.6032  2.5897
12757TIP3   OH259761   0.760   2.263   5.191 -0.2087 -0.3503 -0.0939
12757TIP3    H159762   0.784   2.300   5.106 -0.9447 -0.0639 -0.1830
12757TIP3    H259763   0.665   2.253   5.187 -0.5321  1.5310  1.4093
12758TIP3   OH259764   3.133   5.685  16.648 -0.6168  0.1707 -0.1309
12758TIP3    H159765   3.178   5.664  16.730 -1.1035 -2.2735 -0.4180
12758TIP3    H259766   3.040   5.673  16.667 -0.7809  0.2218 -0.8606
12759TIP3   OH259767   0.745   1.926  11.341 -0.3016 -0.0452 -0.6998
12759TIP3    H159768   0.695   2.001  11.373 -0.5042 -0.3342 -0.3312
12759TIP3    H259769   0.679   1.860  11.321 -0.2335  0.3701 -2.3964
12760TIP3   OH259770   4.598   3.413  10.389  0.3818  0.2427  0.4002
12760TIP3    H159771   4.553   3.494  10.365 -0.1249  0.1018  0.8540
12760TIP3    H259772   4.685   3.421  10.348 -0.2008  0.3102 -0.8835
12761TIP3   OH259773   6.153   3.186  10.962  0.1537 -0.3877 -0.7505
12761TIP3    H159774   6.124   3.273  10.988  2.6993 -0.2064  2.0903
12761TIP3    H259775   6.074   3.132  10.964 -0.9790  1.2211  0.6001
12762TIP3   OH259776   4.516   3.854   2.578 -0.4275  0.5680 -0.7434
12762TIP3    H159777   4.569   3.774   2.578 -0.4909  0.5258 -0.9947
12762TIP3    H259778   4.577   3.924   2.559 -0.2339  0.6729  0.2375
12763TIP3   OH259779   1.272   0.236   3.918 -0.3562 -0.1610 -0.0177
12763TIP3    H159780   1.297   0.319   3.880 -0.0569 -1.2283 -2.3237
12763TIP3    H259781   1.200   0.257   3.978 -1.7237  1.5251 -2.1187
12764TIP3   OH259782   5.807   2.141   2.852 -0.3100  0.1480 -0.0955
12764TIP3    H159783   5.831   2.095   2.771  0.1846  0.7244 -0.2918
12764TIP3    H259784   5.890   2.149   2.900 -0.2704  1.2886 -0.3189
12765TIP3   OH259785   1.038   6.482  13.067 -0.6126  0.5752  0.2164
12765TIP3    H159786   1.119   6.442  13.034 -0.0124  1.1283  0.9526
12765TIP3    H259787   1.022   6.438  13.150  0.2263  2.0013  1.1892
12766TIP3   OH259788   1.157   1.990   5.027 -0.5483 -0.5594 -0.3771
12766TIP3    H159789   1.201   2.052   5.085 -1.5712  0.1476 -0.3452
12766TIP3    H259790   1.229   1.938   4.989  0.1509 -1.0265  1.4785
12767TIP3   OH259791   3.994   5.369   5.916 -0.2027  0.2080  0.0600
12767TIP3    H159792   3.934   5.300   5.889 -1.1197  0.7681  0.6019
12767TIP3    H259793   4.011   5.351   6.009  1.0325 -0.3448 -0.2591
12768TIP3   OH259794   1.675   2.076  10.400  0.5237 -0.2088  0.2229
12768TIP3    H159795   1.671   2.170  10.382 -0.4452 -0.3098 -0.1718
12768TIP3    H259796   1.742   2.067  10.468 -0.0589  0.8778  0.9750
12769TIP3   OH259797   5.889   4.953  13.666 -0.1029  0.7969  0.2770
12769TIP3    H159798   5.878   4.863  13.634 -1.6325  0.5886  1.2770
12769TIP3    H259799   5.800   4.981  13.688  0.2412  2.8709 -0.7908
12770TIP3   OH259800   2.135   2.013   3.746  0.4107  0.1828  0.1595
12770TIP3    H159801   2.077   2.076   3.705 -0.0331  0.8971  1.8034
12770TIP3    H259802   2.219   2.059   3.755  0.6960 -0.1902 -0.4679
12771TIP3   OH259803   0.566   3.820   3.028  0.5424  0.0015  0.0123
12771TIP3    H159804   0.571   3.827   2.933  0.7179 -0.2210  0.0077
12771TIP3    H259805   0.652   3.789   3.056  0.7012  0.6705  0.2970
12772TIP3   OH259806   5.957   1.332  14.379 -0.0059 -0.5104 -0.0626
12772TIP3    H159807   6.003   1.257  14.341  1.0700 -1.5316  2.9691
12772TIP3    H259808   5.898   1.362  14.310  2.2745 -1.7068 -2.7300
12773TIP3   OH259809   5.592   3.559  15.120 -0.4579 -0.1305  0.4851
12773TIP3    H159810   5.641   3.491  15.074  0.3144 -1.0802  2.5455
12773TIP3    H259811   5.503   3.526  15.124 -0.3247 -0.5014  0.4780
12774TIP3   OH259812   6.618   4.657  15.321 -0.4139  0.1769  0.0046
12774TIP3    H159813   6.606   4.563  15.325  2.8200 -0.3223  0.6832
12774TIP3    H259814   6.564   4.686  15.247 -1.5336 -2.1488 -0.1613
12775TIP3   OH259815   2.329   5.948  11.634 -0.3787 -0.7007  0.4953
12775TIP3    H159816   2.384   5.992  11.569 -1.6895 -0.2909 -0.3881
12775TIP3    H259817   2.383   5.943  11.712  0.0530  1.9800  0.4571
12776TIP3   OH259818   5.020   4.928  13.786  0.2226 -0.1016 -0.4052
12776TIP3    H159819   5.086   4.876  13.740  0.4490 -0.3494  0.1930
12776TIP3    H259820   4.939   4.879  13.775  0.8231 -1.8690  2.1015
12777TIP3   OH259821   0.646   5.477  14.111  0.0002  0.2291 -0.4161
12777TIP3    H159822   0.626   5.386  14.134 -1.3857  0.5805 -0.1396
12777TIP3    H259823   0.575   5.503  14.052  0.5152  1.0516 -0.6837
12778TIP3   OH259824   2.053   1.460  12.472  0.3992 -0.0520  0.0764
12778TIP3    H159825   1.970   1.495  12.504  1.0263 -0.6912  2.6519
12778TIP3    H259826   2.068   1.382  12.525  1.0247 -1.9899 -2.6906
12779TIP3   OH259827   2.987   0.796   0.828 -0.1710  0.7437  0.0276
12779TIP3    H159828   3.050   0.866   0.816  0.7031 -0.2521 -1.5285
12779TIP3    H259829   3.023   0.722   0.779 -2.3440  0.0109 -0.6008
12780TIP3   OH259830   6.453   5.603   3.324  0.6056  0.0197  0.1276
12780TIP3    H159831   6.512   5.590   3.250  0.3421  0.4876 -0.1698
12780TIP3    H259832   6.366   5.588   3.288  0.4801  0.1857  0.3588
12781TIP3   OH259833   2.193   1.905   1.014  0.3044  0.6347 -0.0131
12781TIP3    H159834   2.239   1.833   1.057 -0.6347  0.2540  0.3683
12781TIP3    H259835   2.257   1.939   0.950  0.1763 -1.6821 -1.5156
12782TIP3   OH259836   0.420   1.378  16.203 -0.1108  0.0474  0.3407
12782TIP3    H159837   0.434   1.410  16.292  1.4675 -0.9796  0.5213
12782TIP3    H259838   0.505   1.342  16.178 -1.3655 -2.6710 -0.3418
12783TIP3   OH259839   0.072   3.306   0.576  0.1285  0.1666  0.0913
12783TIP3    H159840   0.149   3.339   0.529  0.0398  0.9247  0.4545
12783TIP3    H259841   0.030   3.246   0.515 -0.1523  1.3511 -0.9252
12784TIP3   OH259842   0.662   3.336  14.890  0.1590  0.2252  0.1566
12784TIP3    H159843   0.700   3.316  14.975 -0.3924  0.4473  0.4596
12784TIP3    H259844   0.611   3.416  14.904  1.1554  1.0434 -0.7026
12785TIP3   OH259845   3.373   2.468  11.689  0.4208 -0.2854 -0.1627
12785TIP3    H159846   3.315   2.531  11.733  1.0530  0.5135 -0.4559
12785TIP3    H259847   3.361   2.386  11.738 -0.5568  0.0095  0.1030
12786TIP3   OH259848   6.283   0.937  17.200 -0.5455 -0.1469 -0.3283
12786TIP3    H159849   6.232   0.958  17.122 -2.0980 -1.0869  0.3732
12786TIP3    H259850   6.357   0.886  17.168 -0.8242  0.0082 -1.2419
12787TIP3   OH259851   0.302   3.752   2.936  0.1138  0.6025 -0.7980
12787TIP3    H159852   0.272   3.801   2.859  2.6664  1.3510 -1.4264
12787TIP3    H259853   0.398   3.762   2.934  0.2691  1.0807  2.7755
12788TIP3   OH259854   3.942   5.723   5.095  0.5473  0.4148 -0.0282
12788TIP3    H159855   3.924   5.629   5.100 -1.7563  0.8258  0.3651
12788TIP3    H259856   3.902   5.759   5.175  2.5824  1.5933  0.5259
12789TIP3   OH259857   1.352   0.962  14.927 -0.2490  0.6228 -0.1476
12789TIP3    H159858   1.336   1.054  14.945 -0.3323  0.8836 -1.4687
12789TIP3    H259859   1.423   0.937  14.987 -0.8488  1.2822  0.8627
12790TIP3   OH259860   6.469   4.977   2.722 -0.1967  0.2174 -0.0166
12790TIP3    H159861   6.467   4.938   2.809  1.6444  3.3560  1.6023
12790TIP3    H259862   6.536   4.928   2.676  1.7042  0.9873  1.7791
12791TIP3   OH259863   3.970   2.571   2.132 -0.2987 -0.0100  0.1359
12791TIP3    H159864   3.968   2.502   2.066 -0.9781  0.7195 -0.6427
12791TIP3    H259865   3.879   2.604   2.135  0.1730  1.4104 -0.1604
12792TIP3   OH259866   0.623   6.332   4.945 -0.6212  0.1626 -0.1014
12792TIP3    H159867   0.647   6.300   4.858 -1.5241 -0.4205 -0.1479
12792TIP3    H259868   0.698   6.311   5.000 -0.5055 -0.4916 -0.4994
12793TIP3   OH259869   4.910   4.102  10.938 -0.0407  0.0516 -0.2904
12793TIP3    H159870   4.922   4.016  10.896  0.0267  0.1843 -0.5438
12793TIP3    H259871   4.920   4.165  10.867  0.3843  0.2969 -0.0181
12794TIP3   OH259872   1.515   2.392  13.132  0.5988 -0.1786 -0.4343
12794TIP3    H159873   1.470   2.467  13.170 -0.5650 -0.8850 -0.3634
12794TIP3    H259874   1.597   2.428  13.097  0.4499  0.9576  0.3301
12795TIP3   OH259875   0.535   5.661  14.392  0.0294 -0.3315  0.6630
12795TIP3    H159876   0.494   5.738  14.432  2.1622  0.9159  0.6606
12795TIP3    H259877   0.558   5.689  14.304  0.5162 -1.1000  0.5347
12796TIP3   OH259878   1.106   0.363   2.808 -0.4490  0.1700  0.1544
12796TIP3    H159879   1.180   0.304   2.797  0.0669  0.8274  0.0739
12796TIP3    H259880   1.102   0.413   2.726 -2.6185 -1.6576 -0.9674
12797TIP3   OH259881   0.974   3.584   1.387  0.0307  0.4003 -0.5279
12797TIP3    H159882   1.023   3.654   1.344 -1.3622  1.1306 -0.9855
12797TIP3    H259883   0.944   3.622   1.469  2.1907 -0.8068  0.9300
12798TIP3   OH259884   5.307   2.004  16.938  0.3238 -0.3957 -0.0302
12798TIP3    H159885   5.296   2.023  17.031 -0.7572 -0.9254 -0.0236
12798TIP3    H259886   5.256   1.924  16.924  1.0859 -0.7429 -0.9288
12799TIP3   OH259887   6.244   3.493   0.050  0.2167  0.1611 -0.0368
12799TIP3    H159888   6.155   3.515   0.023  0.6882  2.3833  0.0065
12799TIP3    H259889   6.294   3.573   0.033  1.6415 -0.1304  2.3722
12800TIP3   OH259890   4.760   2.025  15.173 -0.0866 -0.1925  0.4191
12800TIP3    H159891   4.705   1.999  15.099 -0.2295 -0.0115  0.4619
12800TIP3    H259892   4.751   2.120  15.178 -0.0595 -0.2007  0.6536
12801TIP3   OH259893   0.292   6.534   5.428  0.5896 -0.1264 -0.2512
12801TIP3    H159894   0.316   6.541   5.335  1.9338 -0.0239  0.0858
12801TIP3    H259895   0.328   6.450   5.456  1.6406  0.5774  0.5723
12802TIP3   OH259896   2.246   4.172   5.964 -0.1584  0.0687 -0.4477
12802TIP3    H159897   2.207   4.205   5.883 -1.3170 -0.8738 -0.2946
12802TIP3    H259898   2.175   4.174   6.028  0.7279  0.7296  0.5531
12803TIP3   OH259899   3.221   1.944  15.457 -0.3097  0.0769  0.6317
12803TIP3    H159900   3.199   1.875  15.394  1.1929  2.2925 -2.5193
12803TIP3    H259901   3.296   1.909  15.505 -0.8705 -1.2693  0.5810
12804TIP3   OH259902   2.271   4.240  13.982  0.1910 -0.0874  0.0032
12804TIP3    H159903   2.209   4.312  13.986 -0.2585 -0.4811  0.1864
12804TIP3    H259904   2.219   4.161  13.999  0.7287 -0.4258  0.1340
12805TIP3   OH259905   3.336   4.927   2.343 -0.5419  0.1436 -0.2744
12805TIP3    H159906   3.265   4.864   2.356 -1.1005  0.6352 -0.8452
12805TIP3    H259907   3.317   4.966   2.258  0.0952  0.6933 -0.1659
12806TIP3   OH259908   2.483   5.909   5.031  0.6198  0.0218  0.5025
12806TIP3    H159909   2.418   5.873   4.970  2.0009  1.5007 -1.9899
12806TIP3    H259910   2.530   5.832   5.064  0.8420 -0.7714 -1.5279
12807TIP3   OH259911   0.987   5.427  11.033 -0.3488 -0.6270  0.1550
12807TIP3    H159912   0.996   5.423  11.129 -0.4740  0.6071  0.2282
12807TIP3    H259913   1.074   5.404  11.000 -0.0263 -0.0480  0.5898
12808TIP3   OH259914   1.062   2.572   6.763 -0.2725  0.4781  0.3522
12808TIP3    H159915   0.976   2.604   6.736 -0.0069  0.4487 -0.5565
12808TIP3    H259916   1.062   2.480   6.738  0.2477  0.6282 -0.2047
12809TIP3   OH259917   3.152   2.371   4.258 -0.3623  0.4656  0.6211
12809TIP3    H159918   3.114   2.398   4.174 -0.8544 -0.0386  0.6735
12809TIP3    H259919   3.135   2.446   4.316 -2.0338 -0.0489  0.8627
12810TIP3   OH259920   3.966   6.452  12.712 -0.3310  0.3784  0.2142
12810TIP3    H159921   3.995   6.522  12.653  0.6344  0.8937  1.2578
12810TIP3    H259922   3.880   6.427  12.679 -0.0428  1.0084 -1.0915
12811TIP3   OH259923   0.423   0.996  15.437 -0.3798  0.2061  0.5025
12811TIP3    H159924   0.466   1.047  15.506  2.5200 -0.3931 -0.6950
12811TIP3    H259925   0.420   0.907  15.472  0.2202  0.0839  0.2632
12812TIP3   OH259926   1.781   4.959   0.936 -0.2493 -0.0102  0.2113
12812TIP3    H159927   1.724   4.906   0.881  0.7856  0.8928 -1.8380
12812TIP3    H259928   1.860   4.906   0.947  0.2913  0.5518 -0.8020
12813TIP3   OH259929   4.912   2.330  11.837 -0.5748  0.4241 -0.6870
12813TIP3    H159930   4.935   2.412  11.794  1.7599 -0.1638 -0.6744
12813TIP3    H259931   4.969   2.265  11.797 -0.5911 -0.7306  1.0787
12814TIP3   OH259932   0.982   1.472   0.695  0.2610  0.7728 -0.4442
12814TIP3    H159933   0.979   1.507   0.784  1.4778 -2.3418  0.9950
12814TIP3    H259934   0.895   1.433   0.682  0.9633 -1.3049  0.6432
12815TIP3   OH259935   5.455   3.142  12.593  0.0680  0.0099  0.6337
12815TIP3    H159936   5.377   3.114  12.642 -0.1879  0.2921  0.3903
12815TIP3    H259937   5.424   3.215  12.539  0.6753  0.6420  1.1161
12816TIP3   OH259938   6.574   0.436   2.908  0.2248  0.2529  0.0661
12816TIP3    H159939   6.639   0.507   2.907 -0.4037  0.8702  0.9075
12816TIP3    H259940   6.626   0.356   2.910  0.9693  0.7325  0.5718
12817TIP3   OH259941   1.149   1.342  13.002 -0.6906 -0.3735 -0.1260
12817TIP3    H159942   1.227   1.343  12.947 -1.0783 -0.1861 -0.6899
12817TIP3    H259943   1.076   1.353  12.940 -1.1355 -0.1286  0.4284
12818TIP3   OH259944   1.080   4.390  16.939 -0.9187  0.2272  0.2302
12818TIP3    H159945   0.995   4.387  16.897 -1.6823  1.3058  1.6027
12818TIP3    H259946   1.109   4.299  16.944 -2.9591 -0.4076  1.5932
12819TIP3   OH259947   6.445   0.094   2.866  0.0912 -0.4089 -0.0477
12819TIP3    H159948   6.396   0.080   2.946  0.7732 -0.5285  0.3540
12819TIP3    H259949   6.534   0.115   2.895  0.2779 -0.1814 -0.7612
12820TIP3   OH259950   5.137   6.176  11.256 -0.0120 -0.5784 -0.1076
12820TIP3    H159951   5.177   6.213  11.335  0.1641 -1.7074  0.3499
12820TIP3    H259952   5.211   6.161  11.197 -0.1662  0.4526 -0.5826
12821TIP3   OH259953   2.763   4.784   4.641  0.1965 -0.0576  0.2028
12821TIP3    H159954   2.669   4.804   4.640 -0.0301 -0.9461 -1.5384
12821TIP3    H259955   2.802   4.851   4.696 -1.2839  1.2404 -0.2622
12822TIP3   OH259956   0.375   1.305   1.318  0.1823  0.6039  0.1213
12822TIP3    H159957   0.383   1.367   1.390  0.7323  1.0274 -0.2977
12822TIP3    H259958   0.459   1.258   1.317 -0.6765 -1.0650  1.2478
12823TIP3   OH259959   0.345   2.593  11.486  0.1312 -0.3041  0.4012
12823TIP3    H159960   0.297   2.673  11.507 -0.9693 -1.3044  1.8147
12823TIP3    H259961   0.330   2.535  11.560  2.1415 -1.3060  0.0962
12824TIP3   OH259962   4.373   3.897   3.520  0.1945  0.0626 -0.1891
12824TIP3    H159963   4.424   3.976   3.509 -0.1497  0.2517 -0.4609
12824TIP3    H259964   4.287   3.927   3.550  0.0187 -0.1896 -0.4226
12825TIP3   OH259965   6.486   6.127   0.515 -0.4170 -0.2899 -0.0653
12825TIP3    H159966   6.409   6.084   0.551 -0.3215  0.7731  1.4768
12825TIP3    H259967   6.503   6.201   0.573  0.5041  0.7675 -1.5943
12826TIP3   OH259968   5.111   2.938  14.780  0.5766  0.4002 -0.2921
12826TIP3    H159969   5.037   2.962  14.725 -2.5108 -1.7441  2.5750
12826TIP3    H259970   5.120   2.843  14.768  1.2475  0.2449  1.2567
12827TIP3   OH259971   5.227   0.791   5.612 -0.2506 -0.0774  0.3304
12827TIP3    H159972   5.182   0.857   5.666 -1.2118 -0.3402 -0.1328
12827TIP3    H259973   5.249   0.721   5.674 -0.3639  0.1140  0.5923
12828TIP3   OH259974   1.662   3.257   6.317 -0.5078  0.4065  0.3923
12828TIP3    H159975   1.691   3.233   6.404  0.4429 -0.5639 -0.1670
12828TIP3    H259976   1.596   3.192   6.294 -1.1466  0.9740  0.5806
12829TIP3   OH259977   5.838   3.722  14.823 -0.6064  0.0658 -0.1658
12829TIP3    H159978   5.864   3.633  14.845 -0.4270  0.2820  0.5202
12829TIP3    H259979   5.909   3.755  14.768 -0.0889  0.1807  0.5571
12830TIP3   OH259980   4.251   3.358  14.726  0.0922 -0.1215 -0.1298
12830TIP3    H159981   4.302   3.424  14.774 -0.6729  0.3559  0.0454
12830TIP3    H259982   4.280   3.368  14.635 -1.8270  2.2837 -0.5809
12831TIP3   OH259983   6.757   1.256  16.872  0.0481  0.3043 -0.1314
12831TIP3    H159984   6.679   1.218  16.831  0.8650 -1.2661 -0.2965
12831TIP3    H259985   6.811   1.180  16.896  1.7461  1.3623 -0.4591
12832TIP3   OH259986   1.584   2.921  11.198  0.0899  0.1940  0.1369
12832TIP3    H159987   1.622   2.879  11.121 -0.8771  0.2021 -0.3583
12832TIP3    H259988   1.558   3.008  11.167 -1.3756 -0.2148  0.1328
12833TIP3   OH259989   0.483   6.432  14.824  0.1995 -0.2227 -0.1629
12833TIP3    H159990   0.527   6.356  14.785  1.8784  1.3516 -1.4772
12833TIP3    H259991   0.475   6.495  14.752 -0.0989  1.3113  1.1665
12834TIP3   OH259992   4.717   5.908   6.689  0.1529 -0.2147  0.1297
12834TIP3    H159993   4.622   5.902   6.697  0.2547  0.0810  1.9081
12834TIP3    H259994   4.750   5.840   6.748  1.0599 -1.1835 -1.4406
12835TIP3   OH259995   1.983   0.654   5.114  0.1155 -0.2679  0.5821
12835TIP3    H159996   1.913   0.719   5.115  1.5887  1.4099  1.2282
12835TIP3    H259997   2.041   0.683   5.043  0.0311 -1.8105 -0.1663
12836TIP3   OH259998   0.839   0.358   0.154 -0.0647 -0.0801  0.1751
12836TIP3    H159999   0.901   0.430   0.163 -0.8946  0.7817 -0.7173
12836TIP3    H260000   0.754   0.401   0.146 -0.4964 -1.1101 -1.2299
12837TIP3   OH260001   6.304   4.205  16.616 -0.3078  0.6129 -0.1971
12837TIP3    H160002   6.389   4.191  16.575  0.2790 -0.7447  1.3962
12837TIP3    H260003   6.299   4.139  16.685 -2.0078  1.6666  0.7530
12838TIP3   OH260004   5.709   5.102  16.357 -0.0949 -0.5299  0.4467
12838TIP3    H160005   5.769   5.030  16.374  0.9407  0.1958 -0.0519
12838TIP3    H260006   5.765   5.177  16.336 -1.1845 -0.1351 -1.2843
12839TIP3   OH260007   3.423   2.647  13.409  0.1724  0.0736 -0.0701
12839TIP3    H160008   3.410   2.710  13.337 -0.3686  0.1329  0.0741
12839TIP3    H260009   3.374   2.570  13.382  1.6450 -0.6737 -0.7095
12840TIP3   OH260010   1.882   1.472   1.152  0.0150  0.3287 -0.0359
12840TIP3    H160011   1.810   1.472   1.215  0.7085  1.4116  0.7841
12840TIP3    H260012   1.898   1.564   1.133  0.8101  0.0791 -0.6448
12841TIP3   OH260013   1.751   0.587   1.835  0.0619  0.3078  0.5811
12841TIP3    H160014   1.762   0.590   1.740 -1.3413 -0.4770  0.3707
12841TIP3    H260015   1.768   0.677   1.864 -0.3514  0.7557 -0.5235
12842TIP3   OH260016   6.410   4.360  14.730  0.3948  0.2824 -0.3298
12842TIP3    H160017   6.404   4.435  14.789 -1.4070  1.2036 -1.5707
12842TIP3    H260018   6.421   4.284  14.787  2.6186  1.4812  0.9470
12843TIP3   OH260019   3.010   4.639   4.928  0.2343  0.6835  0.0923
12843TIP3    H160020   2.960   4.606   5.002  0.7252 -1.0339 -0.2801
12843TIP3    H260021   2.956   4.619   4.852  1.0838 -0.4777 -0.2448
12844TIP3   OH260022   0.466   3.443  13.982  0.0605 -0.0761 -0.1382
12844TIP3    H160023   0.474   3.456  14.076  0.2310 -0.0062 -0.1629
12844TIP3    H260024   0.379   3.404  13.970  0.1585 -0.3519  0.0723
12845TIP3   OH260025   0.520   5.693  11.224  0.8933  0.1118  0.0055
12845TIP3    H160026   0.451   5.627  11.224  0.5983  0.4151 -0.7231
12845TIP3    H260027   0.487   5.762  11.281  1.4253 -0.5758  1.1948
12846TIP3   OH260028   1.830   4.026  15.416  0.0363  0.1761  0.1175
12846TIP3    H160029   1.905   3.981  15.377  0.9471  0.8656  1.0155
12846TIP3    H260030   1.761   3.960  15.418  0.3001 -0.2027 -1.5846
12847TIP3   OH260031   6.104   4.558  15.746  0.0614  0.1826  0.7990
12847TIP3    H160032   6.047   4.620  15.792  1.4358  1.6612  0.6372
12847TIP3    H260033   6.156   4.613  15.687  0.0358 -1.3839 -0.7599
12848TIP3   OH260034   4.515   3.657  12.135  0.1567  0.0253  0.2163
12848TIP3    H160035   4.452   3.710  12.182 -0.4554  0.6203 -1.2263
12848TIP3    H260036   4.509   3.686  12.044 -0.2486 -2.5097 -0.6644
12849TIP3   OH260037   5.112   4.848  12.021  0.2672 -0.2787  0.0637
12849TIP3    H160038   5.038   4.798  11.988 -0.2396 -1.8412  3.1679
12849TIP3    H260039   5.183   4.829  11.961 -0.7708 -2.1956 -0.6397
12850TIP3   OH260040   2.355   1.787   1.913  0.2593 -0.2389  0.5383
12850TIP3    H160041   2.413   1.777   1.837 -0.2618  3.9631 -0.6690
12850TIP3    H260042   2.414   1.789   1.988  1.1222 -1.2254 -0.0852
12851TIP3   OH260043   1.631   6.097   4.675  0.2489  0.5065  0.3195
12851TIP3    H160044   1.623   6.001   4.671  1.9279  0.2937  1.1514
12851TIP3    H260045   1.542   6.129   4.658 -0.3931 -1.2010  0.2368
12852TIP3   OH260046   2.330   3.857  13.041 -0.2544 -0.1279 -0.0550
12852TIP3    H160047   2.396   3.889  12.979 -0.8469  1.0715 -0.1078
12852TIP3    H260048   2.250   3.904  13.017 -1.0096 -1.1509  0.3463
12853TIP3   OH260049   6.802   0.725   5.415  0.1355 -0.2696  0.5016
12853TIP3    H160050   6.826   0.817   5.404 -0.5080  0.3109  3.2402
12853TIP3    H260051   6.885   0.681   5.436  0.8212 -0.8144 -2.8381
12854TIP3   OH260052   6.218   3.264  11.327  0.0754 -0.0775  0.2110
12854TIP3    H160053   6.197   3.337  11.269  0.8827  1.9403  2.2922
12854TIP3    H260054   6.213   3.186  11.271 -0.6902  1.5572 -2.1448
12855TIP3   OH260055   1.533   4.974  11.102  0.6032 -0.3776 -0.1196
12855TIP3    H160056   1.461   4.942  11.155  0.0990 -1.5950 -1.4749
12855TIP3    H260057   1.497   4.981  11.014  2.0601 -0.7582 -0.7790
12856TIP3   OH260058   4.441   3.413  12.046 -0.1488  0.0689 -0.9624
12856TIP3    H160059   4.373   3.396  12.111  1.1174 -0.0840  0.3800
12856TIP3    H260060   4.479   3.497  12.071 -0.1682  0.4064 -2.0010
12857TIP3   OH260061   4.466   2.696   2.530  0.6178 -0.0583  0.1193
12857TIP3    H160062   4.434   2.609   2.507 -0.5833  0.6829 -1.1835
12857TIP3    H260063   4.389   2.752   2.527  1.4284  1.1256  0.5659
12858TIP3   OH260064   1.054   5.870  10.981 -0.0011 -0.2159 -0.7943
12858TIP3    H160065   1.007   5.949  11.010  1.5352  0.6368 -0.5127
12858TIP3    H260066   1.039   5.807  11.051  0.5852  0.5849  0.0834
12859TIP3   OH260067   2.346   1.614  15.239 -0.1266 -0.5029 -0.2599
12859TIP3    H160068   2.330   1.580  15.327 -0.0592 -3.2715 -1.2121
12859TIP3    H260069   2.301   1.699  15.237 -2.1043 -1.3976  1.7378
12860TIP3   OH260070   0.801   0.701  12.728 -0.7706  0.1868 -0.0431
12860TIP3    H160071   0.748   0.629  12.764  0.3881 -0.1574  1.0537
12860TIP3    H260072   0.789   0.694  12.633 -0.3589 -1.7321  0.0025
12861TIP3   OH260073   5.032   5.572   0.556 -0.1744  0.6906 -0.2986
12861TIP3    H160074   4.963   5.606   0.499  0.2322  1.8299 -0.1401
12861TIP3    H260075   5.101   5.543   0.496 -0.5278  0.1196 -0.4358
12862TIP3   OH260076   3.558   6.265  17.205  0.6679  0.2458 -0.2523
12862TIP3    H160077   3.499   6.320  17.154 -0.6509 -1.5962 -0.8285
12862TIP3    H260078   3.507   6.239  17.281  1.7756  0.9535  0.7765
12863TIP3   OH260079   5.869   4.894   4.234 -0.3249 -0.0470  0.1378
12863TIP3    H160080   5.937   4.890   4.166 -2.6233  1.4356 -2.4604
12863TIP3    H260081   5.857   4.988   4.249 -1.6541 -0.2854  0.6559
12864TIP3   OH260082   4.836   5.616  15.019 -0.4600 -0.6719 -0.3610
12864TIP3    H160083   4.782   5.608  15.098  0.3999  0.3326  0.3605
12864TIP3    H260084   4.773   5.618  14.947 -1.4066  0.5870  0.4659
12865TIP3   OH260085   4.621   0.454  11.279 -0.1387 -0.5053 -0.3547
12865TIP3    H160086   4.555   0.480  11.343  1.5905  0.7039  1.0536
12865TIP3    H260087   4.576   0.457  11.195 -1.4283  2.1893  0.3212
12866TIP3   OH260088   0.225   1.438  14.183  0.8059  0.4275 -0.4222
12866TIP3    H160089   0.243   1.374  14.114 -1.8125 -0.1137 -0.7124
12866TIP3    H260090   0.181   1.388  14.252 -1.1797  1.8231 -0.5942
12867TIP3   OH260091   6.001   4.074  11.910  0.4421  0.4028  0.4213
12867TIP3    H160092   5.943   4.101  11.839  0.4470  0.8985  0.6003
12867TIP3    H260093   6.051   4.153  11.931  1.7284 -0.1979 -0.2401
12868TIP3   OH260094   4.359   6.577  16.026 -0.4166  0.5256  0.2084
12868TIP3    H160095   4.396   6.665  16.013  2.3050 -0.6732 -0.9963
12868TIP3    H260096   4.265   6.588  16.014 -0.0106  3.0238 -1.4227
12869TIP3   OH260097   4.922   4.885   1.871 -0.6205 -0.3501  0.2182
12869TIP3    H160098   4.952   4.808   1.918 -0.8056 -0.4805  0.1247
12869TIP3    H260099   4.931   4.957   1.933  1.2390 -0.1279 -0.2599
12870TIP3   OH260100   1.520   6.381  11.374  0.3562 -0.3354  0.6346
12870TIP3    H160101   1.445   6.440  11.370 -0.7961 -1.7657  0.4859
12870TIP3    H260102   1.592   6.437  11.404 -0.3273  1.4797 -0.8626
12871TIP3   OH260103   3.030   1.937   1.081 -0.3388  0.1622 -0.0831
12871TIP3    H160104   3.052   2.030   1.096 -1.1836  0.1115  1.6219
12871TIP3    H260105   3.073   1.891   1.153 -1.2521 -0.5834 -0.0066
12872TIP3   OH260106   4.488   0.179  11.660  0.2719  0.3598  0.2103
12872TIP3    H160107   4.517   0.156  11.571  1.2294 -0.9871  0.8439
12872TIP3    H260108   4.529   0.264  11.676 -1.1778  1.3812 -1.1952
12873TIP3   OH260109   0.939   0.772  12.465  0.4235  0.0416 -0.3501
12873TIP3    H160110   0.880   0.697  12.471  1.7429 -1.0786 -0.8046
12873TIP3    H260111   0.942   0.793  12.371  0.9339 -0.0748 -0.3633
12874TIP3   OH260112   5.483   0.693   5.143 -0.1537 -0.0068 -0.1189
12874TIP3    H160113   5.439   0.737   5.215  0.5710  0.7343 -0.1136
12874TIP3    H260114   5.425   0.621   5.120  0.5289 -1.5527  2.5400
12875TIP3   OH260115   5.004   3.236   0.437  0.3160  0.3735 -0.3453
12875TIP3    H160116   4.919   3.280   0.449  0.1063  0.3111 -1.4151
12875TIP3    H260117   4.989   3.147   0.467  0.3897  0.6960  0.6908
12876TIP3   OH260118   0.095   6.042  13.949  0.2583  0.0847 -0.1342
12876TIP3    H160119   0.087   6.133  13.978  1.4936 -0.3980  1.8843
12876TIP3    H260120   0.006   6.007  13.954  0.0203  0.7682  0.5364
12877TIP3   OH260121   4.233   0.407   5.931  0.6786  0.1071 -0.2024
12877TIP3    H160122   4.206   0.494   5.961  1.1164  0.0330  0.4339
12877TIP3    H260123   4.218   0.350   6.006 -1.7956 -0.8375 -1.3348
12878TIP3   OH260124   3.412   6.191  12.572  0.0854 -0.1728 -0.4973
12878TIP3    H160125   3.318   6.176  12.580  0.3855 -4.0128 -2.1067
12878TIP3    H260126   3.419   6.273  12.524 -2.5635 -1.0345 -2.5812
12879TIP3   OH260127   3.783   0.623   2.442  0.1452  0.0496  0.2837
12879TIP3    H160128   3.763   0.666   2.526  1.2502  0.1514  0.5095
12879TIP3    H260129   3.841   0.685   2.397 -0.9918  0.3266 -0.8892
12880TIP3   OH260130   0.144   2.598  11.222  0.2471 -0.0087 -0.1350
12880TIP3    H160131   0.218   2.657  11.235  0.1419  0.0272  0.3195
12880TIP3    H260132   0.166   2.520  11.273 -1.0397  0.8891  1.9049
12881TIP3   OH260133   0.001   0.445  10.774 -0.1837 -0.1488  0.1600
12881TIP3    H160134  -0.012   0.507  10.702  0.0677  0.1256  0.3480
12881TIP3    H260135   0.030   0.365  10.731  0.3467  0.1294 -0.0193
12882TIP3   OH260136   1.831   4.818   2.661 -0.4962 -0.3978 -0.1868
12882TIP3    H160137   1.881   4.824   2.580 -2.1449  0.8308 -1.1744
12882TIP3    H260138   1.775   4.741   2.650  1.4348 -2.1038  1.1451
12883TIP3   OH260139   6.259   5.297  11.602  0.0239 -0.1701 -0.5355
12883TIP3    H160140   6.199   5.228  11.574  0.8769 -0.4723 -1.7144
12883TIP3    H260141   6.226   5.325  11.687 -1.3297 -0.8490 -0.8185
12884TIP3   OH260142   2.605   3.736   1.828  0.0339 -0.3661 -0.3741
12884TIP3    H160143   2.659   3.800   1.781 -0.5165  0.6145  0.2876
12884TIP3    H260144   2.635   3.651   1.796  1.8542  0.1520 -0.1444
12885TIP3   OH260145   4.669   4.439   0.329  0.1964  0.2943 -0.8985
12885TIP3    H160146   4.730   4.424   0.257  0.0956 -0.1717 -0.8886
12885TIP3    H260147   4.588   4.397   0.302  0.6465 -1.3474  0.1752
12886TIP3   OH260148   2.744   2.020   2.477  0.4083 -0.3224  0.2909
12886TIP3    H160149   2.817   2.062   2.523  0.8260  0.7179 -1.2444
12886TIP3    H260150   2.667   2.068   2.507  0.9793  2.4365 -2.2280
12887TIP3   OH260151   2.419   2.301  17.083  0.3657 -0.4545 -0.9595
12887TIP3    H160152   2.447   2.232  17.023  0.4023 -1.8698  0.6045
12887TIP3    H260153   2.428   2.262  17.170  2.7132  2.3289  0.1995
12888TIP3   OH260154   4.829   3.802  11.213 -0.1819  0.3241  0.5503
12888TIP3    H160155   4.753   3.854  11.188  0.0481  0.5327  0.2702
12888TIP3    H260156   4.897   3.867  11.231  0.6928  0.1320 -1.6637
12889TIP3   OH260157   4.384   2.214   6.717 -0.5175  0.2228  0.3200
12889TIP3    H160158   4.338   2.131   6.727 -0.4942  0.0070 -1.0936
12889TIP3    H260159   4.315   2.279   6.711 -0.6130  0.0580 -0.4961
12890TIP3   OH260160   0.288   4.189  13.716 -0.1214 -0.3849  0.1239
12890TIP3    H160161   0.254   4.101  13.734  0.2897 -0.5178  0.2490
12890TIP3    H260162   0.210   4.245  13.716 -0.1959 -0.4313  1.9784
12891TIP3   OH260163   4.141   6.293   4.072  0.2785 -0.0399 -0.0132
12891TIP3    H160164   4.127   6.384   4.096  1.0773  0.2232 -0.5292
12891TIP3    H260165   4.116   6.244   4.151  2.4130  0.7779  1.2508
12892TIP3   OH260166   1.034   2.289  13.046 -0.5610  0.3071  0.1247
12892TIP3    H160167   1.105   2.270  12.986 -0.1437  0.2880  0.6185
12892TIP3    H260168   0.954   2.267  12.997 -0.2373  0.5041 -0.4889
12893TIP3   OH260169   6.729   5.807  12.773 -1.0739  0.0640  0.0563
12893TIP3    H160170   6.677   5.760  12.708 -0.6918 -0.6867  0.2756
12893TIP3    H260171   6.737   5.895  12.738  1.1113 -0.8790 -2.1346
12894TIP3   OH260172   4.041   2.038  13.592  0.1561 -0.2248 -0.5409
12894TIP3    H160173   4.049   1.958  13.539  0.0915 -0.6870  0.1377
12894TIP3    H260174   4.069   2.108  13.533  0.2269 -0.7480 -1.1432
12895TIP3   OH260175   1.710   3.540  13.744  0.1636 -0.0158  0.1586
12895TIP3    H160176   1.742   3.524  13.833  1.0902  0.4580 -0.0756
12895TIP3    H260177   1.787   3.572  13.697  0.2603 -2.3829 -1.4255
12896TIP3   OH260178   5.487   6.341   4.033  0.7388  0.5071 -0.1226
12896TIP3    H160179   5.468   6.367   4.124  0.5230 -1.4829  0.4399
12896TIP3    H260180   5.582   6.353   4.024  0.8186  0.3595  0.4805
12897TIP3   OH260181   2.421   6.381  15.113 -0.1527  0.5103  0.0436
12897TIP3    H160182   2.444   6.368  15.021 -1.5706 -1.0163 -0.1363
12897TIP3    H260183   2.419   6.476  15.123 -3.5827  0.9221 -2.5344
12898TIP3   OH260184   0.758   1.375  13.101  0.2605 -0.4528  0.2391
12898TIP3    H160185   0.822   1.305  13.114 -0.7272 -1.0658  2.2328
12898TIP3    H260186   0.720   1.389  13.188 -0.9552  1.2252 -0.5073
12899TIP3   OH260187   2.903   0.641   5.931 -0.3713  0.3256 -0.2253
12899TIP3    H160188   2.852   0.587   5.871  0.7285 -0.9576 -0.0462
12899TIP3    H260189   2.905   0.592   6.013  2.3653 -0.4567 -0.6456
12900TIP3   OH260190   5.872   4.029   6.513 -0.3741  0.5510 -0.2508
12900TIP3    H160191   5.914   3.991   6.591  1.3833  1.2093 -0.8217
12900TIP3    H260192   5.853   3.954   6.457  0.4200  0.2620 -0.1429
12901TIP3   OH260193   5.999   5.091   2.072 -0.0228 -0.1462 -0.1200
12901TIP3    H160194   5.963   5.177   2.093  2.3506  0.4916  1.7669
12901TIP3    H260195   6.041   5.102   1.987 -0.1362  0.4375 -0.1054
12902TIP3   OH260196   3.585   2.770  17.185  0.2918  0.2232  0.0771
12902TIP3    H160197   3.619   2.737  17.268  0.3203  0.4534  0.1568
12902TIP3    H260198   3.659   2.814  17.144 -0.0730  1.3141  0.5555
12903TIP3   OH260199   5.774   6.699   5.059 -0.4059  0.8485 -0.3673
12903TIP3    H160200   5.730   6.645   5.125 -2.7848 -1.0370 -3.2149
12903TIP3    H260201   5.860   6.658   5.047 -0.0678  1.0262  1.2549
12904TIP3   OH260202   1.201   5.866  16.712 -0.7975 -0.3344  0.2667
12904TIP3    H160203   1.260   5.927  16.755  0.9895 -2.4478  1.0218
12904TIP3    H260204   1.206   5.888  16.619  1.4344 -0.5789  0.2733
12905TIP3   OH260205   2.183   5.455  11.507  0.8275  0.2073 -0.8650
12905TIP3    H160206   2.244   5.414  11.567  0.9810 -0.2715 -1.3401
12905TIP3    H260207   2.106   5.399  11.508  1.2025 -0.3421 -1.8402
12906TIP3   OH260208   2.709   3.180   2.246 -0.3067  0.2176  0.5755
12906TIP3    H160209   2.725   3.255   2.189 -1.7836  0.4084  0.3610
12906TIP3    H260210   2.755   3.107   2.204 -0.3635  0.6165 -0.1974
12907TIP3   OH260211   2.468   1.211   0.153 -0.0945 -0.6719 -0.2587
12907TIP3    H160212   2.393   1.261   0.185 -0.5138 -0.5144 -1.4672
12907TIP3    H260213   2.483   1.145   0.221 -0.7492 -0.1467  0.4183
12908TIP3   OH260214   0.364   6.441   0.885  0.0549 -0.3954  0.4986
12908TIP3    H160215   0.316   6.518   0.855 -0.4419 -0.7511  0.3843
12908TIP3    H260216   0.455   6.471   0.889 -0.2756  0.5416  1.5701
12909TIP3   OH260217   2.509   6.722  11.099  0.4304 -0.2855  0.0765
12909TIP3    H160218   2.538   6.650  11.043  1.0160  0.3868 -0.4928
12909TIP3    H260219   2.571   6.793  11.083 -0.6345  0.6567 -0.0277
12910TIP3   OH260220   6.436   3.256   3.278  0.1832 -0.1577 -0.1940
12910TIP3    H160221   6.500   3.317   3.316 -0.2625  0.5999 -0.6294
12910TIP3    H260222   6.438   3.180   3.336 -0.2170  0.8198  1.1678
12911TIP3   OH260223   2.015   3.413   5.843 -0.5176  0.1311  0.1473
12911TIP3    H160224   2.107   3.427   5.823 -0.4068 -0.0104  0.5463
12911TIP3    H260225   1.973   3.399   5.758 -0.4111  1.5451 -0.1675
12912TIP3   OH260226   4.640   5.472  16.793  0.0712 -0.7861  0.4305
12912TIP3    H160227   4.619   5.516  16.710  0.4327 -1.3908  0.0116
12912TIP3    H260228   4.583   5.514  16.857 -1.1570 -1.2058 -0.3587
12913TIP3   OH260229   3.288   3.537  16.711 -0.1817  0.5765 -0.4147
12913TIP3    H160230   3.263   3.606  16.771 -1.4994 -0.0507 -0.2099
12913TIP3    H260231   3.236   3.461  16.738  2.4378 -1.0525  0.4809
12914TIP3   OH260232   2.589   5.232  16.099  0.6070  0.7342  0.0182
12914TIP3    H160233   2.551   5.146  16.081 -0.3043  0.4972  2.7265
12914TIP3    H260234   2.536   5.293  16.046 -0.2582 -0.1465 -0.1577
12915TIP3   OH260235   5.255   5.598   2.102  0.3636 -0.3802  0.6598
12915TIP3    H160236   5.270   5.535   2.031 -1.4045 -0.5465  0.4012
12915TIP3    H260237   5.243   5.682   2.059 -0.5180 -0.4451  0.7697
12916TIP3   OH260238   1.671   5.841  11.034  0.0818  0.7266 -0.2514
12916TIP3    H160239   1.635   5.771  10.980 -1.2630  1.1856 -0.0155
12916TIP3    H260240   1.655   5.812  11.124  0.8460  0.6931 -0.1189
12917TIP3   OH260241   3.700   4.675  13.285  0.2608  0.6939 -0.7757
12917TIP3    H160242   3.772   4.640  13.337  0.2113  0.7398 -0.6755
12917TIP3    H260243   3.711   4.635  13.198 -0.3967 -0.3973 -0.3824
12918TIP3   OH260244   4.799   3.700   4.865 -0.6811 -0.0018  0.1928
12918TIP3    H160245   4.796   3.634   4.796  0.5359 -0.2699  0.3742
12918TIP3    H260246   4.882   3.684   4.910 -2.0488 -0.7825  2.6384
12919TIP3   OH260247   0.573   5.097  13.774  0.4130  0.8658 -0.2474
12919TIP3    H160248   0.527   5.021  13.738 -0.9608  1.3381  0.4629
12919TIP3    H260249   0.631   5.124  13.703  0.7219 -0.6585 -0.6211
12920TIP3   OH260250   6.799   6.707  13.494  0.6477  0.5544  0.1057
12920TIP3    H160251   6.803   6.613  13.514  1.0709  0.1591 -1.6668
12920TIP3    H260252   6.858   6.718  13.420 -0.5599  1.9561 -0.6928
12921TIP3   OH260253   3.663   2.284   0.389  0.4462 -0.1201  0.5730
12921TIP3    H160254   3.714   2.352   0.433  1.0718 -0.5652  0.5547
12921TIP3    H260255   3.680   2.205   0.441  0.2421 -0.3983  0.2189
12922TIP3   OH260256   4.538   3.166  11.957 -0.3641  0.0440 -0.0944
12922TIP3    H160257   4.523   3.255  11.988 -0.0418  0.4241 -0.9912
12922TIP3    H260258   4.577   3.177  11.870 -0.5291 -0.9719 -0.3130
12923TIP3   OH260259   6.144   5.766  12.157 -0.1239 -0.5623  0.7043
12923TIP3    H160260   6.169   5.831  12.222 -1.5611  0.3352  0.4069
12923TIP3    H260261   6.227   5.737  12.119  0.6727 -0.4173  2.2597
12924TIP3   OH260262   1.539   3.785  11.350  0.2876  0.2949 -0.1635
12924TIP3    H160263   1.584   3.782  11.434 -0.0030 -0.2879 -0.0226
12924TIP3    H260264   1.607   3.765  11.286  0.2260 -0.6490  0.0529
12925TIP3   OH260265   1.510   4.146   0.931 -0.2208  0.1409  0.3139
12925TIP3    H160266   1.415   4.154   0.941 -0.4484 -2.7991  1.3480
12925TIP3    H260267   1.524   4.131   0.838 -0.8911 -0.4976  0.3082
12926TIP3   OH260268   2.845   2.961   4.227 -0.5754  0.3447  0.6062
12926TIP3    H160269   2.846   2.866   4.221 -0.0788  0.4216 -1.7602
12926TIP3    H260270   2.767   2.982   4.278  0.2460 -1.3389  2.6769
12927TIP3   OH260271   3.987   4.418  11.534  0.3583 -0.1878  0.1073
12927TIP3    H160272   3.925   4.348  11.553  1.7941 -2.1952 -1.9988
12927TIP3    H260273   4.005   4.458  11.619 -2.0677 -0.9713  1.0770
12928TIP3   OH260274   5.286   4.010  10.957  0.2348  0.7880  0.2405
12928TIP3    H160275   5.271   4.048  10.871  0.8974 -0.7971 -0.6237
12928TIP3    H260276   5.336   4.077  11.005  2.0048  0.7771 -1.4615
12929TIP3   OH260277   4.463   3.780   2.966  0.3876  0.4427  0.6478
12929TIP3    H160278   4.488   3.695   3.004  0.6931 -0.2777 -1.0867
12929TIP3    H260279   4.408   3.758   2.892  0.1063  1.8012  0.4313
12930TIP3   OH260280   6.431   4.633   1.375  0.2786 -0.4366  0.0505
12930TIP3    H160281   6.524   4.630   1.354  0.5137  4.0887 -0.6057
12930TIP3    H260282   6.428   4.668   1.464 -0.7636 -0.2937 -0.0274
12931TIP3   OH260283   2.093   0.239   1.592 -0.2190 -0.0527  0.0581
12931TIP3    H160284   2.000   0.241   1.615 -0.7312 -0.1618 -1.8670
12931TIP3    H260285   2.131   0.312   1.641 -1.2159 -0.2555  1.1968
12932TIP3   OH260286   2.073   0.664   0.389  0.1065  0.1113 -0.0133
12932TIP3    H160287   2.048   0.752   0.363 -1.0823 -0.1907  0.0504
12932TIP3    H260288   2.169   0.663   0.382 -0.0046  0.7194 -2.1195
12933TIP3   OH260289   4.405   6.650  12.897 -0.0661  0.0642  0.4271
12933TIP3    H160290   4.328   6.649  12.840  0.7574  1.6337 -0.7817
12933TIP3    H260291   4.394   6.573  12.952 -1.6021 -0.7517 -0.9121
12934TIP3   OH260292   4.204   6.108  11.545 -0.2371  0.6030 -0.7485
12934TIP3    H160293   4.185   6.125  11.452 -2.4739 -0.3183 -0.5259
12934TIP3    H260294   4.128   6.059  11.576  1.1120 -0.3499  1.2477
12935TIP3   OH260295   5.366   0.026   0.713 -0.1237 -0.4077 -0.3354
12935TIP3    H160296   5.382   0.019   0.807  1.1366 -0.9230 -0.5697
12935TIP3    H260297   5.445   0.069   0.679 -1.0644  0.8324 -1.0148
12936TIP3   OH260298   4.359   5.437  16.061  0.2757  0.6523  0.1238
12936TIP3    H160299   4.322   5.525  16.051  1.2713  0.8802 -2.1292
12936TIP3    H260300   4.432   5.449  16.122  1.2424  1.7159 -1.1803
12937TIP3   OH260301   0.937   4.890   4.769  0.2535 -0.3508  0.4246
12937TIP3    H160302   0.875   4.820   4.787  1.0028 -1.3887 -0.7703
12937TIP3    H260303   1.021   4.845   4.758  0.5448  0.5541 -1.5998
12938TIP3   OH260304   3.030   1.520  14.507 -0.3553  0.1654 -0.5745
12938TIP3    H160305   2.951   1.528  14.559 -0.0459  0.3476 -0.1229
12938TIP3    H260306   3.082   1.453  14.551  0.2779  0.9102 -0.1499
12939TIP3   OH260307   5.690   6.262   5.584 -0.0923  0.0266  0.1072
12939TIP3    H160308   5.730   6.349   5.586  2.9839 -1.2668 -0.6157
12939TIP3    H260309   5.670   6.242   5.675  0.7439  0.8359  0.4819
12940TIP3   OH260310   6.389   5.293   0.815 -0.5611  0.0254 -0.2396
12940TIP3    H160311   6.464   5.236   0.797 -0.8115 -0.5252  0.3761
12940TIP3    H260312   6.416   5.379   0.784  0.1072 -0.2813 -0.5428
12941TIP3   OH260313   1.994   3.616  12.206 -0.0005 -0.4205  0.8988
12941TIP3    H160314   2.061   3.618  12.274 -1.4195 -2.5558  2.4527
12941TIP3    H260315   2.036   3.573  12.132  0.6168 -0.9306  1.5351
12942TIP3   OH260316   0.697   3.552  13.815 -0.7848 -0.1344  0.1917
12942TIP3    H160317   0.618   3.536  13.866 -0.6075  1.8002  1.1691
12942TIP3    H260318   0.727   3.638  13.843  0.5685  0.0525 -1.6078
12943TIP3   OH260319   4.148   4.426  14.355  0.1791 -0.2786 -0.1235
12943TIP3    H160320   4.231   4.445  14.399  0.6014 -0.7239 -0.7171
12943TIP3    H260321   4.163   4.343  14.310 -1.1460 -1.2488  1.1482
12944TIP3   OH260322   1.353   2.611  16.359  0.0997  0.2406  0.8854
12944TIP3    H160323   1.388   2.553  16.426 -1.3788  0.8969  2.2794
12944TIP3    H260324   1.343   2.696  16.403 -4.3586 -0.1682  1.0615
12945TIP3   OH260325   5.073   2.395   0.757  0.0354 -0.1002  0.4272
12945TIP3    H160326   5.062   2.410   0.851  2.5807 -0.3147  0.8503
12945TIP3    H260327   4.985   2.376   0.725 -0.7882 -0.9714  2.9376
12946TIP3   OH260328   1.547   3.806  12.747 -0.0113 -0.1655 -0.0516
12946TIP3    H160329   1.592   3.755  12.815 -0.2553 -0.8818 -0.4115
12946TIP3    H260330   1.514   3.740  12.686 -0.5228  0.4209 -0.4216
12947TIP3   OH260331   0.251   2.280   2.315 -0.3385  0.0687  0.4095
12947TIP3    H160332   0.243   2.290   2.220  0.6061  2.2226  0.5112
12947TIP3    H260333   0.329   2.226   2.327  1.7394  2.7708 -0.0587
12948TIP3   OH260334   4.362   6.425   2.700 -0.3150 -0.0442 -0.9317
12948TIP3    H160335   4.428   6.422   2.770 -0.6851  0.3601 -0.5643
12948TIP3    H260336   4.286   6.467   2.740 -0.8383 -0.6076 -1.3244
12949TIP3   OH260337   5.795   4.975  16.018  0.4667 -0.0422  0.2334
12949TIP3    H160338   5.840   5.024  15.949  0.1671  0.2864  0.2646
12949TIP3    H260339   5.702   4.995  16.005  0.3206 -0.7423  0.1440
12950TIP3   OH260340   4.298   0.827  11.648 -0.2422 -0.0602  0.8391
12950TIP3    H160341   4.254   0.746  11.620  0.6852  0.1350 -1.3988
12950TIP3    H260342   4.247   0.897  11.606  1.6630  0.2069 -1.1778
12951TIP3   OH260343   1.013   5.644   3.822  0.1932 -0.3227  0.4618
12951TIP3    H160344   1.024   5.625   3.729 -1.4422  0.5195  0.0577
12951TIP3    H260345   1.021   5.559   3.865 -0.4439 -0.9568 -0.6140
12952TIP3   OH260346   5.789   2.012   2.559  0.4696  0.1482  0.0771
12952TIP3    H160347   5.705   2.057   2.569  0.9226  1.6141 -1.9899
12952TIP3    H260348   5.766   1.928   2.520 -0.1258  0.1052  0.5086
12953TIP3   OH260349   0.080   4.575  12.032  0.0805  0.0846  0.0676
12953TIP3    H160350  -0.005   4.559  11.990  1.3871  0.6851 -3.0326
12953TIP3    H260351   0.070   4.659  12.076 -0.7203  0.5295 -0.9336
12954TIP3   OH260352   6.370   3.538  16.920 -0.5213  0.3666  0.2336
12954TIP3    H160353   6.405   3.623  16.946  1.9104 -0.4603 -0.1041
12954TIP3    H260354   6.344   3.550  16.829  0.5730  0.5818 -0.0708
12955TIP3   OH260355   1.888   2.723  11.273 -0.2774  0.3601  0.1431
12955TIP3    H160356   1.866   2.648  11.218  1.8996 -0.6642  0.5622
12955TIP3    H260357   1.900   2.795  11.212  2.0693 -0.7499 -0.8262
12956TIP3   OH260358   6.644   4.787  11.032 -0.3635 -0.5320  0.3288
12956TIP3    H160359   6.577   4.834  10.984 -1.6169 -1.0906  1.4735
12956TIP3    H260360   6.639   4.697  10.999  1.3325 -0.1552 -1.1229
12957TIP3   OH260361   5.356   2.942   0.882 -0.1513  0.4718 -0.3610
12957TIP3    H160362   5.350   2.861   0.830 -0.4225  0.1032  0.2365
12957TIP3    H260363   5.430   2.927   0.941 -0.0310  0.7709 -0.4362
12958TIP3   OH260364   5.114   6.563  13.983  0.0749  0.7770  0.2200
12958TIP3    H160365   5.181   6.516  14.033  0.9381  2.1789  0.4600
12958TIP3    H260366   5.164   6.626  13.930 -1.0875  2.8400  1.4431
12959TIP3   OH260367   5.385   1.887   1.799 -0.7739 -0.0169 -0.2946
12959TIP3    H160368   5.299   1.923   1.819 -1.3325 -0.7912 -1.2388
12959TIP3    H260369   5.368   1.798   1.768  0.2105  0.3190 -1.9218
12960TIP3   OH260370   1.549   2.956   3.178 -0.3277  0.0812  0.1991
12960TIP3    H160371   1.465   2.964   3.222 -0.6568  1.1619 -0.5653
12960TIP3    H260372   1.527   2.954   3.085  0.4349 -0.6614  0.0244
12961TIP3   OH260373   1.582   3.016  14.108 -0.2962  0.1500 -0.1463
12961TIP3    H160374   1.490   2.991  14.100 -0.9415  2.2514  0.1607
12961TIP3    H260375   1.619   2.952  14.170 -0.8965 -2.1671 -2.0408
12962TIP3   OH260376   4.778   4.982   5.019  0.5370  0.4541 -0.1462
12962TIP3    H160377   4.736   4.899   5.041  2.1059 -0.1577  0.6552
12962TIP3    H260378   4.735   5.010   4.938  1.0906 -1.9426 -1.3414
12963TIP3   OH260379   5.845   0.683   4.944  0.8092  0.1387  0.3622
12963TIP3    H160380   5.770   0.737   4.917 -1.1806 -1.4361  2.3957
12963TIP3    H260381   5.844   0.609   4.883  0.6336  0.0750  0.4403
12964TIP3   OH260382   1.320   4.548   1.488 -0.4061  0.3446 -0.0714
12964TIP3    H160383   1.263   4.625   1.479 -1.8735 -0.7031  0.0352
12964TIP3    H260384   1.383   4.557   1.415  1.4127  3.1744  1.6485
12965TIP3   OH260385   0.622   5.408  11.072  0.2740 -0.1694  0.2034
12965TIP3    H160386   0.551   5.410  11.007 -0.4918  2.0141  1.0304
12965TIP3    H260387   0.690   5.354  11.031  0.2540  1.8962 -2.8898
12966TIP3   OH260388   2.394   0.689   0.421 -0.8497  0.4067 -0.0626
12966TIP3    H160389   2.435   0.776   0.423  0.4624 -0.1988  0.5354
12966TIP3    H260390   2.414   0.656   0.333 -0.4061  0.2959  0.0738
12967TIP3   OH260391   5.176   5.885   0.451  0.2269 -0.4541 -0.8435
12967TIP3    H160392   5.109   5.920   0.511  0.4333 -1.4983  0.0445
12967TIP3    H260393   5.126   5.836   0.386  0.0783 -3.6406  1.3827
12968TIP3   OH260394   5.095   3.992  12.963  0.3774  0.0327  0.1828
12968TIP3    H160395   5.170   3.987  13.022  0.0575 -1.5849  0.5024
12968TIP3    H260396   5.022   3.955  13.013  0.3770 -2.6693 -1.5761
12969TIP3   OH260397   4.929   1.766   5.182  0.2779  0.0330 -0.2600
12969TIP3    H160398   4.938   1.695   5.120  0.4415  1.6155 -2.1477
12969TIP3    H260399   4.835   1.786   5.183  0.2314 -0.1975  0.2656
12970TIP3   OH260400   4.394   5.142   5.323  0.0756 -0.3558  0.4290
12970TIP3    H160401   4.461   5.154   5.256  0.5656 -0.2608  0.9269
12970TIP3    H260402   4.381   5.047   5.328 -2.1318 -0.2876 -1.8863
12971TIP3   OH260403   6.286   5.636   3.554 -0.0611 -0.2275  0.7251
12971TIP3    H160404   6.333   5.637   3.471 -1.6279 -1.6896 -0.2268
12971TIP3    H260405   6.249   5.724   3.562 -0.3836 -0.2407 -0.4318
12972TIP3   OH260406   1.318   5.698  12.141  0.5029 -0.0370  0.5314
12972TIP3    H160407   1.336   5.772  12.199  0.2479 -0.4020  1.0843
12972TIP3    H260408   1.249   5.649  12.185  0.0785 -0.1521 -0.2421
12973TIP3   OH260409   4.134   2.856   5.100 -0.1261 -0.3714 -0.5136
12973TIP3    H160410   4.072   2.813   5.160  0.0808 -0.2862 -0.2427
12973TIP3    H260411   4.079   2.885   5.027 -0.3353 -0.7222 -0.5007
12974TIP3   OH260412   3.559   0.198   4.379 -0.0833 -0.4328 -0.4570
12974TIP3    H160413   3.513   0.114   4.385 -0.1151 -0.3502  0.6419
12974TIP3    H260414   3.651   0.174   4.366 -0.1693 -0.6237 -0.7230
12975TIP3   OH260415   2.579   6.024  15.846  0.4659  0.0193 -0.4497
12975TIP3    H160416   2.512   6.089  15.866  0.1685  0.0039 -1.3558
12975TIP3    H260417   2.639   6.028  15.921  0.7296  1.6922 -0.7039
12976TIP3   OH260418   1.833   0.618  13.378  1.0430  0.0201 -0.3177
12976TIP3    H160419   1.828   0.672  13.457 -1.1308  1.7105 -1.4723
12976TIP3    H260420   1.812   0.679  13.307 -4.5701 -2.6811 -1.5335
12977TIP3   OH260421   4.690   4.934  12.476 -0.1471 -0.7285  0.0561
12977TIP3    H160422   4.645   5.011  12.513 -1.3504 -0.8686 -1.0197
12977TIP3    H260423   4.783   4.957  12.479 -0.4919  0.8940 -0.4528
12978TIP3   OH260424   6.102   4.125   0.514  0.0233  0.0219 -0.9220
12978TIP3    H160425   6.090   4.186   0.441 -1.7478  0.7607 -0.0819
12978TIP3    H260426   6.034   4.149   0.577  1.0777 -1.0163  0.7031
12979TIP3   OH260427   0.003   6.393  13.811  0.1195  0.8866 -0.7603
12979TIP3    H160428   0.069   6.460  13.792  0.4875  0.4306 -1.0949
12979TIP3    H260429   0.022   6.366  13.901 -1.6566  3.0835  0.3998
12980TIP3   OH260430   5.405   5.383   4.676  0.4416  0.2006 -0.4534
12980TIP3    H160431   5.400   5.466   4.724 -0.7826 -0.3984  0.4862
12980TIP3    H260432   5.372   5.317   4.737  1.8344 -1.0827 -1.0210
12981TIP3   OH260433   3.271   0.643  11.575 -0.8439 -0.2529 -0.5221
12981TIP3    H160434   3.196   0.666  11.521  0.4517 -0.4940 -2.5355
12981TIP3    H260435   3.344   0.639  11.514  1.1104  1.3172  1.5364
12982TIP3   OH260436   5.004   5.351   4.526  0.1336 -0.0507 -0.0249
12982TIP3    H160437   4.917   5.375   4.495 -0.5381  0.3022  1.9636
12982TIP3    H260438   5.039   5.431   4.564  0.9638 -0.4122 -0.0040
12983TIP3   OH260439   4.414   3.594  13.463 -0.3427 -0.1656 -0.7554
12983TIP3    H160440   4.336   3.636  13.500  0.0053  0.2273 -0.4549
12983TIP3    H260441   4.447   3.657  13.399  0.9049  0.6216  0.5928
12984TIP3   OH260442   0.067   2.425  12.942 -0.5584 -0.1144 -0.2560
12984TIP3    H160443   0.118   2.373  12.880 -0.4801  1.0310 -1.1905
12984TIP3    H260444   0.025   2.360  12.999  0.6431 -1.1278 -0.4905
12985TIP3   OH260445   6.070   2.102  12.786 -0.6839 -0.1643 -0.4250
12985TIP3    H160446   5.984   2.063  12.774 -0.4652 -0.8665  0.2320
12985TIP3    H260447   6.128   2.028  12.801  0.5419  0.0498 -3.3952
12986TIP3   OH260448   2.993   0.517  16.752  0.4030 -0.4283  0.4458
12986TIP3    H160449   3.059   0.535  16.685 -0.2261 -0.2214 -0.1398
12986TIP3    H260450   2.981   0.600  16.798  1.3511 -0.7535  1.3008
12987TIP3   OH260451   3.919   3.106  16.896 -0.0431 -0.4636 -0.2163
12987TIP3    H160452   3.893   3.174  16.832  1.5711 -0.5877 -1.0529
12987TIP3    H260453   3.842   3.095  16.951 -1.2953  0.1065 -1.7616
12988TIP3   OH260454   4.917   4.030  10.674  0.4136 -0.5561 -0.0684
12988TIP3    H160455   4.943   3.943  10.642  0.9531  0.0015 -1.1890
12988TIP3    H260456   4.866   4.067  10.602  0.9465  0.4120  0.0404
12989TIP3   OH260457   2.439   2.732  13.564  0.0248 -0.0525 -0.2888
12989TIP3    H160458   2.411   2.790  13.635 -0.2814 -1.0391  0.4210
12989TIP3    H260459   2.467   2.791  13.495 -1.0619  0.9547  0.0922
12990TIP3   OH260460   4.890   2.633  15.728 -0.7066 -0.0407  0.8290
12990TIP3    H160461   4.895   2.714  15.778  0.3167 -0.8998  2.1751
12990TIP3    H260462   4.969   2.634  15.673 -2.3415  1.4049 -1.6845
12991TIP3   OH260463   5.687   0.372   6.529 -0.1623  0.5162 -0.3457
12991TIP3    H160464   5.732   0.294   6.497 -1.1145 -0.3806  0.4343
12991TIP3    H260465   5.703   0.373   6.623 -0.6958  0.9055 -0.2528
12992TIP3   OH260466   2.994   2.866   2.715 -0.0557 -0.0928  0.1192
12992TIP3    H160467   3.056   2.917   2.768 -0.2612 -1.2606  1.5402
12992TIP3    H260468   2.996   2.908   2.629  2.9841 -0.3000 -0.0209
12993TIP3   OH260469   5.780   2.144  16.185  0.4127  0.3190  0.2070
12993TIP3    H160470   5.739   2.105  16.262  1.2620  3.3578  2.3740
12993TIP3    H260471   5.852   2.196  16.220  0.0711  2.8870 -2.5020
12994TIP3   OH260472   2.671   0.550  14.180  0.4123 -0.3244  0.4286
12994TIP3    H160473   2.584   0.521  14.155 -0.2187 -0.9764  3.1526
12994TIP3    H260474   2.726   0.473  14.170  0.6422 -0.0330 -0.8292
12995TIP3   OH260475   5.885   5.041  15.168 -0.1100 -0.2455  0.5865
12995TIP3    H160476   5.827   5.023  15.095 -0.3052  0.1589  0.6397
12995TIP3    H260477   5.927   4.957  15.187 -1.5220 -0.8270  1.2959
12996TIP3   OH260478   2.772   4.964   0.871  0.3064  0.0196  0.3847
12996TIP3    H160479   2.861   4.979   0.904 -0.2711  0.6488  1.7388
12996TIP3    H260480   2.756   5.040   0.814  0.9068 -0.5044 -0.5130
12997TIP3   OH260481   6.372   4.330   5.358  0.0753 -0.0803  0.0945
12997TIP3    H160482   6.333   4.385   5.427 -0.6186 -0.6040  0.1345
12997TIP3    H260483   6.392   4.392   5.288 -2.0195  0.0704 -0.4369
12998TIP3   OH260484   5.257   4.344  13.090  0.2693 -0.1591 -0.6108
12998TIP3    H160485   5.291   4.375  13.006  0.3838 -1.6418 -1.1534
12998TIP3    H260486   5.268   4.249  13.086  3.1401 -0.1265  2.3042
12999TIP3   OH260487   3.682   3.591   1.526 -0.2232  0.2476 -0.0904
12999TIP3    H160488   3.601   3.541   1.537  1.3306 -2.6640 -1.0499
12999TIP3    H260489   3.693   3.637   1.609 -0.6849 -2.7016  1.7417
13000TIP3   OH260490   3.416   2.502   2.060  0.0264  0.6325  0.4695
13000TIP3    H160491   3.445   2.555   1.986  1.9425 -2.3839 -1.0958
13000TIP3    H260492   3.354   2.439   2.023  0.1071 -0.1991  1.6635
13001TIP3   OH260493   0.996   0.649  17.046 -0.3813  0.0933 -0.6126
13001TIP3    H160494   1.090   0.655  17.062 -0.3374  1.6506 -1.3339
13001TIP3    H260495   0.986   0.671  16.954 -1.3758 -1.0485 -0.8038
13002TIP3   OH260496   3.963   0.212   3.033 -0.4850 -0.0346  0.4624
13002TIP3    H160497   3.927   0.171   3.112 -1.2834 -1.3215 -0.5279
13002TIP3    H260498   3.962   0.306   3.052 -0.1826 -0.3416  2.1601
13003TIP3   OH260499   2.832   4.481   2.294  0.1006 -0.0342 -0.5012
13003TIP3    H160500   2.837   4.528   2.211 -0.5313  1.7021  0.4009
13003TIP3    H260501   2.759   4.419   2.283  0.0513  0.1532 -1.2465
13004TIP3   OH260502   1.471   4.765   5.903  0.0282 -0.2514 -0.0127
13004TIP3    H160503   1.529   4.740   5.832  0.6871 -0.2597  0.5187
13004TIP3    H260504   1.424   4.842   5.870  0.4101 -0.1870 -0.4144
13005TIP3   OH260505   4.657   5.218  12.436 -0.4683 -0.5510 -0.2956
13005TIP3    H160506   4.706   5.175  12.366  1.3590 -0.1163  0.6744
13005TIP3    H260507   4.653   5.310  12.409  0.2958 -0.3706  0.1834
13006TIP3   OH260508   1.596   0.963   4.979  0.1099  0.2088  0.3147
13006TIP3    H160509   1.615   1.031   4.914 -0.9089 -0.2163 -0.4606
13006TIP3    H260510   1.520   0.918   4.944  1.7744 -2.4832 -0.1105
13007TIP3   OH260511   5.147   5.311  13.311  0.7412  0.0959  0.6141
13007TIP3    H160512   5.061   5.350  13.327  0.6955 -0.4412  1.7227
13007TIP3    H260513   5.206   5.386  13.302 -0.0210  0.5107 -1.3945
13008TIP3   OH260514   0.670   6.206  12.808 -0.0952  0.7781  0.4468
13008TIP3    H160515   0.658   6.295  12.775 -0.0919  1.1789  1.5044
13008TIP3    H260516   0.611   6.152  12.754 -1.2341  1.6380  0.8046
13009TIP3   OH260517   5.596   0.824   0.362 -0.4863  0.5891 -0.0198
13009TIP3    H160518   5.588   0.920   0.364  0.6353  0.7242 -0.9975
13009TIP3    H260519   5.582   0.801   0.270 -0.9331 -0.2170  0.2407
13010TIP3   OH260520   3.479   0.396   3.164  0.2170  0.1371  0.0272
13010TIP3    H160521   3.536   0.323   3.189  0.6096  0.7431  0.9969
13010TIP3    H260522   3.482   0.454   3.240  1.0155  1.8317 -1.2462
13011TIP3   OH260523   4.790   4.685   1.021  0.1018 -0.0912 -0.1652
13011TIP3    H160524   4.826   4.619   1.080  1.9628  1.6075  0.7152
13011TIP3    H260525   4.742   4.635   0.955 -0.6856 -2.1493  1.8444
13012TIP3   OH260526   5.566   1.838  14.626  0.4194 -0.1807 -0.1416
13012TIP3    H160527   5.587   1.746  14.606 -1.0771 -0.3769 -0.9585
13012TIP3    H260528   5.565   1.842  14.722  3.3879 -0.2720  0.0084
13013TIP3   OH260529   6.669   6.773  14.247 -0.8154  0.1931 -0.3846
13013TIP3    H160530   6.715   6.815  14.319 -0.2309  1.0948 -1.2548
13013TIP3    H260531   6.576   6.789  14.264 -0.7085  0.0381  0.3656
13014TIP3   OH260532   3.972   0.793  16.781 -0.3372 -0.2592  0.0384
13014TIP3    H160533   3.941   0.877  16.746  0.7545 -0.9828 -3.0084
13014TIP3    H260534   3.909   0.729  16.748  0.4915 -0.9562 -0.1976
13015TIP3   OH260535   1.208   5.583  16.552  0.1866  0.4533  0.4211
13015TIP3    H160536   1.125   5.631  16.549  0.7546  1.5054  1.0115
13015TIP3    H260537   1.182   5.492  16.563 -0.8915  0.8357  1.2969
13016TIP3   OH260538   0.304   5.134  11.656 -0.7497 -0.0752 -0.7550
13016TIP3    H160539   0.281   5.212  11.604  0.1672  1.3440  0.8673
13016TIP3    H260540   0.393   5.151  11.686  0.5582 -3.0442 -2.5846
13017TIP3   OH260541   1.356   2.977   0.053  0.2820 -0.6239 -0.3796
13017TIP3    H160542   1.396   2.912   0.111 -1.4809 -1.4085 -0.0002
13017TIP3    H260543   1.356   3.058   0.104 -0.0477 -0.9899  0.2093
13018TIP3   OH260544   5.153   1.017  16.864 -0.1008  0.3273 -0.1939
13018TIP3    H160545   5.234   1.020  16.915  0.6442 -0.0389 -1.3093
13018TIP3    H260546   5.163   1.088  16.799 -0.0039 -0.6405 -1.2725
13019TIP3   OH260547   4.860   2.740   5.295 -0.5027 -0.1883 -0.3675
13019TIP3    H160548   4.868   2.660   5.242 -0.4816  0.2965 -1.1106
13019TIP3    H260549   4.765   2.755   5.300 -0.5985 -1.1487  1.1472
13020TIP3   OH260550   1.546   2.179   0.751  0.3151 -0.3318 -0.0606
13020TIP3    H160551   1.618   2.221   0.799 -0.9335 -0.2901  1.8943
13020TIP3    H260552   1.582   2.096   0.721  0.9874 -0.6377  1.5012
13021TIP3   OH260553   6.633   5.997   1.269  0.2393 -0.4654  0.4457
13021TIP3    H160554   6.638   5.971   1.177 -1.5155 -0.2575  0.2509
13021TIP3    H260555   6.622   6.092   1.266 -0.7466 -0.5587  0.8164
13022TIP3   OH260556   0.464   6.477   0.242 -0.1124  0.4124 -0.0866
13022TIP3    H160557   0.500   6.546   0.298 -0.1693 -1.7464  2.8003
13022TIP3    H260558   0.370   6.491   0.245 -0.0522  0.9782 -0.6204
13023TIP3   OH260559   4.768   2.237   4.316 -0.7676 -0.3457 -0.3296
13023TIP3    H160560   4.684   2.250   4.272  0.1060  2.6798 -1.3423
13023TIP3    H260561   4.780   2.317   4.367  1.3217 -0.8883  0.1049
13024TIP3   OH260562   1.878   0.110   0.924  0.1011 -0.2451  0.0032
13024TIP3    H160563   1.926   0.138   0.846 -1.6633 -0.9792 -1.4412
13024TIP3    H260564   1.934   0.043   0.964  0.9061 -0.0842 -0.8248
13025TIP3   OH260565   3.201   4.142   3.921  0.3585 -0.2117 -0.0037
13025TIP3    H160566   3.127   4.190   3.957  0.7353 -0.7098  1.5410
13025TIP3    H260567   3.177   4.050   3.932 -0.1206 -0.4236 -2.4085
13026TIP3   OH260568   3.192   5.258  16.839  0.1928  0.6162 -0.1950
13026TIP3    H160569   3.214   5.330  16.779  1.4812  0.8915  0.5819
13026TIP3    H260570   3.212   5.179  16.789 -0.7382  0.7834 -0.8681
13027TIP3   OH260571   3.313   5.261  11.729 -0.3180  0.0161  0.3524
13027TIP3    H160572   3.289   5.185  11.783 -0.8070  0.7584  1.2067
13027TIP3    H260573   3.386   5.230  11.675 -0.9880 -1.2771  0.1491
13028TIP3   OH260574   0.490   4.596  16.989  0.0336  0.7986 -0.0914
13028TIP3    H160575   0.531   4.568  16.907  1.0613 -1.3133  1.0739
13028TIP3    H260576   0.562   4.630  17.042 -0.2440  0.1081  0.7542
13029TIP3   OH260577   3.101   5.851   2.803 -0.1378  0.1584 -0.0625
13029TIP3    H160578   3.082   5.877   2.893  0.0966 -0.7396  0.2575
13029TIP3    H260579   3.103   5.934   2.754 -1.0563  0.5907  0.5967
13030TIP3   OH260580   5.713   1.790   3.737  0.7163  0.1488  0.4173
13030TIP3    H160581   5.743   1.860   3.796  1.4061  0.1504  0.0626
13030TIP3    H260582   5.767   1.799   3.659 -0.1235  0.0781 -0.1824
13031TIP3   OH260583   5.973   1.448  17.092 -0.3335 -0.2851  0.2214
13031TIP3    H160584   6.022   1.371  17.062  1.2142  0.5265  0.5635
13031TIP3    H260585   6.030   1.522  17.071 -1.6735  0.7631  0.1477
13032TIP3   OH260586   3.614   3.574  17.095 -0.2904  0.3406 -0.8186
13032TIP3    H160587   3.658   3.628  17.030 -0.4112  0.0631 -1.1321
13032TIP3    H260588   3.627   3.621  17.177  0.7178  0.1872 -0.8735
13033TIP3   OH260589   4.584   3.344  14.489  0.3915 -0.1356  0.4147
13033TIP3    H160590   4.583   3.410  14.558  0.4825 -0.9065  1.1727
13033TIP3    H260591   4.626   3.387  14.414 -0.6715  1.0636  0.4716
13034TIP3   OH260592   2.754   2.831  13.804 -0.4483 -0.0819 -0.1128
13034TIP3    H160593   2.806   2.772  13.749  1.0119  0.6921  0.3866
13034TIP3    H260594   2.692   2.774  13.848  0.4802 -1.1695 -0.1599
13035TIP3   OH260595   2.525   5.034   1.717 -0.2085  0.3428  0.2631
13035TIP3    H160596   2.520   5.096   1.790 -0.5996  1.5307 -0.7405
13035TIP3    H260597   2.611   4.993   1.726  0.1861  1.2516  0.7726
13036TIP3   OH260598   4.319   4.721  12.497 -0.2429 -0.7055 -0.2064
13036TIP3    H160599   4.362   4.723  12.412  1.7790 -2.2760  0.7006
13036TIP3    H260600   4.318   4.813  12.526  1.8468 -0.4971 -0.6259
13037TIP3   OH260601   5.008   5.238  12.542 -0.0495 -0.7723  1.0727
13037TIP3    H160602   5.030   5.206  12.630 -1.0521 -0.6042  1.4020
13037TIP3    H260603   4.937   5.301  12.557  0.2227 -0.2453  0.2033
13038TIP3   OH260604   5.747   0.522   2.272  0.1568 -0.9589 -0.5224
13038TIP3    H160605   5.670   0.515   2.215 -0.0942 -1.9269 -0.0839
13038TIP3    H260606   5.806   0.581   2.225 -1.2507  0.6420 -0.4050
13039TIP3   OH260607   0.908   5.614  17.141  0.3509  0.1950 -0.2294
13039TIP3    H160608   0.952   5.536  17.175 -0.5731 -0.0549  0.4194
13039TIP3    H260609   0.934   5.684  17.202  2.2851  0.7406 -1.5723
13040TIP3   OH260610   4.905   5.821  16.116  0.2771  0.0886 -0.2813
13040TIP3    H160611   4.855   5.747  16.081  0.5289 -1.2392  1.9685
13040TIP3    H260612   4.852   5.898  16.094 -0.3679 -0.7851 -2.0283
13041TIP3   OH260613   2.279   4.169  12.781  0.1612 -0.3157 -0.0541
13041TIP3    H160614   2.355   4.149  12.836  2.0030 -0.1854 -2.3935
13041TIP3    H260615   2.273   4.264  12.782 -0.7861 -0.3556  1.0679
13042TIP3   OH260616   4.902   2.526   2.435 -0.2691  0.5067  0.2440
13042TIP3    H160617   4.837   2.555   2.498  0.5505  1.0880  0.8469
13042TIP3    H260618   4.958   2.603   2.420 -0.2326  0.2803 -0.9245
13043TIP3   OH260619   1.411   1.278  13.425  0.0671 -0.0708 -0.5230
13043TIP3    H160620   1.437   1.322  13.345 -0.4750  1.2114 -0.0163
13043TIP3    H260621   1.338   1.222  13.398 -0.7042  1.0199 -0.7860
13044TIP3   OH260622   3.341   4.561  15.135 -0.1085 -0.6177 -0.3194
13044TIP3    H160623   3.433   4.583  15.119 -0.2262  0.4514  0.4335
13044TIP3    H260624   3.321   4.599  15.220 -1.4685 -0.1683 -0.8040
13045TIP3   OH260625   1.459   3.194   1.431 -0.0755  0.4256 -0.2627
13045TIP3    H160626   1.547   3.158   1.444  0.0800  0.3130 -1.5229
13045TIP3    H260627   1.415   3.179   1.514  0.4481 -1.3819 -0.2706
13046TIP3   OH260628   1.688   4.201  13.756 -0.4251  0.3602  0.0421
13046TIP3    H160629   1.659   4.160  13.675  0.6167  0.6603 -0.5088
13046TIP3    H260630   1.687   4.131  13.821 -0.0880 -0.1911 -0.5333
13047TIP3   OH260631   5.009   0.417   0.980 -0.3676  0.0513  0.2301
13047TIP3    H160632   5.068   0.492   0.971 -3.0531  2.3673  0.8378
13047TIP3    H260633   4.995   0.387   0.890 -1.1324  1.8649 -0.2900
13048TIP3   OH260634   1.294   2.101  14.412  0.0612  0.8031 -0.0677
13048TIP3    H160635   1.281   2.178  14.467 -1.2806 -0.1741  1.0654
13048TIP3    H260636   1.373   2.121  14.361 -1.0559  3.5240 -0.9323
13049TIP3   OH260637   5.037   3.638  15.747  0.2561 -0.3584  0.2935
13049TIP3    H160638   5.029   3.546  15.724 -0.5993 -0.2876  0.2807
13049TIP3    H260639   5.116   3.643  15.801  0.0034 -1.1820  0.7442
13050TIP3   OH260640   1.241   3.017   3.295  0.9733  0.3611 -0.3984
13050TIP3    H160641   1.168   3.012   3.357  0.6773  0.5338 -0.7343
13050TIP3    H260642   1.236   2.935   3.246  0.7097  0.5863 -0.7510
13051TIP3   OH260643   1.506   0.010   5.689  0.2755  0.8191  0.3161
13051TIP3    H160644   1.502  -0.070   5.741  0.4261  1.0014  0.6104
13051TIP3    H260645   1.592   0.006   5.646 -0.1289  0.3349 -0.4616
13052TIP3   OH260646   4.756   0.021   3.142  0.4681 -0.0073  0.6247
13052TIP3    H160647   4.708   0.016   3.060  1.4709  0.7045 -0.0292
13052TIP3    H260648   4.837  -0.028   3.125  1.0183  0.7734  0.9258
13053TIP3   OH260649   0.005   3.198   3.712  0.1291  0.0651  0.0978
13053TIP3    H160650   0.033   3.107   3.709 -0.5785 -0.1348 -0.8695
13053TIP3    H260651  -0.013   3.221   3.621  0.4824  1.2387  0.2983
13054TIP3   OH260652   3.109   6.078   2.645 -0.4072  0.0257 -0.5475
13054TIP3    H160653   3.117   6.140   2.573  1.5976 -0.1422 -0.5180
13054TIP3    H260654   3.073   6.130   2.717 -2.1519  0.2638 -1.5513
13055TIP3   OH260655   1.912   1.202  16.434 -0.5906  0.2495 -0.0666
13055TIP3    H160656   1.952   1.172  16.352 -2.1633 -1.5990 -0.2467
13055TIP3    H260657   1.869   1.124  16.469 -1.6593  1.4786  1.5081
13056TIP3   OH260658   0.235   4.288   4.804 -0.2790  0.3671 -0.1009
13056TIP3    H160659   0.285   4.332   4.872 -0.3274  0.1247  0.0918
13056TIP3    H260660   0.263   4.330   4.723  0.3027  0.1714 -0.0040
13057TIP3   OH260661   3.415   0.234   1.411  0.0818 -0.0265  0.1547
13057TIP3    H160662   3.385   0.315   1.454  0.8766  0.5815 -0.3969
13057TIP3    H260663   3.355   0.167   1.441 -0.3665  0.7064  0.9288
13058TIP3   OH260664   2.824   3.769  14.709  0.6006 -0.1275  0.6728
13058TIP3    H160665   2.745   3.789  14.659  0.5437  1.8941  1.5020
13058TIP3    H260666   2.798   3.779  14.800  1.5852 -0.3771  0.9932
13059TIP3   OH260667   4.695   4.272  15.358 -0.6114  0.6764  0.3999
13059TIP3    H160668   4.784   4.236  15.353 -1.2724 -1.2343  1.3944
13059TIP3    H260669   4.676   4.277  15.451 -1.6375  0.8600  0.1964
13060TIP3   OH260670   1.015   2.560  13.029 -0.5520  0.2617 -0.6202
13060TIP3    H160671   1.042   2.469  13.044 -1.7760  0.0188  0.2063
13060TIP3    H260672   1.096   2.610  13.037  0.1871 -0.7695 -1.3416
13061TIP3   OH260673   3.171   0.338   3.534  0.5520 -0.5020 -0.4177
13061TIP3    H160674   3.168   0.429   3.564 -0.8907 -1.2408  1.9666
13061TIP3    H260675   3.172   0.344   3.439  2.5616  2.0115 -0.3482
13062TIP3   OH260676   1.607   2.225  12.657 -0.0954 -0.5221 -0.0117
13062TIP3    H160677   1.547   2.300  12.659 -0.1307 -0.5718  1.0310
13062TIP3    H260678   1.694   2.264  12.658 -0.0977 -0.4750 -0.7075
13063TIP3   OH260679   3.513   6.520   4.994 -0.3539 -0.5417  0.0768
13063TIP3    H160680   3.567   6.595   5.018  0.4967 -0.4648 -1.8746
13063TIP3    H260681   3.423   6.552   4.997  0.0343  0.8655 -1.5354
13064TIP3   OH260682   5.173   3.951  15.816  0.5167 -0.3171  0.4327
13064TIP3    H160683   5.084   3.926  15.792  1.3051 -2.4157 -0.5728
13064TIP3    H260684   5.199   4.015  15.748  0.2308 -0.7112 -0.0532
13065TIP3   OH260685   0.904   0.258   6.267  0.2090  0.0465 -0.1565
13065TIP3    H160686   0.815   0.239   6.298  0.7048 -0.9998  0.7387
13065TIP3    H260687   0.893   0.291   6.178 -1.0388 -0.7657 -0.3275
13066TIP3   OH260688   0.931   2.423   0.232  0.1799  0.4572 -0.4025
13066TIP3    H160689   0.923   2.348   0.290 -0.6472  1.3001  0.6246
13066TIP3    H260690   0.896   2.497   0.283  0.0547  1.3534 -1.7220
13067TIP3   OH260691   6.240   1.150   5.303 -0.5791  0.1275  0.0584
13067TIP3    H160692   6.333   1.134   5.292 -0.8501 -0.4593 -1.5531
13067TIP3    H260693   6.207   1.072   5.348 -0.4724 -0.1208 -0.2964
13068TIP3   OH260694   1.695   4.007  12.101 -0.1869 -0.2649 -0.6900
13068TIP3    H160695   1.658   4.081  12.149 -0.1139 -0.1757 -0.7681
13068TIP3    H260696   1.643   3.931  12.128 -0.6458 -0.0854 -1.0588
13069TIP3   OH260697   3.577   2.588   5.997  0.2315 -0.1209  0.3716
13069TIP3    H160698   3.594   2.681   6.017 -0.5142  0.2520 -0.6291
13069TIP3    H260699   3.522   2.558   6.069  1.3403 -0.0939  1.2568
13070TIP3   OH260700   5.367   5.395   6.493  0.3258  0.0100 -0.4792
13070TIP3    H160701   5.314   5.404   6.572 -0.6975 -0.1923 -1.1104
13070TIP3    H260702   5.456   5.382   6.524 -0.0730 -0.1414  0.6330
13071TIP3   OH260703   3.161   2.634  13.268  0.5414 -0.8622 -0.7319
13071TIP3    H160704   3.079   2.609  13.225 -0.1565 -1.2611  0.7867
13071TIP3    H260705   3.191   2.710  13.218 -1.7342  0.4946 -0.1982
13072TIP3   OH260706   1.782   2.284   3.339  0.5359  0.3908  0.4387
13072TIP3    H160707   1.729   2.362   3.321 -1.2239 -0.9131 -0.3532
13072TIP3    H260708   1.748   2.251   3.422  0.6537 -0.0253  0.3225
13073TIP3   OH260709   2.541   0.731   2.812  0.3309  0.2593 -0.1941
13073TIP3    H160710   2.462   0.758   2.765  1.0926  0.2320 -1.5370
13073TIP3    H260711   2.551   0.796   2.881  1.6358  3.0811 -2.8069
13074TIP3   OH260712   5.465   3.371  13.740 -0.5448  0.5966  0.0368
13074TIP3    H160713   5.371   3.377  13.756 -0.1100 -0.2659  3.9406
13074TIP3    H260714   5.505   3.392  13.824  2.6017 -2.6111 -0.4001
13075TIP3   OH260715   4.287   2.927   3.004 -0.1982  0.0806 -0.2256
13075TIP3    H160716   4.236   2.868   2.948 -0.9359  0.6792 -0.1966
13075TIP3    H260717   4.312   2.873   3.079  3.1457 -1.5724 -2.3100
13076TIP3   OH260718   3.544   0.384  12.592 -0.4575  0.7115  0.3535
13076TIP3    H160719   3.474   0.349  12.536  0.3908  0.4737 -0.5931
13076TIP3    H260720   3.553   0.475  12.566  0.1279  0.5282 -0.1121
13077TIP3   OH260721   2.961   6.155   5.247 -0.2713 -0.2176 -0.2803
13077TIP3    H160722   2.953   6.086   5.182 -0.8583 -1.5560  1.1524
13077TIP3    H260723   3.027   6.123   5.309  2.2172  2.1464 -1.4963
13078TIP3   OH260724   0.149   1.530   3.757 -0.0356 -0.0013 -0.0100
13078TIP3    H160725   0.100   1.539   3.839 -0.1470  1.7287 -0.2321
13078TIP3    H260726   0.085   1.496   3.695 -0.2374 -0.3127  0.3640
13079TIP3   OH260727   6.566   2.754   6.484 -0.0834 -0.7242  0.0374
13079TIP3    H160728   6.509   2.681   6.508 -1.5359  0.2200 -0.4778
13079TIP3    H260729   6.632   2.756   6.553 -1.8979 -0.5141  1.8609
13080TIP3   OH260730   3.766   6.004   0.729 -0.3079 -0.2308  0.2492
13080TIP3    H160731   3.730   5.915   0.725  2.3536 -1.3257 -1.6379
13080TIP3    H260732   3.764   6.035   0.639 -0.5986  1.4262  0.7942
13081TIP3   OH260733   2.999   3.493  12.680 -0.0030  0.3420 -0.0242
13081TIP3    H160734   2.926   3.530  12.629  0.5571  2.4620  0.6241
13081TIP3    H260735   3.077   3.517  12.630  0.3611 -0.7279  0.0022
13082TIP3   OH260736   4.798   2.471  14.751  0.5235 -0.2476  1.1986
13082TIP3    H160737   4.873   2.434  14.705  0.4569  0.2900  0.6467
13082TIP3    H260738   4.772   2.547  14.699 -1.7110 -1.5890  0.2260
13083TIP3   OH260739   2.162   4.749  15.950 -0.4938  0.1645 -0.3240
13083TIP3    H160740   2.127   4.737  15.862 -0.9101  0.1141 -0.1573
13083TIP3    H260741   2.088   4.727  16.008 -0.1359 -0.0928  0.0406
13084TIP3   OH260742   1.556   0.476  12.429 -0.1788  0.1889 -0.0681
13084TIP3    H160743   1.613   0.502  12.501  2.1057  1.5684 -2.1671
13084TIP3    H260744   1.474   0.523  12.445 -0.5776 -1.2498  2.6596
13085TIP3   OH260745   4.793   3.773  12.998  0.0258  0.3929 -0.6520
13085TIP3    H160746   4.812   3.824  13.076 -0.0245 -0.2826 -0.1887
13085TIP3    H260747   4.755   3.836  12.937 -1.8257  0.5463  0.5841
13086TIP3   OH260748   3.743   5.140  17.056  0.0829  0.6684 -0.1883
13086TIP3    H160749   3.837   5.122  17.065 -0.0654 -1.5524 -2.0447
13086TIP3    H260750   3.704   5.100  17.133  0.6799  2.1005  0.8881
13087TIP3   OH260751   4.562   4.283   3.948 -0.2233 -0.1314  0.6038
13087TIP3    H160752   4.562   4.196   3.988  0.7113 -0.0282  0.8382
13087TIP3    H260753   4.537   4.268   3.857 -0.8731 -0.5415  0.8393
13088TIP3   OH260754   0.161   2.777  15.654  0.4506 -0.5679 -0.1164
13088TIP3    H160755   0.188   2.858  15.611 -1.3313  0.3329  0.3838
13088TIP3    H260756   0.218   2.769  15.730  0.8972  0.0013 -0.3885
13089TIP3   OH260757   5.675   5.815  15.334 -0.2261  0.8451 -0.0134
13089TIP3    H160758   5.597   5.803  15.388  0.0019  0.5464  0.2547
13089TIP3    H260759   5.743   5.763  15.378 -0.4655 -0.8388 -1.5421
13090TIP3   OH260760   6.790   1.624   2.870  0.3865  1.0150 -0.1363
13090TIP3    H160761   6.873   1.662   2.899  0.3085  1.3703 -0.3814
13090TIP3    H260762   6.784   1.646   2.778  1.9027 -2.3567 -1.2011
13091TIP3   OH260763   5.667   4.285  10.916 -0.3416  0.3674 -0.1276
13091TIP3    H160764   5.659   4.310  11.009 -2.7898 -1.3276  0.1937
13091TIP3    H260765   5.577   4.282  10.884  0.4553  0.9335 -2.6196
13092TIP3   OH260766   6.144   6.497  12.753 -0.0986 -0.2035  0.7016
13092TIP3    H160767   6.236   6.521  12.754  0.2002 -1.1087 -0.8033
13092TIP3    H260768   6.103   6.561  12.694 -0.2376 -0.3897  0.5929
13093TIP3   OH260769   4.628   5.282   5.952 -0.2274  0.2304 -0.2461
13093TIP3    H160770   4.534   5.285   5.933 -0.1650  2.4104 -0.4358
13093TIP3    H260771   4.645   5.190   5.972 -2.2934 -0.3099 -0.7052
13094TIP3   OH260772   5.430   2.327  15.994  0.0662 -0.2874 -0.4903
13094TIP3    H160773   5.485   2.381  15.938  0.3340  1.0555  0.9828
13094TIP3    H260774   5.342   2.337  15.958  0.2673  0.3598 -0.8121
13095TIP3   OH260775   4.096   6.389   5.055 -0.6101 -0.0898 -0.5540
13095TIP3    H160776   4.059   6.338   5.127  1.1291  0.7898  1.0791
13095TIP3    H260777   4.084   6.480   5.082 -0.6789  0.2975 -1.8119
13096TIP3   OH260778   1.556   6.017   2.871 -0.3573 -0.5678 -0.1283
13096TIP3    H160779   1.563   6.111   2.884 -0.3088 -0.2348 -2.2999
13096TIP3    H260780   1.496   6.007   2.797 -0.3207 -2.2488  0.0319
13097TIP3   OH260781   0.360   5.422  10.656 -0.1113 -0.3468 -0.2496
13097TIP3    H160782   0.336   5.515  10.654 -0.5490 -0.4437  0.2306
13097TIP3    H260783   0.388   5.402  10.567 -1.3298 -0.0871 -0.7084
13098TIP3   OH260784   1.283   4.724  13.539  0.1595  0.4423 -0.3451
13098TIP3    H160785   1.365   4.723  13.588  0.1317 -1.8255 -0.2748
13098TIP3    H260786   1.225   4.779  13.592  1.1735  0.9024  0.3318
13099TIP3   OH260787   0.965   1.729  12.286  0.3408  0.1669 -0.3433
13099TIP3    H160788   0.979   1.822  12.301  1.5614 -0.0310 -0.1692
13099TIP3    H260789   0.907   1.725  12.211 -1.4722  1.0907  0.9267
13100TIP3   OH260790   0.353   2.225  15.778  0.2198 -0.3104  0.3796
13100TIP3    H160791   0.333   2.185  15.862 -2.5845  2.5620  1.2929
13100TIP3    H260792   0.294   2.182  15.716  0.2598 -0.4955  0.4710
13101TIP3   OH260793   3.790   5.232   1.165 -0.2413  0.0528  0.7628
13101TIP3    H160794   3.867   5.180   1.143  0.4021  0.9873  0.7594
13101TIP3    H260795   3.822   5.299   1.225 -0.9149  0.8624  0.2500
13102TIP3   OH260796   2.191   6.170   2.034 -0.9977  0.5596  0.8020
13102TIP3    H160797   2.097   6.153   2.041 -1.4111  0.3829 -2.9904
13102TIP3    H260798   2.198   6.239   1.968  1.5294  0.0927  0.4846
13103TIP3   OH260799   5.439   2.454  14.689 -0.5123 -0.5335 -0.6270
13103TIP3    H160800   5.434   2.530  14.747  0.5540 -1.3852  0.6388
13103TIP3    H260801   5.421   2.490  14.601 -0.5632  1.0664 -0.0032
13104TIP3   OH260802   2.870   0.525  12.354  0.4582 -0.5053 -0.0742
13104TIP3    H160803   2.831   0.486  12.276  1.1297 -0.0250 -0.6622
13104TIP3    H260804   2.817   0.491  12.426 -1.3477  0.4820 -0.8619
13105TIP3   OH260805   4.065   6.762   4.925 -0.3808  0.4357  0.2878
13105TIP3    H160806   4.055   6.813   5.005  1.6955  0.9258  0.2929
13105TIP3    H260807   4.160   6.751   4.915 -0.5123  1.0486 -2.4936
13106TIP3   OH260808   0.574   2.683   6.797  0.0896  0.1542 -0.0161
13106TIP3    H160809   0.629   2.612   6.830 -0.0616 -0.1498 -0.4031
13106TIP3    H260810   0.494   2.639   6.767  0.5139  0.3230 -1.4520
13107TIP3   OH260811   1.031   3.777  11.810 -0.5635 -0.0267 -0.1449
13107TIP3    H160812   0.964   3.843  11.826 -1.0525 -0.5979  0.1935
13107TIP3    H260813   1.112   3.828  11.802 -0.5745  0.4915  2.1908
13108TIP3   OH260814   5.954   2.749  14.653 -0.1588  0.2405  0.2029
13108TIP3    H160815   5.968   2.711  14.740 -3.0695 -0.6396  0.3930
13108TIP3    H260816   5.891   2.820  14.668 -0.4445  0.2969 -1.1300
13109TIP3   OH260817   3.166   2.651   3.458  0.6953  0.2166 -0.2014
13109TIP3    H160818   3.146   2.741   3.484 -1.4604 -0.2673  0.0724
13109TIP3    H260819   3.167   2.653   3.363  1.5013  0.6684 -0.1919
13110TIP3   OH260820   4.798   5.482  11.300 -0.2323  0.2281 -0.4526
13110TIP3    H160821   4.871   5.508  11.244  1.7112 -0.6007  1.5290
13110TIP3    H260822   4.735   5.554  11.293  1.2651  1.4922 -1.4277
13111TIP3   OH260823   5.305   0.148  13.525 -0.2616 -0.3516  0.0507
13111TIP3    H160824   5.220   0.105  13.537  0.4713 -1.7622  0.3577
13111TIP3    H260825   5.351   0.092  13.463 -0.0164  1.1048 -1.1231
13112TIP3   OH260826   0.423   2.136  14.897  0.1997  0.7032 -0.3545
13112TIP3    H160827   0.374   2.205  14.853  0.5301  1.3243  0.2402
13112TIP3    H260828   0.412   2.153  14.990  0.1193 -0.1715 -0.1912
13113TIP3   OH260829   0.099   1.185  11.999  0.2225 -0.0993  0.2017
13113TIP3    H160830   0.094   1.121  11.928  0.4671 -0.3104  0.3742
13113TIP3    H260831   0.032   1.250  11.977  2.5055  1.7308 -2.0736
13114TIP3   OH260832   4.937   1.644   3.642  0.5008 -0.2760 -0.8412
13114TIP3    H160833   4.924   1.727   3.687  0.4618 -1.1962  0.9424
13114TIP3    H260834   4.950   1.668   3.551 -3.5695  1.4285 -1.1828
13115TIP3   OH260835   4.760   5.954   4.590  0.0673 -0.1323 -0.0796
13115TIP3    H160836   4.763   5.860   4.574 -3.4540 -0.6006  1.0352
13115TIP3    H260837   4.673   5.980   4.561  1.1387  2.9636 -0.9053
13116TIP3   OH260838   3.686   6.506   5.291  0.6880 -0.7743 -0.1537
13116TIP3    H160839   3.672   6.586   5.341  0.8878 -0.7278 -0.1700
13116TIP3    H260840   3.623   6.511   5.219  1.8203  0.1741 -1.1180
13117TIP3   OH260841   5.009   6.639  14.837 -0.7751 -0.4958  0.2855
13117TIP3    H160842   5.052   6.692  14.904  0.1080  1.7128 -1.8765
13117TIP3    H260843   5.079   6.589  14.797 -0.8852 -0.0298 -0.5095
13118TIP3   OH260844   0.613   3.657  13.126 -0.0688 -0.6757 -0.1414
13118TIP3    H160845   0.673   3.730  13.143  0.4782 -1.2725  0.5487
13118TIP3    H260846   0.561   3.686  13.051  0.9258 -0.0569 -0.6119
13119TIP3   OH260847   4.410   2.922   5.092  0.6710 -0.2798 -0.0455
13119TIP3    H160848   4.446   2.882   5.013 -0.8681  2.1559 -2.1324
13119TIP3    H260849   4.315   2.908   5.086  0.3622  1.3311  0.4998
13120TIP3   OH260850   3.166   4.174   4.501  0.1820  0.1861 -0.1703
13120TIP3    H160851   3.126   4.223   4.573 -0.8761 -0.2884 -0.4083
13120TIP3    H260852   3.102   4.105   4.481  2.0167 -1.8950  0.7585
13121TIP3   OH260853   3.161   4.405  14.579  0.0748 -0.3209  0.1296
13121TIP3    H160854   3.117   4.360  14.507  0.0195  0.6550 -0.4772
13121TIP3    H260855   3.090   4.447  14.627  0.0925 -1.1525  0.8983
13122TIP3   OH260856   6.278   0.595   6.248 -0.7302  0.0434 -0.1611
13122TIP3    H160857   6.369   0.569   6.262 -0.8608 -0.6102 -0.4583
13122TIP3    H260858   6.240   0.523   6.197 -0.9196  1.1504 -1.6755
13123TIP3   OH260859   2.418   1.071  11.386  0.6965  0.5460  0.4483
13123TIP3    H160860   2.487   1.026  11.436 -0.4562  0.4546  2.0178
13123TIP3    H260861   2.397   1.010  11.315 -0.2316 -1.0746  2.0332
13124TIP3   OH260862   0.363   0.280   2.221 -0.0709 -0.8530 -0.4802
13124TIP3    H160863   0.302   0.207   2.229 -0.7078 -0.1439  1.6974
13124TIP3    H260864   0.315   0.347   2.173  0.2638 -1.5372 -1.8363
13125TIP3   OH260865   4.183   6.544  11.969 -0.0772  0.1206  0.0345
13125TIP3    H160866   4.163   6.637  11.959 -2.3273 -0.1427  1.3891
13125TIP3    H260867   4.238   6.539  12.047 -0.5387  0.2491  0.3662
13126TIP3   OH260868   1.716   3.375   1.469  0.2078 -0.6608  0.4241
13126TIP3    H160869   1.740   3.376   1.377  0.9937 -0.3680  0.6256
13126TIP3    H260870   1.735   3.464   1.500 -2.7168  0.1508  0.2231
13127TIP3   OH260871   5.096   0.067   2.027 -0.3131 -0.4224  0.3592
13127TIP3    H160872   5.158   0.055   1.955 -0.5435  2.1442 -0.3450
13127TIP3    H260873   5.135   0.017   2.100  1.0526 -1.2524 -0.8830
13128TIP3   OH260874   2.212   5.073  15.851  0.0242 -0.1917 -0.5081
13128TIP3    H160875   2.184   5.103  15.765 -0.6415  0.4250 -0.0789
13128TIP3    H260876   2.137   5.088  15.908  0.7649  0.2534  0.3723
13129TIP3   OH260877   1.888   0.633  11.590  0.3313 -0.0547  0.6818
13129TIP3    H160878   1.858   0.622  11.499 -0.0300  3.4280  0.2465
13129TIP3    H260879   1.807   0.646  11.640  0.6644  1.8600  0.7852
13130TIP3   OH260880   0.417   5.157   0.409 -0.1303 -0.2056 -0.4844
13130TIP3    H160881   0.471   5.234   0.393  0.0005 -0.0960  0.4455
13130TIP3    H260882   0.463   5.110   0.479 -0.9490 -0.3919 -0.0563
13131TIP3   OH260883   6.386   5.757   3.056  0.4101  0.6848 -0.3268
13131TIP3    H160884   6.331   5.822   3.099 -0.2166 -0.8048  1.2756
13131TIP3    H260885   6.356   5.673   3.091  3.7156 -0.2322  0.7507
13132TIP3   OH260886   1.543   1.417  13.183 -0.0849 -0.3769  0.0440
13132TIP3    H160887   1.627   1.439  13.142  0.2786 -0.3730  0.7765
13132TIP3    H260888   1.484   1.486  13.154 -0.3657 -1.4018 -2.0484
13133TIP3   OH260889   2.682   6.055  12.309  0.0736  0.1058 -0.2321
13133TIP3    H160890   2.596   6.084  12.340 -0.3725 -0.7210 -0.6413
13133TIP3    H260891   2.663   6.013  12.225  1.0597  1.0381 -0.9369
13134TIP3   OH260892   3.905   4.225   5.975 -0.1960  0.4718 -0.4642
13134TIP3    H160893   3.843   4.247   5.906 -0.4113 -1.0958 -0.8032
13134TIP3    H260894   3.976   4.288   5.964 -1.3703  1.8365 -0.5207
13135TIP3   OH260895   5.730   4.140  15.539  0.1603 -0.1449 -0.4642
13135TIP3    H160896   5.666   4.125  15.608  0.9306  0.1495  0.3394
13135TIP3    H260897   5.785   4.062  15.540  2.4763  1.3261  1.8562
13136TIP3   OH260898   1.700   3.551  16.752  0.3690  0.2408  0.0698
13136TIP3    H160899   1.727   3.638  16.783  0.6934  1.2134 -2.6530
13136TIP3    H260900   1.783   3.508  16.731  0.1253  0.4760 -1.4692
13137TIP3   OH260901   1.310   4.914  11.305 -0.3721 -0.0753 -0.1266
13137TIP3    H160902   1.307   4.847  11.372  0.2943  0.6815  0.6852
13137TIP3    H260903   1.228   4.904  11.256 -0.3551 -1.3540  0.0798
13138TIP3   OH260904   3.943   6.263   0.109  0.1023 -0.5594  0.1236
13138TIP3    H160905   3.992   6.341   0.132 -0.0567  0.0693 -1.5218
13138TIP3    H260906   3.996   6.190   0.141  0.5643  0.1945  1.1018
13139TIP3   OH260907   4.738   1.208  14.190 -0.0392 -0.4956 -0.4906
13139TIP3    H160908   4.680   1.271  14.148 -1.2657 -1.3050 -0.0599
13139TIP3    H260909   4.793   1.261  14.248  0.5657  0.4313 -1.8555
13140TIP3   OH260910   0.774   5.376  15.798 -0.4979 -0.1263 -0.1487
13140TIP3    H160911   0.728   5.460  15.790 -0.2197  0.0688  0.2597
13140TIP3    H260912   0.860   5.392  15.759  0.6135  0.6299  2.3766
13141TIP3   OH260913   6.088   1.749   6.359 -0.1248  0.1002 -0.2767
13141TIP3    H160914   6.039   1.813   6.410  0.6032  0.8021 -0.4350
13141TIP3    H260915   6.082   1.668   6.410 -2.0635 -0.0507 -0.6660
13142TIP3   OH260916   4.695   5.257  14.841 -0.0845  0.2370 -0.2888
13142TIP3    H160917   4.754   5.184  14.860 -0.0715  0.0531 -1.0066
13142TIP3    H260918   4.609   5.217  14.829  0.0838  0.2106 -1.5829
13143TIP3   OH260919   2.995   2.307  14.847  0.2080  0.1048 -0.3018
13143TIP3    H160920   3.028   2.350  14.767 -0.4858 -1.3022 -1.3981
13143TIP3    H260921   2.933   2.369  14.884  0.4520  0.7358 -0.9212
13144TIP3   OH260922   6.063   1.486   2.907  0.1832  0.0033 -0.7549
13144TIP3    H160923   5.968   1.479   2.915  0.2193  1.0728  2.0688
13144TIP3    H260924   6.078   1.576   2.877  0.2606  0.5047  0.6755
13145TIP3   OH260925   1.404   1.574   0.116  0.8662  0.2493  0.2689
13145TIP3    H160926   1.426   1.603   0.205  0.9676 -1.0324  0.6816
13145TIP3    H260927   1.312   1.598   0.106  0.6204 -0.2997  1.0405
13146TIP3   OH260928   0.972   5.804   0.128 -0.1259 -0.4658 -1.0754
13146TIP3    H160929   0.891   5.765   0.161  1.1341 -1.4259  1.0999
13146TIP3    H260930   0.957   5.898   0.132 -0.5239 -0.5744  1.1163
13147TIP3   OH260931   1.025   4.575   1.704  0.1568 -0.7821  0.4077
13147TIP3    H160932   1.006   4.483   1.686 -1.9880 -0.7647  2.1189
13147TIP3    H260933   1.087   4.573   1.777 -0.7398 -0.8865  1.1738
13148TIP3   OH260934   1.051   1.230   2.680  0.3696  0.0179 -0.6477
13148TIP3    H160935   1.058   1.143   2.720 -0.2837 -0.1679 -0.9391
13148TIP3    H260936   1.057   1.214   2.586  1.8265  0.4470 -0.6668
13149TIP3   OH260937   0.346   1.937   5.623 -0.1796  0.1606  0.0559
13149TIP3    H160938   0.313   1.854   5.655 -2.0380  0.4598 -0.9184
13149TIP3    H260939   0.351   1.926   5.528  1.3807  0.5694  0.0573
13150TIP3   OH260940   1.675   5.157  15.709  0.3659 -0.1737  0.0278
13150TIP3    H160941   1.655   5.069  15.738  0.3664 -0.3099 -0.3793
13150TIP3    H260942   1.602   5.211  15.740  0.1957 -0.3777 -0.0217
13151TIP3   OH260943   3.877   2.970  14.860  0.2040  0.3852  0.4528
13151TIP3    H160944   3.923   3.035  14.807 -0.9497  0.2787 -0.7292
13151TIP3    H260945   3.928   2.889  14.847  0.5739  0.6185  0.4300
13152TIP3   OH260946   3.745   6.096   1.218 -0.4113 -0.4814 -0.1185
13152TIP3    H160947   3.797   6.071   1.142 -1.0112 -0.2948 -0.5957
13152TIP3    H260948   3.703   6.014   1.245 -0.3375 -0.5107 -0.0913
13153TIP3   OH260949   3.496   4.609   2.458  0.0268  0.0387  0.6858
13153TIP3    H160950   3.465   4.571   2.540  0.5364 -0.6135  0.5885
13153TIP3    H260951   3.557   4.678   2.485 -0.5383  0.4776  0.8596
13154TIP3   OH260952   3.686   2.953  15.909  0.3215 -0.2896  0.2275
13154TIP3    H160953   3.623   2.884  15.932 -0.3069 -0.2073 -1.1683
13154TIP3    H260954   3.649   3.033  15.947 -0.0554 -0.3557  0.0005
13155TIP3   OH260955   4.091   1.612   5.294 -0.0453 -0.2018  0.2303
13155TIP3    H160956   4.078   1.649   5.206  1.7761 -1.0354 -0.4453
13155TIP3    H260957   4.048   1.674   5.353 -3.2737 -0.7300 -1.3464
13156TIP3   OH260958   3.859   5.899  10.656 -0.1992 -0.4874 -0.1170
13156TIP3    H160959   3.813   5.982  10.672  1.3735  0.2183  0.9660
13156TIP3    H260960   3.844   5.848  10.736  1.1250 -0.0951  0.4250
13157TIP3   OH260961   6.427   1.440  16.660  0.1262  0.1484 -0.3888
13157TIP3    H160962   6.451   1.472  16.573 -0.5884  1.7441 -0.0438
13157TIP3    H260963   6.354   1.380  16.644  0.7013 -0.4028 -0.9776
13158TIP3   OH260964   2.082   0.605   2.094  0.1990 -0.0638  0.3829
13158TIP3    H160965   2.019   0.535   2.077 -0.3141  0.1228  1.4616
13158TIP3    H260966   2.112   0.591   2.184  1.0209  0.3823  0.1963
13159TIP3   OH260967   3.599   5.226   3.150 -0.2324 -0.3317 -0.1464
13159TIP3    H160968   3.629   5.296   3.092  0.2341 -0.3711  0.0385
13159TIP3    H260969   3.526   5.265   3.198 -1.2280 -0.5949 -1.3965
13160TIP3   OH260970   1.341   3.168  15.201  0.2449  0.0186  0.1906
13160TIP3    H160971   1.316   3.076  15.188 -0.8435  0.4450 -0.8410
13160TIP3    H260972   1.435   3.164  15.222  0.2896 -1.2979 -0.1479
13161TIP3   OH260973   0.262   3.995   0.089 -0.1294  0.1628  0.5635
13161TIP3    H160974   0.299   3.908   0.074 -1.7324 -0.3070 -1.0027
13161TIP3    H260975   0.225   3.991   0.177  1.8951  0.0906  1.4665
13162TIP3   OH260976   0.939   3.074  11.048 -0.0521  0.4738  0.2996
13162TIP3    H160977   0.868   3.134  11.027  0.1272  1.0769  1.3316
13162TIP3    H260978   1.009   3.095  10.986 -0.5683  0.2426 -0.3681
13163TIP3   OH260979   5.843   2.909  17.071  0.3954 -0.8166 -0.0639
13163TIP3    H160980   5.886   2.826  17.091  0.7312 -0.7442 -0.4882
13163TIP3    H260981   5.908   2.960  17.024  0.1692 -0.3303  0.1398
13164TIP3   OH260982   4.693   1.658   0.992 -0.1736  0.3047 -0.4058
13164TIP3    H160983   4.699   1.604   1.071 -1.2897 -0.3456 -0.7401
13164TIP3    H260984   4.779   1.700   0.984 -0.6483  2.0095  2.2760
13165TIP3   OH260985   4.884   6.060  11.529  0.4115  0.1100 -0.0295
13165TIP3    H160986   4.909   6.051  11.621 -1.0365 -1.2484  0.2649
13165TIP3    H260987   4.825   5.987  11.512 -1.7189  1.9892 -1.2276
13166TIP3   OH260988   2.163   0.723  12.092 -0.7823  0.3488 -0.0364
13166TIP3    H160989   2.232   0.784  12.120 -0.8634  0.7471 -0.6750
13166TIP3    H260990   2.122   0.767  12.017 -0.4221 -0.7905 -0.9142
13167TIP3   OH260991   5.114   2.158   5.853  0.0946 -0.0363 -0.0462
13167TIP3    H160992   5.048   2.102   5.812 -0.2191  0.3982 -0.1483
13167TIP3    H260993   5.197   2.114   5.835 -0.0154  0.2340 -1.3352
13168TIP3   OH260994   1.843   4.184  11.168  0.2133  0.1629  0.3311
13168TIP3    H160995   1.805   4.098  11.151  1.2255  0.0645 -1.7048
13168TIP3    H260996   1.788   4.221  11.237 -0.2585 -2.0919  1.2511
13169TIP3   OH260997   5.885   4.443  15.212 -0.4657 -0.0185  0.0741
13169TIP3    H160998   5.926   4.357  15.197 -1.8456 -0.6499 -0.3302
13169TIP3    H260999   5.827   4.454  15.136 -1.2381  0.6874  0.7545
13170TIP3   OH261000   6.141   6.341   5.313  0.6476 -0.1694 -0.6942
13170TIP3    H161001   6.122   6.258   5.356  1.7528  0.4146  1.0304
13170TIP3    H261002   6.056   6.384   5.305  0.1997 -1.0428 -0.7042
13171TIP3   OH261003   1.320   3.903   4.620 -0.3040  0.4870 -0.1640
13171TIP3    H161004   1.297   3.829   4.563  0.7201  0.6201 -0.7741
13171TIP3    H261005   1.379   3.956   4.567 -0.6719  1.5137  0.4357
13172TIP3   OH261006   2.129   4.669   1.628  0.2595 -0.1184  0.0845
13172TIP3    H161007   2.058   4.639   1.685  0.9419 -0.2962  0.8399
13172TIP3    H261008   2.132   4.604   1.558  0.8737 -1.1197  1.0205
13173TIP3   OH261009   0.841   1.302  16.644 -0.6853  0.0019  0.4299
13173TIP3    H161010   0.935   1.298  16.660 -0.7029  1.5171  1.1542
13173TIP3    H261011   0.804   1.230  16.695  0.1167 -1.0807 -0.4610
13174TIP3   OH261012   1.965   1.217  16.994  0.1781 -0.6916 -0.0871
13174TIP3    H161013   1.876   1.242  17.019 -0.3260 -2.2075 -0.2903
13174TIP3    H261014   1.964   1.122  16.990  1.5003 -0.7023 -1.2353
13175TIP3   OH261015   4.536   0.880   4.153  0.4918 -0.2891 -0.2261
13175TIP3    H161016   4.532   0.931   4.073 -0.5750  0.3003  0.1772
13175TIP3    H261017   4.556   0.944   4.222 -0.3840 -0.4773  0.2203
13176TIP3   OH261018   0.829   6.582  12.285 -0.3388  0.0141  0.3744
13176TIP3    H161019   0.759   6.579  12.220  0.8253  0.5738 -0.9372
13176TIP3    H261020   0.891   6.515  12.256  0.2197  0.3038  0.8871
13177TIP3   OH261021   1.516   3.922  16.962 -0.0725 -0.3253  0.8480
13177TIP3    H161022   1.534   4.001  16.911  2.2905 -1.5848 -0.3928
13177TIP3    H261023   1.461   3.953  17.034 -0.7557  2.1024 -0.5996
13178TIP3   OH261024   3.986   5.226   0.295  0.2424  0.5148 -0.4167
13178TIP3    H161025   3.955   5.316   0.298  0.0878  0.5268 -1.6402
13178TIP3    H261026   3.907   5.173   0.302  0.5226  0.3083  3.5640
13179TIP3   OH261027   1.672   4.232   0.719  0.3686  0.1467 -0.5745
13179TIP3    H161028   1.651   4.241   0.626 -2.5765 -2.3070 -0.3387
13179TIP3    H261029   1.672   4.321   0.753  1.5437  1.1062 -2.9002
13180TIP3   OH261030   2.740   1.646  16.459 -0.2003 -0.0473 -0.2479
13180TIP3    H161031   2.721   1.554  16.481 -0.2397 -0.2974 -1.2695
13180TIP3    H261032   2.661   1.676  16.414  0.4663 -0.0371 -1.4308
13181TIP3   OH261033   6.195   3.751  16.814  0.0145  0.3655 -0.1037
13181TIP3    H161034   6.235   3.695  16.747  2.3114  0.0871  1.3659
13181TIP3    H261035   6.117   3.703  16.842 -0.2050 -0.1839 -1.5370
13182TIP3   OH261036   4.465   4.949  14.029  0.4097 -0.1823  0.1520
13182TIP3    H161037   4.515   5.010  13.974 -0.2788  1.6208  1.4074
13182TIP3    H261038   4.430   5.004  14.099 -2.6696 -1.4961 -0.2072
13183TIP3   OH261039   1.559   1.909  12.111 -0.5243  0.5498 -1.0109
13183TIP3    H161040   1.651   1.886  12.093 -1.0923 -1.1630 -1.9967
13183TIP3    H261041   1.558   1.931  12.204  0.5592 -1.4448 -0.4517
13184TIP3   OH261042   3.674   5.824  15.979  0.1660 -0.0883 -0.4677
13184TIP3    H161043   3.768   5.826  16.000 -0.2100  0.5703  1.3932
13184TIP3    H261044   3.653   5.913  15.952 -0.4434  0.6327  2.0529
13185TIP3   OH261045   2.602   6.809   4.582  0.4190 -0.1962  0.2126
13185TIP3    H161046   2.669   6.822   4.649  1.6843 -0.0376 -1.0288
13185TIP3    H261047   2.632   6.733   4.531 -0.3288 -0.1093 -0.3902
13186TIP3   OH261048   5.485   2.941  14.816  0.1885 -0.1240  0.3645
13186TIP3    H161049   5.580   2.926  14.817  0.4694  1.5187  0.5834
13186TIP3    H261050   5.472   3.011  14.752 -1.0563 -1.2567 -0.6925
13187TIP3   OH261051   3.359   0.896   4.039 -0.4687 -0.0934  1.4863
13187TIP3    H161052   3.297   0.841   4.088 -2.2569  2.6118  2.4880
13187TIP3    H261053   3.414   0.936   4.106  0.2890 -0.0422  0.8451
13188TIP3   OH261054   4.741   3.648   2.763 -0.0753 -0.6455 -0.0139
13188TIP3    H161055   4.688   3.569   2.770 -0.2951 -0.6625 -1.5944
13188TIP3    H261056   4.762   3.655   2.670 -1.3433  1.9576 -0.2050
13189TIP3   OH261057   0.950   3.094   4.306  0.2420 -0.3808  0.7294
13189TIP3    H161058   1.002   3.102   4.225  0.7533 -0.7682  1.0152
13189TIP3    H261059   1.015   3.083   4.375 -0.2060 -0.3220  1.1644
13190TIP3   OH261060   3.205   1.111  15.872 -0.0871 -0.3629 -0.3616
13190TIP3    H161061   3.173   1.201  15.865 -0.7649 -0.5760 -0.0234
13190TIP3    H261062   3.163   1.077  15.951 -0.2870 -1.1642 -0.8097
13191TIP3   OH261063   1.125   6.256   2.194  0.2956 -0.7545 -0.2923
13191TIP3    H161064   1.097   6.336   2.238 -0.3195  0.5452 -2.8162
13191TIP3    H261065   1.061   6.190   2.220  0.5901 -0.3756  1.5322
13192TIP3   OH261066   2.539   4.766   0.018 -0.2849 -0.2853  0.3358
13192TIP3    H161067   2.606   4.701  -0.002 -0.2839  0.2088 -1.4524
13192TIP3    H261068   2.466   4.744  -0.039 -0.2510  1.2928 -0.3890
13193TIP3   OH261069   4.337   5.171  14.228 -0.4824  0.2913 -0.5976
13193TIP3    H161070   4.429   5.154  14.249 -0.4724  1.0662  0.0039
13193TIP3    H261071   4.294   5.179  14.313 -1.6343 -2.6756 -0.7806
13194TIP3   OH261072   0.264   6.603  14.780  0.2551 -0.3723 -0.2820
13194TIP3    H161073   0.204   6.641  14.716 -0.9947 -2.2280 -0.2977
13194TIP3    H261074   0.351   6.618  14.743 -0.2022  1.5522 -0.7244
13195TIP3   OH261075   0.584   2.163  12.530  0.1209 -0.3565  0.0407
13195TIP3    H161076   0.587   2.074  12.495 -1.5296 -0.0944 -0.8951
13195TIP3    H261077   0.568   2.218  12.452  3.0844  1.0286  0.2566
13196TIP3   OH261078   5.440   2.473   4.901  0.4866 -0.3960  0.4785
13196TIP3    H161079   5.431   2.379   4.889  1.2579 -0.3070 -1.0141
13196TIP3    H261080   5.350   2.506   4.897 -0.1058 -1.2559  3.5803
13197TIP3   OH261081   6.691   0.278   1.315  0.5023 -0.1816  0.0996
13197TIP3    H161082   6.648   0.227   1.383 -1.3043  0.8993 -0.1611
13197TIP3    H261083   6.658   0.243   1.233 -0.1887  0.8933 -0.0996
13198TIP3   OH261084   5.280   2.586  16.084 -0.1080  0.0453 -0.3373
13198TIP3    H161085   5.241   2.530  16.151 -0.0728 -0.8462 -1.0614
13198TIP3    H261086   5.375   2.576  16.097 -0.0476 -1.7934 -1.8497
13199TIP3   OH261087   4.239   2.850   6.610 -0.3137  0.1564 -0.4999
13199TIP3    H161088   4.301   2.777   6.604 -0.5003  0.0637 -1.5896
13199TIP3    H261089   4.289   2.921   6.651  1.0408  0.5994 -2.7533
13200TIP3   OH261090   3.860   6.183   2.147 -0.1058 -0.2547  0.1145
13200TIP3    H161091   3.825   6.216   2.230 -0.6058 -0.4787 -0.0011
13200TIP3    H261092   3.928   6.121   2.173 -1.7508 -2.0431  0.4513
13201TIP3   OH261093   4.346   6.607  15.020  0.8374 -0.1789 -0.2786
13201TIP3    H161094   4.414   6.653  15.070  1.3108 -1.3171  0.1578
13201TIP3    H261095   4.394   6.560  14.953  0.3249  0.1831 -0.9136
13202TIP3   OH261096   0.014   2.147  15.741 -0.3143 -0.1932 -0.0115
13202TIP3    H161097   0.068   2.171  15.666 -0.9903  0.0987 -0.4085
13202TIP3    H261098  -0.069   2.117  15.703 -0.9176  0.6045  0.6297
13203TIP3   OH261099   3.654   3.142   1.998 -0.1435  0.5488 -0.3002
13203TIP3    H161100   3.560   3.131   2.016 -0.3680  2.7007  0.1281
13203TIP3    H261101   3.672   3.078   1.929 -1.3813 -1.4703  1.1424
13204TIP3   OH261102   2.026   4.241  16.270  0.3700  0.4058 -0.2310
13204TIP3    H161103   1.991   4.325  16.242 -0.0633 -0.6119 -2.9698
13204TIP3    H261104   2.120   4.255  16.276  0.3177  1.0411 -0.8276
13205TIP3   OH261105   6.649   3.675   1.632 -0.3184  0.0221  0.4829
13205TIP3    H161106   6.593   3.731   1.578 -0.1173 -1.1547 -1.0160
13205TIP3    H261107   6.620   3.586   1.611  0.1968 -0.4989  1.8688
13206TIP3   OH261108   4.032   3.881  10.731 -0.3617 -0.7893 -0.2081
13206TIP3    H161109   4.123   3.860  10.714 -0.6181 -0.6430 -1.9278
13206TIP3    H261110   4.025   3.975  10.716 -0.6299 -0.6251  0.8193
13207TIP3   OH261111   1.774   1.662   0.763  0.1513  0.1256  0.5513
13207TIP3    H161112   1.727   1.688   0.842  0.6637 -1.5058  1.4340
13207TIP3    H261113   1.713   1.607   0.715  1.2606 -2.5355  2.0158
13208TIP3   OH261114   5.530   3.089  14.081  0.0633 -0.1603  0.7768
13208TIP3    H161115   5.521   3.184  14.074  0.8503 -0.1447 -0.3887
13208TIP3    H261116   5.517   3.058  13.992  3.3296 -0.7867  0.3614
13209TIP3   OH261117   0.172   5.934  16.498 -0.1548 -0.0276  0.1016
13209TIP3    H161118   0.087   5.901  16.528 -0.6873  1.3015  0.1102
13209TIP3    H261119   0.185   5.892  16.413 -0.0193 -1.5249  0.8138
13210TIP3   OH261120   1.349   1.194   5.503  0.0587 -0.1030  0.0733
13210TIP3    H161121   1.294   1.156   5.434 -0.8344 -0.9418  1.2110
13210TIP3    H261122   1.322   1.149   5.583  1.6197  0.2850  0.8600
13211TIP3   OH261123   3.736   2.588  16.509 -0.0719 -0.2309  0.3763
13211TIP3    H161124   3.824   2.626  16.514 -0.1840  0.0443  0.2731
13211TIP3    H261125   3.679   2.663  16.492 -0.1233 -0.6349 -1.3979
13212TIP3   OH261126   4.290   5.969  15.515 -0.3081 -0.4361  0.5377
13212TIP3    H161127   4.381   5.988  15.494 -0.5729  0.2570  0.0164
13212TIP3    H261128   4.258   6.047  15.560 -1.5376  0.6281 -2.0336
13213TIP3   OH261129   1.904   0.311  15.578 -0.2848  0.3144  0.2912
13213TIP3    H161130   1.879   0.338  15.666  0.2768  0.6552  0.3475
13213TIP3    H261131   1.999   0.319  15.576 -0.1902 -0.7247 -0.0031
13214TIP3   OH261132   1.281   2.264  15.496  0.6236  0.2203  0.0153
13214TIP3    H161133   1.357   2.205  15.503  1.1425  0.9275  0.4030
13214TIP3    H261134   1.283   2.315  15.577 -0.2736  0.2471  0.0236
13215TIP3   OH261135   3.510   4.516  16.764 -0.0584 -0.4355 -0.0449
13215TIP3    H161136   3.455   4.589  16.735  0.7460 -0.3884 -1.5222
13215TIP3    H261137   3.577   4.507  16.696 -0.3317 -2.7807 -0.0840
13216TIP3   OH261138   5.803   1.567   2.379 -0.7749 -0.4111 -0.3123
13216TIP3    H161139   5.732   1.548   2.318 -0.9925 -1.4050  0.2283
13216TIP3    H261140   5.839   1.482   2.403  0.1785  0.0345 -0.0624
13217TIP3   OH261141   0.519   5.227   3.171 -0.0274  0.1481 -0.4428
13217TIP3    H161142   0.580   5.160   3.202  0.9736  1.3936  0.3924
13217TIP3    H261143   0.463   5.245   3.247 -0.8328 -0.3066 -0.9168
13218TIP3   OH261144   2.349   5.768   4.850  0.2620  0.7038 -0.0115
13218TIP3    H161145   2.257   5.761   4.822  0.7060 -0.5251 -1.2336
13218TIP3    H261146   2.371   5.681   4.881  2.1451 -0.1454 -3.3905
13219TIP3   OH261147   0.103   0.359  14.687  0.5302  0.8221  0.1336
13219TIP3    H161148   0.007   0.358  14.690  0.3037  0.2352 -2.9923
13219TIP3    H261149   0.127   0.449  14.710 -1.1657  2.2145 -2.8460
13220TIP3   OH261150   3.671   4.318  13.886  0.5452  0.0391 -0.6403
13220TIP3    H161151   3.598   4.256  13.883  0.2645  0.3796 -0.8539
13220TIP3    H261152   3.726   4.286  13.957 -0.0395  0.0276 -0.1828
13221TIP3   OH261153   3.410   3.376   4.694  0.1429  0.7143 -0.1030
13221TIP3    H161154   3.435   3.428   4.618  0.7176 -0.0235 -0.4257
13221TIP3    H261155   3.463   3.412   4.766  0.2548  0.8229 -0.2400
13222TIP3   OH261156   1.505   0.798   2.520  0.0120  0.3604 -0.1429
13222TIP3    H161157   1.484   0.888   2.542 -1.0798  0.4630 -1.4543
13222TIP3    H261158   1.420   0.754   2.517  0.3978 -0.3584 -0.9537
13223TIP3   OH261159   2.629   1.639   2.404  0.7311 -0.3402 -0.3760
13223TIP3    H161160   2.541   1.676   2.397  0.3918 -1.1405 -0.4116
13223TIP3    H261161   2.619   1.560   2.457  1.6390  0.2142  0.6672
13224TIP3   OH261162   1.842   2.124   0.851  0.7757  0.5934  0.2887
13224TIP3    H161163   1.935   2.128   0.832  0.9309 -1.8486  0.1170
13224TIP3    H261164   1.807   2.061   0.788 -1.3588  2.6291 -0.7334
13225TIP3   OH261165   3.504   1.344   5.834  0.3848  0.6606  0.3658
13225TIP3    H161166   3.483   1.423   5.883  1.2819  1.0353  0.1817
13225TIP3    H261167   3.511   1.374   5.743 -1.4150 -0.0505 -0.0434
13226TIP3   OH261168   6.820   0.597   2.925 -0.2757  0.1666  0.5608
13226TIP3    H161169   6.827   0.557   3.011 -0.5597 -1.1666 -0.0001
13226TIP3    H261170   6.906   0.635   2.908  0.0652 -0.3774  1.0567
13227TIP3   OH261171   3.939   6.575   5.676 -0.1649  0.4637  0.3367
13227TIP3    H161172   3.873   6.638   5.704 -1.1636 -0.7726  0.8780
13227TIP3    H261173   3.978   6.542   5.757  1.5153  1.5324  0.0163
13228TIP3   OH261174   5.962   1.744  14.714 -0.4998 -0.2359  0.3958
13228TIP3    H161175   6.008   1.808  14.768 -0.2955 -0.2582  0.2508
13228TIP3    H261176   5.921   1.685  14.777  0.4807 -0.7941  0.5448
13229TIP3   OH261177   3.833   0.278  15.425 -0.2278  0.1054 -0.3358
13229TIP3    H161178   3.739   0.285  15.443 -1.1580 -0.4920 -4.1098
13229TIP3    H261179   3.862   0.205  15.478 -2.5532 -1.3728 -0.9524
13230TIP3   OH261180   3.393   4.794   3.275 -0.2202  0.3840  0.5700
13230TIP3    H161181   3.389   4.819   3.183 -1.3800  0.1637  0.5441
13230TIP3    H261182   3.413   4.876   3.321 -3.2648  1.3305  0.4232
13231TIP3   OH261183   6.665   6.168   3.097 -0.4600 -0.3608 -0.6444
13231TIP3    H161184   6.612   6.226   3.043 -0.0555  0.1846 -0.4676
13231TIP3    H261185   6.710   6.227   3.158 -1.5168 -1.0158  0.8174
13232TIP3   OH261186   6.238   4.889   6.155  0.0287  0.6906 -1.3436
13232TIP3    H161187   6.160   4.942   6.172  0.5646  1.2689 -0.6464
13232TIP3    H261188   6.263   4.911   6.066 -0.1785  1.0594 -1.3136
13233TIP3   OH261189   1.385   5.239  12.038  0.0301  1.2825  0.2012
13233TIP3    H161190   1.339   5.156  12.024  0.9260  0.7611  0.2335
13233TIP3    H261191   1.402   5.272  11.949  0.5888  0.8951  0.1552
13234TIP3   OH261192   0.261   5.247  15.240  0.0958  0.2564  0.4403
13234TIP3    H161193   0.272   5.158  15.274  1.0698  0.8817  1.8469
13234TIP3    H261194   0.314   5.302  15.297  1.5247  1.4567 -1.8728
13235TIP3   OH261195   0.839   5.242   4.981 -0.8642 -0.0516  0.4113
13235TIP3    H161196   0.920   5.270   4.937 -1.6599  0.8250 -0.5610
13235TIP3    H261197   0.839   5.291   5.064 -0.5839  0.2369  0.2439
13236TIP3   OH261198   5.870   0.800  16.886 -0.6666 -0.1355  0.7747
13236TIP3    H161199   5.830   0.874  16.931 -0.8703 -0.2705  0.8144
13236TIP3    H261200   5.921   0.840  16.815  1.6023  0.2702  2.5249
13237TIP3   OH261201   6.737   6.124  15.355 -0.4165 -0.0315  0.0623
13237TIP3    H161202   6.720   6.175  15.434  3.0557  1.1062  0.2739
13237TIP3    H261203   6.807   6.064  15.381 -2.0428 -2.6286 -1.1293
13238TIP3   OH261204   5.639   3.895  13.612 -0.0385 -0.0727 -0.4758
13238TIP3    H161205   5.713   3.948  13.641 -1.1586  1.6902 -0.7333
13238TIP3    H261206   5.638   3.905  13.516 -1.4631  1.1751 -0.3744
13239TIP3   OH261207   2.565   1.214  16.926  0.0213 -0.3395 -0.6250
13239TIP3    H161208   2.552   1.143  16.990  0.3586 -0.6188 -0.8617
13239TIP3    H261209   2.494   1.275  16.944  0.0726 -0.4450 -0.0211
13240TIP3   OH261210   0.750   1.267   2.082  0.5270  0.6919 -0.0461
13240TIP3    H161211   0.673   1.251   2.028  0.1828  0.9832  0.3473
13240TIP3    H261212   0.726   1.342   2.137  0.2223 -0.5855  1.6605
13241TIP3   OH261213   3.971   0.729  12.098  0.4092  0.2371 -0.5119
13241TIP3    H161214   3.877   0.719  12.116  0.5214 -1.8618 -0.8011
13241TIP3    H261215   3.976   0.794  12.028 -0.6384  1.9633  0.9120
13242TIP3   OH261216   3.476   6.096   0.675 -0.2164  0.3628  0.0074
13242TIP3    H161217   3.566   6.079   0.703 -1.0834 -1.5517  1.8941
13242TIP3    H261218   3.450   6.173   0.725 -0.0112  0.1902  0.3839
13243TIP3   OH261219   3.591   6.167   2.039 -0.1494 -0.5354  0.2015
13243TIP3    H161220   3.681   6.161   2.068 -0.3393  1.7275  1.4275
13243TIP3    H261221   3.556   6.078   2.049  0.7618 -0.6298  3.7647
13244TIP3   OH261222   3.547   3.487  11.908  0.1632 -0.0427 -0.2015
13244TIP3    H161223   3.616   3.544  11.941 -0.2017  0.1529  0.2288
13244TIP3    H261224   3.593   3.409  11.877  0.9228  1.2835 -2.7586
13245TIP3   OH261225   3.955   2.072   1.900  0.1921  0.0677  0.3787
13245TIP3    H161226   4.041   2.087   1.940 -0.3065 -2.0832  2.5031
13245TIP3    H261227   3.975   2.022   1.821  0.9261 -3.3621  2.4873
13246TIP3   OH261228   5.921   0.866   1.117 -0.2906  0.0847  0.3381
13246TIP3    H161229   5.943   0.914   1.038 -1.3861  0.1162  0.0437
13246TIP3    H261230   5.969   0.783   1.110 -1.9572 -0.7984 -1.3617
13247TIP3   OH261231   2.726   2.258  16.191 -0.2214 -0.3599  0.3316
13247TIP3    H161232   2.636   2.237  16.216 -0.0874 -2.0489 -0.4502
13247TIP3    H261233   2.763   2.302  16.268 -1.0692 -1.5999  1.4887
13248TIP3   OH261234   5.189   5.906  16.248 -0.0952 -0.2117 -0.3771
13248TIP3    H161235   5.099   5.888  16.221 -0.0172 -0.2544 -0.6062
13248TIP3    H261236   5.231   5.819  16.251  0.4702 -0.0423 -2.1382
13249TIP3   OH261237   5.787   3.136  16.126  0.1050 -0.4486  0.3505
13249TIP3    H161238   5.850   3.205  16.105  0.0271 -0.3556  0.4236
13249TIP3    H261239   5.728   3.175  16.190  0.0392 -0.5723  0.3654
13250TIP3   OH261240   1.729   4.483  14.533 -0.1777  0.5569 -0.0577
13250TIP3    H161241   1.700   4.432  14.609  1.0312 -0.5979 -0.3357
13250TIP3    H261242   1.649   4.495  14.480 -0.4051 -1.6525 -0.3145
13251TIP3   OH261243   2.012   4.821   1.002 -0.5269  0.5239 -0.1813
13251TIP3    H161244   1.980   4.756   1.064 -1.0450  1.2197  0.3026
13251TIP3    H261245   2.034   4.897   1.056  0.2581  0.6837 -0.7117
13252TIP3   OH261246   1.065   4.458   0.267  1.0206 -0.1368  0.1866
13252TIP3    H161247   1.159   4.449   0.251  1.0758  0.3799  0.2024
13252TIP3    H261248   1.031   4.500   0.188  0.8378 -0.1136  0.2780
13253TIP3   OH261249   3.620   3.459  13.119  0.2288  0.0548  0.0436
13253TIP3    H161250   3.613   3.497  13.031  1.3676 -3.8108 -1.9331
13253TIP3    H261251   3.531   3.437  13.144 -0.1416  1.5159  0.0944
13254TIP3   OH261252   3.697   0.230  11.298 -0.3860 -0.5850  0.1042
13254TIP3    H161253   3.656   0.190  11.221 -1.9747  0.4000  0.3885
13254TIP3    H261254   3.662   0.319  11.300  2.7416  0.7987 -0.3017
13255TIP3   OH261255   2.419   4.271   4.928 -0.1944  0.1511 -0.3732
13255TIP3    H161256   2.355   4.314   4.870 -0.3182  1.1544  0.4902
13255TIP3    H261257   2.408   4.178   4.909 -0.0517  0.4467 -2.1570
13256TIP3   OH261258   4.491   3.971  16.843 -0.3285 -0.0304 -0.2333
13256TIP3    H161259   4.548   4.039  16.807 -0.5038 -0.5621 -1.5529
13256TIP3    H261260   4.499   3.982  16.938  1.7190  0.1145 -0.3763
13257TIP3   OH261261   0.425   1.422   0.263  0.3266  0.3562 -0.5319
13257TIP3    H161262   0.469   1.410   0.347 -1.0912  0.9441  0.3242
13257TIP3    H261263   0.469   1.497   0.224  1.4020 -0.2935 -0.6133
13258TIP3   OH261264   6.054   1.082  14.754  0.1738 -0.3602 -0.6359
13258TIP3    H161265   6.083   1.167  14.788 -0.9592 -0.5013  0.7612
13258TIP3    H261266   6.130   1.025  14.763 -0.2150 -0.5505  2.2823
13259TIP3   OH261267   4.072   1.641  16.235 -0.1463 -0.2028 -0.3896
13259TIP3    H161268   4.113   1.706  16.292 -0.0710 -0.1130 -0.5447
13259TIP3    H261269   4.036   1.692  16.162 -1.2795 -0.1806  0.1591
13260TIP3   OH261270   5.308   6.672  16.576 -0.0353  0.0495  0.2529
13260TIP3    H161271   5.279   6.752  16.618 -0.2224  0.0448  0.1341
13260TIP3    H261272   5.250   6.662  16.500 -0.8921 -0.9109  1.0078
13261TIP3   OH261273   2.382   5.866  10.603  0.4833 -0.1808 -0.0124
13261TIP3    H161274   2.295   5.905  10.597  1.0971  1.1749 -0.5719
13261TIP3    H261275   2.371   5.792  10.662 -0.7812  0.7814  1.0276
13262TIP3   OH261276   3.164   0.936   6.629 -0.1443 -0.3828 -0.2298
13262TIP3    H161277   3.215   1.012   6.601 -1.8052  2.1550  2.9781
13262TIP3    H261278   3.229   0.872   6.658  1.2557  0.3478 -1.5862
13263TIP3   OH261279   4.800   0.271   2.680 -0.5804 -0.4152  0.3293
13263TIP3    H161280   4.801   0.175   2.681 -0.6971 -0.4188  1.0037
13263TIP3    H261281   4.859   0.296   2.751  0.9859  0.0529 -1.0640
13264TIP3   OH261282   4.633   1.165  16.593  0.6582 -0.2762 -0.2194
13264TIP3    H161283   4.641   1.199  16.504  0.6297  0.0227 -0.1096
13264TIP3    H261284   4.545   1.130  16.598  0.9028 -0.9617 -0.5362
13265TIP3   OH261285   5.943   6.304   1.884 -0.6204  0.0637  0.1596
13265TIP3    H161286   5.860   6.350   1.870 -0.2671  0.1600 -1.8731
13265TIP3    H261287   5.951   6.297   1.979 -1.4650  2.7657  0.4892
13266TIP3   OH261288   4.689   6.552  10.594  0.3772 -0.5339 -0.4169
13266TIP3    H161289   4.653   6.570  10.681  3.4534  3.4074  0.3940
13266TIP3    H261290   4.723   6.463  10.600 -0.2644 -0.6873  2.1237
13267TIP3   OH261291   1.811   1.854  13.494 -0.0978  0.5809  0.9251
13267TIP3    H161292   1.894   1.829  13.535  0.5905 -0.2753 -0.8939
13267TIP3    H261293   1.752   1.782  13.513  1.1799 -1.5152 -2.2183
13268TIP3   OH261294   4.514   4.660  13.062 -0.2767  0.3357  0.1825
13268TIP3    H161295   4.532   4.715  13.138 -0.9893  0.3648  0.3406
13268TIP3    H261296   4.474   4.581  13.098 -0.3595  0.2289 -0.1368
13269TIP3   OH261297   2.598   5.917   4.184 -0.1341  0.6044 -0.1238
13269TIP3    H161298   2.570   6.007   4.166 -0.6912  0.8591  1.8421
13269TIP3    H261299   2.516   5.866   4.183 -0.2744  0.7084  1.9199
13270TIP3   OH261300   5.367   5.814  15.193  0.1362  0.7101  0.0143
13270TIP3    H161301   5.449   5.805  15.145  2.0532 -0.2077  3.1699
13270TIP3    H261302   5.391   5.803  15.285 -3.4244  1.2582  1.1893
13271TIP3   OH261303   0.535   2.960   1.945 -0.1659 -0.0726 -0.0425
13271TIP3    H161304   0.622   2.964   1.984  0.3758  0.0221 -1.2067
13271TIP3    H261305   0.551   2.934   1.854 -1.2926  0.6044 -0.4569
13272TIP3   OH261306   4.954   2.610  12.559 -0.0447 -0.0597 -0.4674
13272TIP3    H161307   4.859   2.608  12.568 -0.1556  0.6005 -1.3101
13272TIP3    H261308   4.969   2.648  12.473  0.9941  0.6165 -0.0170
13273TIP3   OH261309   2.165   2.034  16.779 -0.2757 -0.2204  0.2842
13273TIP3    H161310   2.221   2.045  16.856 -1.5422  2.2013  0.9450
13273TIP3    H261311   2.221   2.058  16.705 -0.1716  1.3968  0.8615
13274TIP3   OH261312   3.721   4.691  17.195 -0.1102 -0.1301  0.0520
13274TIP3    H161313   3.661   4.617  17.204  1.0838 -1.0776  0.6156
13274TIP3    H261314   3.806   4.651  17.174  0.9474  0.8941  1.9739
13275TIP3   OH261315   3.191   1.619   1.367  0.2651  0.4674  0.0707
13275TIP3    H161316   3.183   1.534   1.410 -1.5024 -0.1644 -1.3615
13275TIP3    H261317   3.251   1.603   1.294 -1.3663 -0.0618 -1.2210
13276TIP3   OH261318   4.745   6.226   4.311  0.1130 -0.0617 -0.2985
13276TIP3    H161319   4.733   6.262   4.399  1.1918 -0.9248  0.2343
13276TIP3    H261320   4.663   6.181   4.293 -0.8604  1.7427 -0.5603
13277TIP3   OH261321   5.201   0.633  10.723 -0.1487 -0.1141 -0.6057
13277TIP3    H161322   5.280   0.687  10.727  0.1302 -0.4912 -0.9605
13277TIP3    H261323   5.140   0.684  10.670  0.4017 -0.4914 -1.6375
13278TIP3   OH261324   1.336   2.508  10.218 -0.3102 -0.8065  0.0831
13278TIP3    H161325   1.303   2.436  10.272  0.0373 -1.0832 -0.0634
13278TIP3    H261326   1.359   2.466  10.135 -3.5709  0.0452 -1.4095
13279TIP3   OH261327   0.468   0.898   1.716  0.2360  0.1512 -0.3254
13279TIP3    H161328   0.551   0.896   1.764 -0.5702 -1.0272  1.1129
13279TIP3    H261329   0.402   0.919   1.782 -0.7192  0.2433 -1.2743
13280TIP3   OH261330   0.781   0.236   3.739  0.0256 -0.4352  0.3187
13280TIP3    H161331   0.705   0.178   3.740 -0.7585  0.5613  0.2597
13280TIP3    H261332   0.786   0.267   3.648  1.0528 -1.1854  0.1059
13281TIP3   OH261333   0.636   5.617  11.824 -0.5570 -0.0688 -0.1197
13281TIP3    H161334   0.648   5.687  11.759 -1.3170 -0.2946 -0.5104
13281TIP3    H261335   0.669   5.538  11.781 -2.0395 -0.4187 -0.6508
13282TIP3   OH261336   4.988   2.858   3.140 -0.2431  0.4132  0.8409
13282TIP3    H161337   5.078   2.846   3.110 -0.1636  1.4156  0.6315
13282TIP3    H261338   4.993   2.934   3.199 -1.3346  2.0941 -1.0904
13283TIP3   OH261339   2.785   0.116   6.305 -0.0430  0.7664  0.0166
13283TIP3    H161340   2.717   0.105   6.372  1.1525 -0.2841  1.1290
13283TIP3    H261341   2.797   0.211   6.298 -1.7787  0.9882 -0.4117
13284TIP3   OH261342   3.218   6.747  15.406 -0.1850 -0.5909 -0.3629
13284TIP3    H161343   3.240   6.672  15.462 -0.2895 -0.8985 -0.7257
13284TIP3    H261344   3.296   6.760  15.352  0.3277  0.3939  0.5851
13285TIP3   OH261345   5.803   4.634  12.907  0.0716  0.3294 -0.5527
13285TIP3    H161346   5.737   4.601  12.845  0.9840  0.1960 -1.4803
13285TIP3    H261347   5.887   4.621  12.862  0.9250 -1.2202  1.3312
13286TIP3   OH261348   3.920   6.220   5.766 -0.2575  0.2485  0.2575
13286TIP3    H161349   3.886   6.157   5.703  1.7422 -1.7646  1.0812
13286TIP3    H261350   3.851   6.226   5.832 -1.0557  0.0281 -0.5266
13287TIP3   OH261351   6.305   6.418   1.540  0.7266 -0.0696  0.1868
13287TIP3    H161352   6.238   6.392   1.476  1.2667  1.9116 -1.2798
13287TIP3    H261353   6.259   6.417   1.624 -0.6787 -0.4171 -0.5492
13288TIP3   OH261354   3.592   5.875   3.463  0.4397  0.5382 -0.9609
13288TIP3    H161355   3.598   5.969   3.480  0.6108  0.5753 -1.2233
13288TIP3    H261356   3.608   5.867   3.369  0.2469  0.2640 -0.9723
13289TIP3   OH261357   0.826   4.193  10.789  0.2581 -0.6223  0.0160
13289TIP3    H161358   0.902   4.234  10.831 -0.9716  0.2854  1.4678
13289TIP3    H261359   0.826   4.103  10.822  0.9302 -0.7439 -0.3107
13290TIP3   OH261360   5.033   1.244  11.486  0.2310 -0.8087 -0.0130
13290TIP3    H161361   5.016   1.208  11.399 -2.2410  0.5814 -0.1814
13290TIP3    H261362   4.950   1.236  11.532  1.0065  0.0914  1.6231
13291TIP3   OH261363   0.384   2.708  12.876 -0.0582 -0.1612  0.2001
13291TIP3    H161364   0.429   2.767  12.936  1.6750 -0.6873 -0.5106
13291TIP3    H261365   0.413   2.736  12.789  0.1396 -1.5102 -0.1939
13292TIP3   OH261366   2.949   5.996   6.526 -0.6602  0.4842  0.9087
13292TIP3    H161367   2.915   5.991   6.437  0.0004  0.5831  0.6425
13292TIP3    H261368   2.989   5.910   6.541  0.3744  0.9019  0.6238
13293TIP3   OH261369   1.989   3.613   2.982  0.6365  0.6150  0.3790
13293TIP3    H161370   1.966   3.570   3.064  2.3235  0.2250  0.6875
13293TIP3    H261371   2.060   3.560   2.946  0.5976  1.3516 -0.8463
13294TIP3   OH261372   6.621   1.970   5.552 -0.3955 -0.1999  0.3087
13294TIP3    H161373   6.607   1.899   5.490 -1.3084 -1.0921  1.4721
13294TIP3    H261374   6.554   2.035   5.529  0.5017  0.3596 -0.8171
13295TIP3   OH261375   3.756   1.413   2.324 -0.5100 -0.2016 -0.2875
13295TIP3    H161376   3.759   1.327   2.366  1.5616 -0.1545 -0.2182
13295TIP3    H261377   3.844   1.425   2.287 -0.5376  2.1179  0.2056
13296TIP3   OH261378   4.352   3.325   0.087  0.5676 -0.1756  0.1067
13296TIP3    H161379   4.367   3.230   0.087  0.3988 -0.2048 -0.5656
13296TIP3    H261380   4.393   3.356   0.007  0.0356  0.2269 -0.0147
13297TIP3   OH261381   1.778   6.762  11.372 -0.5592 -0.1043 -0.3180
13297TIP3    H161382   1.712   6.734  11.308 -1.0075 -3.2751  1.2950
13297TIP3    H261383   1.802   6.681  11.417  0.7633  1.7351  2.5462
13298TIP3   OH261384   1.840   2.055   1.786  0.5133  0.6495  0.0367
13298TIP3    H161385   1.895   1.983   1.816  0.5910  0.8411  0.3627
13298TIP3    H261386   1.819   2.104   1.866  0.1605  0.7791 -0.1324
13299TIP3   OH261387   2.685   1.366   5.241 -0.1886  0.1336  0.5398
13299TIP3    H161388   2.776   1.365   5.211 -0.2172  2.4029  0.2166
13299TIP3    H261389   2.636   1.409   5.171 -2.0966 -3.3851 -0.5244
13300TIP3   OH261390   4.244   3.750   2.755  0.2955  0.4518  0.5157
13300TIP3    H161391   4.189   3.776   2.829  0.3701  2.1512  0.0218
13300TIP3    H261392   4.222   3.658   2.739 -0.4098  0.3317  2.0276
13301TIP3   OH261393   4.510   2.474   1.516 -0.2623  0.7966 -0.0238
13301TIP3    H161394   4.517   2.547   1.455  0.6075  0.5790 -0.1955
13301TIP3    H261395   4.578   2.490   1.581 -1.3365  1.1637  1.0669
13302TIP3   OH261396   1.729   5.994   4.207 -0.2182 -0.0941  0.1131
13302TIP3    H161397   1.763   6.001   4.118  1.5491  0.9334  0.8185
13302TIP3    H261398   1.643   5.953   4.197 -0.9474  1.7715 -2.2622
13303TIP3   OH261399   6.408   0.924  16.269 -0.1282 -0.0063  0.4338
13303TIP3    H161400   6.462   0.957  16.197 -1.4430  1.4223  0.0704
13303TIP3    H261401   6.411   0.993  16.335 -1.7208  0.2102  0.2946
13304TIP3   OH261402   5.035   3.618   4.982 -0.0265  0.1464 -0.3222
13304TIP3    H161403   4.978   3.559   5.032  0.4549  0.1272  0.2116
13304TIP3    H261404   5.118   3.617   5.029  0.6333 -0.3228 -1.4579
13305TIP3   OH261405   4.239   6.529   6.526  0.4794 -0.6941  0.1397
13305TIP3    H161406   4.233   6.444   6.569  0.7104 -0.6995  0.1647
13305TIP3    H261407   4.233   6.592   6.597 -2.5837 -0.5740 -0.1116
13306TIP3   OH261408   6.750   0.595  11.306  0.1533 -0.3592  0.0164
13306TIP3    H161409   6.819   0.625  11.248  0.4348  1.9237  1.4222
13306TIP3    H261410   6.784   0.514  11.344  1.0759 -0.4587 -0.9678
13307TIP3   OH261411   5.103   0.543  17.097  0.2855  0.0088 -0.0008
13307TIP3    H161412   5.074   0.627  17.063 -0.0211 -0.4576 -0.9293
13307TIP3    H261413   5.199   0.551  17.102  0.2189  0.5884  0.4206
13308TIP3   OH261414   2.508   5.651   5.211  0.5255  0.2726 -1.1437
13308TIP3    H161415   2.494   5.561   5.179 -0.8178  1.0566 -2.9874
13308TIP3    H261416   2.424   5.675   5.251  1.1144  0.4919  0.0045
13309TIP3   OH261417   0.896   2.509   2.382  0.1634  0.2729  0.2495
13309TIP3    H161418   0.814   2.557   2.382 -0.4424 -0.7335  0.4057
13309TIP3    H261419   0.897   2.463   2.466  1.3705  1.0572  0.6934
13310TIP3   OH261420   4.244   0.828   2.603  0.0770  0.2198 -0.5388
13310TIP3    H161421   4.254   0.859   2.693  1.6662 -0.1298 -0.5718
13310TIP3    H261422   4.260   0.734   2.609 -0.6691  0.0531 -1.0682
13311TIP3   OH261423   6.030   4.513   4.508 -0.1139  0.6432 -0.4009
13311TIP3    H161424   6.116   4.493   4.471  0.3985 -0.4797  1.2648
13311TIP3    H261425   6.036   4.482   4.599 -2.2480  0.6225 -0.2276
13312TIP3   OH261426   0.606   6.825  10.501 -0.1045 -0.3663 -0.1291
13312TIP3    H161427   0.552   6.811  10.423  0.4140  0.3557 -0.6228
13312TIP3    H261428   0.643   6.912  10.490  0.8864 -0.7064  0.3679
13313TIP3   OH261429   1.544   6.640   3.023 -0.0308 -0.1123  0.0770
13313TIP3    H161430   1.617   6.588   3.055  0.8590  1.3058  0.4354
13313TIP3    H261431   1.522   6.698   3.096 -0.6583  0.3584 -0.4709
13314TIP3   OH261432   2.503   2.462   1.795  0.1789  0.0840 -0.5688
13314TIP3    H161433   2.505   2.407   1.716 -0.8171 -0.3022 -0.3340
13314TIP3    H261434   2.543   2.409   1.863 -0.0315 -0.0373 -0.5387
13315TIP3   OH261435   1.896   6.296  10.920 -0.5656 -0.3719 -0.7811
13315TIP3    H161436   1.901   6.243  10.840 -0.2159  1.0309 -1.7195
13315TIP3    H261437   1.860   6.380  10.891  3.0820  1.5694 -0.2728
13316TIP3   OH261438   1.464   5.410   1.591 -0.2235  0.4102  0.2378
13316TIP3    H161439   1.449   5.477   1.524 -1.1985 -1.5201 -1.5999
13316TIP3    H261440   1.552   5.377   1.573  0.2889  1.2239  1.1944
13317TIP3   OH261441   0.939   0.896   3.863 -0.5293 -0.0636 -0.1426
13317TIP3    H161442   0.925   0.949   3.785 -2.4570 -1.1912 -0.6249
13317TIP3    H261443   0.947   0.807   3.831 -1.8397 -0.6126  0.9557
13318TIP3   OH261444   1.997   5.647   4.998  0.0138  0.1253 -0.0881
13318TIP3    H161445   2.000   5.742   4.989 -3.1071  0.3659  0.2651
13318TIP3    H261446   1.936   5.632   5.071  1.3442 -2.1613  0.6476
13319TIP3   OH261447   1.975   4.903   1.481  0.0237  0.5221 -0.0014
13319TIP3    H161448   2.037   4.831   1.490 -2.2873 -1.6299 -0.0584
13319TIP3    H261449   2.014   4.975   1.530  2.4449 -0.7460  0.0812
13320TIP3   OH261450   2.876   4.568  12.357  0.9670  0.6009  0.0908
13320TIP3    H161451   2.853   4.483  12.321  0.1810 -0.1518  2.2543
13320TIP3    H261452   2.911   4.549  12.444  0.1173  2.5311  0.8995
13321TIP3   OH261453   4.104   5.570   3.610  0.1610 -0.1567 -0.1086
13321TIP3    H161454   4.050   5.633   3.658  0.8322  0.3830 -0.0385
13321TIP3    H261455   4.052   5.490   3.608 -1.4257  0.8457 -1.6188
13322TIP3   OH261456   1.716   4.805   5.154 -0.7218  0.1697  0.1713
13322TIP3    H161457   1.777   4.792   5.227 -1.3487 -0.7568  0.5520
13322TIP3    H261458   1.762   4.865   5.095  1.0252 -1.3031 -0.0649
13323TIP3   OH261459   5.980   0.051   5.483  0.0075 -0.2885  0.2665
13323TIP3    H161460   5.925  -0.026   5.479 -1.6181  0.8853 -1.3835
13323TIP3    H261461   5.936   0.110   5.545  1.3595 -0.7107  1.7044
13324TIP3   OH261462   0.321   5.996   6.755 -0.8293  0.3168  0.4517
13324TIP3    H161463   0.321   5.904   6.779 -0.7700  0.1611 -0.1294
13324TIP3    H261464   0.360   5.998   6.668 -0.2568  0.9590  0.7128
13325TIP3   OH261465   6.303   2.516  13.721  0.2428 -0.2761  0.1508
13325TIP3    H161466   6.252   2.524  13.802  0.4202  0.9903  0.1491
13325TIP3    H261467   6.240   2.530  13.651  0.0746 -1.4476  0.0447
13326TIP3   OH261468   3.591   0.027   0.718 -0.0869 -0.5942  0.0105
13326TIP3    H161469   3.513  -0.024   0.697  0.0185 -0.5605 -0.4671
13326TIP3    H261470   3.557   0.111   0.749 -0.2604 -0.9341  0.7856
13327TIP3   OH261471   6.591   3.606  14.597  0.2192  0.1476 -0.2118
13327TIP3    H161472   6.656   3.674  14.614 -0.0486  0.2908  0.2846
13327TIP3    H261473   6.549   3.593  14.682 -1.1108  0.8016 -0.7449
13328TIP3   OH261474   2.508   5.569  16.124 -0.2776  0.2147  0.4711
13328TIP3    H161475   2.500   5.518  16.042 -1.0039 -0.3648  0.8897
13328TIP3    H261476   2.434   5.540  16.177 -0.6223  1.6291  0.7870
13329TIP3   OH261477   2.725   2.424  15.348 -0.5223 -0.2815  0.6326
13329TIP3    H161478   2.702   2.400  15.438 -1.1054 -2.5678 -0.0722
13329TIP3    H261479   2.762   2.512  15.356 -0.8020 -0.3125  3.0626
13330TIP3   OH261480   5.467   4.416  14.322  0.1966  0.1656 -0.2742
13330TIP3    H161481   5.411   4.367  14.383  2.0749 -1.1690  0.4622
13330TIP3    H261482   5.491   4.495  14.369  1.2079 -0.6106  0.5636
13331TIP3   OH261483   4.035   5.282   1.337 -0.2207  0.2782  0.0425
13331TIP3    H161484   4.101   5.346   1.364  0.9375 -0.2092 -1.4423
13331TIP3    H261485   4.079   5.198   1.346 -1.3717 -0.2456  0.9741
13332TIP3   OH261486   3.796   5.128  12.899 -0.3166 -0.1329 -0.5547
13332TIP3    H161487   3.733   5.103  12.967 -1.2986 -0.4579 -1.5504
13332TIP3    H261488   3.787   5.060  12.833 -0.1643  0.7643 -1.5152
13333TIP3   OH261489   6.773   1.887   5.755 -0.0426 -0.3142  0.5254
13333TIP3    H161490   6.739   1.797   5.756 -0.4603 -0.1594  0.8769
13333TIP3    H261491   6.713   1.934   5.697 -0.0807 -0.1722  0.6781
13334TIP3   OH261492   5.312   0.864   5.995 -0.3589 -0.3815 -0.7800
13334TIP3    H161493   5.345   0.836   6.081  2.2454  0.1859 -1.5173
13334TIP3    H261494   5.226   0.901   6.014  0.0261 -0.5120  1.5460
13335TIP3   OH261495   4.680   3.762  16.793  0.1310 -0.5623 -0.0026
13335TIP3    H161496   4.602   3.817  16.799 -1.2465 -2.1586 -2.0195
13335TIP3    H261497   4.702   3.762  16.700  2.8579  0.1588  0.5388
13336TIP3   OH261498   6.531   0.258   1.558 -0.0636  0.3444  0.3205
13336TIP3    H161499   6.453   0.279   1.610  0.0470  1.2199  0.1547
13336TIP3    H261500   6.528   0.320   1.485  1.4731  1.2865  1.0117
13337TIP3   OH261501   4.409   5.372   0.783  0.1956  0.7539  0.5546
13337TIP3    H161502   4.389   5.308   0.715  2.3705 -0.6160  1.1004
13337TIP3    H261503   4.431   5.319   0.859  2.1041  2.1282  1.0110
13338TIP3   OH261504   1.545   4.718   6.360  0.0606 -0.0905 -0.2944
13338TIP3    H161505   1.476   4.692   6.421 -0.7326  0.1847 -1.0591
13338TIP3    H261506   1.610   4.648   6.365  0.7693  0.6339  1.9935
13339TIP3   OH261507   2.770   5.949  13.394  0.4102  0.3575  0.6758
13339TIP3    H161508   2.725   5.996  13.323  1.1247 -2.3398 -1.7427
13339TIP3    H261509   2.710   5.878  13.417  0.4811  0.8164  2.4092
13340TIP3   OH261510   0.346   2.757   2.162 -0.4705  0.5802  0.4656
13340TIP3    H161511   0.377   2.703   2.089 -1.2179  1.7894 -0.7980
13340TIP3    H261512   0.251   2.753   2.156 -0.5659 -0.2677  2.1408
13341TIP3   OH261513   3.861   4.007  13.680  0.7006 -0.0899 -0.0032
13341TIP3    H161514   3.832   3.928  13.635  3.8393 -1.0796 -0.5226
13341TIP3    H261515   3.884   4.068  13.610  1.0561  0.1825  0.3476
13342TIP3   OH261516   2.857   5.232   0.799 -0.5068 -0.1489  0.3330
13342TIP3    H161517   2.872   5.325   0.819 -0.2133 -0.1213 -0.0037
13342TIP3    H261518   2.782   5.233   0.739 -0.0821 -0.0785 -0.1999
13343TIP3   OH261519   0.779   5.949   5.687 -0.2041  0.0848 -0.5182
13343TIP3    H161520   0.726   5.968   5.609 -1.0062 -0.1843 -0.0538
13343TIP3    H261521   0.836   5.878   5.660 -1.0276 -0.5483 -0.6545
13344TIP3   OH261522   3.283   5.987  13.133  0.2355 -0.0591 -0.0784
13344TIP3    H161523   3.378   5.988  13.126  0.2490  0.9744  0.0545
13344TIP3    H261524   3.252   6.015  13.046  0.0200 -1.1546 -0.3727
13345TIP3   OH261525   4.863   6.755  10.617 -0.8864  0.4483  0.5425
13345TIP3    H161526   4.820   6.833  10.582  0.4256  1.2407  0.6635
13345TIP3    H261527   4.807   6.682  10.588 -2.1625  1.4228  0.4981
13346TIP3   OH261528   1.031   5.336   6.057 -0.0841 -0.7232 -0.1119
13346TIP3    H161529   1.081   5.255   6.065 -0.0496 -0.9123 -1.7830
13346TIP3    H261530   0.942   5.311   6.081 -0.2223 -1.4752 -1.2601
13347TIP3   OH261531   0.159   4.120   3.746 -0.0663  0.7258  0.1040
13347TIP3    H161532   0.119   4.119   3.659 -0.2722  0.7817  0.1973
13347TIP3    H261533   0.236   4.063   3.738  0.5194  1.5724 -0.3934
13348TIP3   OH261534   4.477   1.229  12.398  0.7611  0.4165  0.0476
13348TIP3    H161535   4.388   1.264  12.396 -0.8279 -3.0889  0.2196
13348TIP3    H261536   4.505   1.230  12.306 -0.5123 -0.6255 -0.3930
13349TIP3   OH261537   2.645   6.448   5.673  0.1104 -0.0542 -0.0514
13349TIP3    H161538   2.728   6.402   5.660 -0.1231 -0.9299  1.3234
13349TIP3    H261539   2.578   6.384   5.652 -0.2373 -0.8570  2.9778
13350TIP3   OH261540   3.361   0.371   4.460 -0.1409 -0.3857  0.3681
13350TIP3    H161541   3.423   0.339   4.395 -0.4872  0.4993 -0.4285
13350TIP3    H261542   3.295   0.302   4.467 -0.4165 -0.2612 -0.6853
13351TIP3   OH261543   5.580   0.163   1.817  0.1208 -0.0914 -0.0115
13351TIP3    H161544   5.615   0.132   1.900  0.0556  0.6550  0.2993
13351TIP3    H261545   5.654   0.157   1.756  0.8553  1.5611  0.6618
13352TIP3   OH261546   5.227   0.188  17.135 -0.0786 -0.2890  0.2730
13352TIP3    H161547   5.195   0.098  17.147 -0.3807 -0.6030 -2.2312
13352TIP3    H261548   5.147   0.241  17.130 -0.0191 -0.2559 -0.5264
13353TIP3   OH261549   4.497   3.340  11.535  0.1563  0.4979 -0.1814
13353TIP3    H161550   4.531   3.259  11.498  0.3558  1.0526 -1.2544
13353TIP3    H261551   4.410   3.317  11.568  1.0731 -0.6593  1.5722
13354TIP3   OH261552   5.118   3.827   4.408 -0.1126 -0.0447  0.1919
13354TIP3    H161553   5.181   3.895   4.386  1.0035 -0.6415  1.3531
13354TIP3    H261554   5.119   3.823   4.504 -1.6589 -0.3248  0.2226
13355TIP3   OH261555   0.291   2.719  12.231  0.0873 -0.2963 -0.4085
13355TIP3    H161556   0.278   2.629  12.262 -1.3268  0.6552  2.0116
13355TIP3    H261557   0.377   2.717  12.188  0.4495 -2.6189  0.2822
13356TIP3   OH261558   3.557   2.235  11.736  0.0093  0.0417  0.3032
13356TIP3    H161559   3.535   2.300  11.669  2.8543  0.1440 -0.6976
13356TIP3    H261560   3.509   2.156  11.710 -1.0296  0.8419 -0.2769
13357TIP3   OH261561   4.564   6.699   4.308 -0.0412 -0.7360  0.5106
13357TIP3    H161562   4.567   6.618   4.258 -1.2115  0.4389 -1.5695
13357TIP3    H261563   4.543   6.671   4.397 -1.6171 -2.6517 -0.3880
13358TIP3   OH261564   4.597   5.794  13.381  0.1302 -0.2853 -0.6240
13358TIP3    H161565   4.609   5.883  13.348  1.7248  0.8479  2.6811
13358TIP3    H261566   4.678   5.773  13.426 -2.0139 -1.3264  3.1673
13359TIP3   OH261567   3.870   3.375  16.327  0.1844  0.0908 -0.0894
13359TIP3    H161568   3.804   3.411  16.386  0.4667  0.8076 -0.2074
13359TIP3    H261569   3.946   3.432  16.338  0.8197 -0.7555  0.0970
13360TIP3   OH261570   6.330   5.372  14.081  0.3432 -0.4745 -1.1100
13360TIP3    H161571   6.284   5.434  14.138  2.1034 -1.6654  1.8451
13360TIP3    H261572   6.423   5.383  14.105  0.7487 -4.0148 -0.6229
13361TIP3   OH261573   0.117   6.738   5.196 -0.0819  0.2535  0.1808
13361TIP3    H161574   0.061   6.699   5.264 -1.1584 -0.1381 -0.8974
13361TIP3    H261575   0.155   6.663   5.150 -1.7663  0.3896 -1.5773
13362TIP3   OH261576   4.768   1.536   1.230 -0.0132 -0.2190  0.0044
13362TIP3    H161577   4.726   1.592   1.295  0.9646 -0.9787  1.3215
13362TIP3    H261578   4.862   1.549   1.243  0.2117 -0.6862 -1.0077
13363TIP3   OH261579   4.371   2.206   3.699 -0.0451  0.4100  0.1676
13363TIP3    H161580   4.304   2.150   3.738  1.4884 -1.3058  0.4544
13363TIP3    H261581   4.385   2.170   3.612  1.4315 -0.0956  0.5964
13364TIP3   OH261582   1.141   5.757   2.618 -1.0275  0.6022  0.0982
13364TIP3    H161583   1.128   5.852   2.621  0.7404  0.8640  0.3344
13364TIP3    H261584   1.133   5.735   2.525 -4.1230  0.4977  0.2612
13365TIP3   OH261585   6.741   3.412   1.351  0.2731  0.1298  0.0649
13365TIP3    H161586   6.684   3.448   1.283  1.2484  1.1811 -0.2329
13365TIP3    H261587   6.687   3.349   1.397 -0.4993 -0.4010 -1.5080
13366TIP3   OH261588   3.606   5.304   4.177  0.2064 -0.6454 -0.3116
13366TIP3    H161589   3.576   5.244   4.109  1.8147 -0.7240 -0.9808
13366TIP3    H261590   3.548   5.380   4.170 -2.1701 -2.2173  0.8393
13367TIP3   OH261591   2.860   3.568  13.558  0.0576 -0.2915  0.2487
13367TIP3    H161592   2.901   3.627  13.621  0.1284  0.7607 -0.7505
13367TIP3    H261593   2.881   3.606  13.473 -0.9212 -1.0984 -0.3732
13368TIP3   OH261594   6.228   0.657  12.701 -0.2885  0.1602 -0.2561
13368TIP3    H161595   6.139   0.683  12.676 -0.6865 -0.6846  0.2529
13368TIP3    H261596   6.217   0.572  12.744  0.7576  0.0909 -0.1103
13369TIP3   OH261597   0.726   1.066   0.899 -0.0737  0.3813 -0.2164
13369TIP3    H161598   0.690   1.036   0.815  0.7527  1.9678 -1.1942
13369TIP3    H261599   0.821   1.064   0.887  0.0657  0.2776  0.8233
13370TIP3   OH261600   0.399   5.087  12.493  0.1251 -0.2088  0.2593
13370TIP3    H161601   0.462   5.084  12.564 -1.2474  1.4436  1.6276
13370TIP3    H261602   0.412   5.004  12.446  2.5670 -0.3665  1.0696
13371TIP3   OH261603   4.714   3.450  16.827  0.2417 -0.2045 -0.6708
13371TIP3    H161604   4.625   3.428  16.856  0.6229 -2.5924 -1.0615
13371TIP3    H261605   4.700   3.508  16.752 -0.9891 -0.4663 -0.6761
13372TIP3   OH261606   1.095   0.264  16.553 -0.2825 -0.1811  0.4921
13372TIP3    H161607   1.109   0.188  16.610  0.3794  0.3177  1.0084
13372TIP3    H261608   1.031   0.234  16.489 -0.1008 -1.1492  0.7446
13373TIP3   OH261609   3.720   0.584   1.548 -0.3511  0.4003  0.1031
13373TIP3    H161610   3.658   0.645   1.508  0.0553 -0.9622 -2.8571
13373TIP3    H261611   3.780   0.560   1.477  0.7599 -1.8500  1.6765
13374TIP3   OH261612   5.958   1.026  11.069 -0.3270  0.0461  0.1863
13374TIP3    H161613   5.950   1.030  10.974 -1.1147  0.3515  0.2566
13374TIP3    H261614   6.001   1.108  11.093  2.0938 -1.0715 -0.0916
13375TIP3   OH261615   1.956   1.458  11.840 -0.3640 -0.2279 -0.7085
13375TIP3    H161616   1.988   1.379  11.796  1.2305 -0.2575  0.4024
13375TIP3    H261617   2.022   1.525  11.821 -0.9144  0.4295 -0.3826
13376TIP3   OH261618   0.761   4.148   4.341  0.6800  0.2429  0.0363
13376TIP3    H161619   0.697   4.209   4.377 -0.2525 -0.1031 -1.0081
13376TIP3    H261620   0.713   4.097   4.276  1.7688 -0.7042 -0.0634
13377TIP3   OH261621   1.654   1.122  13.327  0.0846 -0.0495  0.0231
13377TIP3    H161622   1.610   1.038  13.337  0.3748 -0.5301 -2.2238
13377TIP3    H261623   1.604   1.167  13.257  1.2216  0.7226 -0.3277
13378TIP3   OH261624   3.483   5.524   4.100  0.0165 -0.7371 -0.0875
13378TIP3    H161625   3.397   5.526   4.059  0.4480  0.5900 -1.0468
13378TIP3    H261626   3.483   5.599   4.160  0.7196 -0.2732 -0.6388
13379TIP3   OH261627   3.690   0.433  10.969  0.1163 -0.1165  0.0286
13379TIP3    H161628   3.677   0.476  11.053 -0.5240  0.3091 -0.2775
13379TIP3    H261629   3.610   0.452  10.919  0.4921 -0.3377 -0.6841
13380TIP3   OH261630   3.343   5.036  10.798  0.2371  0.2726  0.2001
13380TIP3    H161631   3.405   5.036  10.725 -1.8483 -0.8850 -1.6948
13380TIP3    H261632   3.277   5.101  10.772 -1.0680 -0.8942  0.5369
13381TIP3   OH261633   6.576   3.487  12.213 -0.1803 -0.2292  0.6185
13381TIP3    H161634   6.575   3.484  12.117 -1.2525  0.2902  0.5896
13381TIP3    H261635   6.594   3.579  12.233  1.2092 -0.5598  0.9421
13382TIP3   OH261636   6.518   5.621   3.858 -0.5108  0.0839 -0.9873
13382TIP3    H161637   6.447   5.675   3.825 -0.7015  1.2002  1.1186
13382TIP3    H261638   6.595   5.678   3.854  0.1406 -0.8390 -2.4522
13383TIP3   OH261639   0.339   5.455  12.438 -0.5812 -0.1352  0.0984
13383TIP3    H161640   0.317   5.409  12.357 -1.5605  0.1039  0.2166
13383TIP3    H261641   0.385   5.534  12.410 -0.4906 -0.2926 -0.1977
13384TIP3   OH261642   5.933   6.351  12.827 -0.0252 -0.6272  0.5092
13384TIP3    H161643   5.978   6.284  12.879  1.2724 -1.1445 -1.1920
13384TIP3    H261644   6.004   6.409  12.797 -0.4691 -1.2821 -1.9921
13385TIP3   OH261645   2.658   2.073   4.474 -0.3599 -0.1811 -0.8514
13385TIP3    H161646   2.691   2.143   4.530  2.5727 -2.1767  0.1748
13385TIP3    H261647   2.591   2.029   4.527  1.7155 -1.4634  0.8607
13386TIP3   OH261648   4.500   5.528   4.167  0.7066 -0.6580  0.5208
13386TIP3    H161649   4.406   5.544   4.174  0.5776 -1.8921  2.1975
13386TIP3    H261650   4.508   5.433   4.168  1.8810 -0.6618 -1.8034
13387TIP3   OH261651   2.637   1.370  16.164 -0.1822 -0.2452  0.5682
13387TIP3    H161652   2.636   1.277  16.143 -2.5365  0.0354 -0.9471
13387TIP3    H261653   2.729   1.390  16.182  0.5701 -2.5556 -0.3899
13388TIP3   OH261654   0.966   2.164   5.328  0.2640 -0.9219 -0.1594
13388TIP3    H161655   0.922   2.082   5.352 -0.1244 -0.3810  1.0733
13388TIP3    H261656   0.904   2.208   5.270 -0.2699 -0.7531  0.5238
13389TIP3   OH261657   3.527   1.477   0.222 -0.1427 -0.1645 -0.4742
13389TIP3    H161658   3.467   1.551   0.220 -1.3790 -1.0096  1.9961
13389TIP3    H261659   3.604   1.508   0.269 -0.8794 -0.5327  1.0339
13390TIP3   OH261660   1.618   3.714  14.667 -0.4713 -0.6157  0.1162
13390TIP3    H161661   1.570   3.660  14.730 -1.3595  0.3163  0.2534
13390TIP3    H261662   1.707   3.677  14.667  0.0002  0.2404  3.0408
13391TIP3   OH261663   4.414   3.612  15.081  0.3753 -0.6767  0.4695
13391TIP3    H161664   4.402   3.615  14.986  1.1158 -1.3195  0.3381
13391TIP3    H261665   4.480   3.678  15.100 -0.8170  0.4702  0.7414
13392TIP3   OH261666   2.369   0.881   1.502  0.8740 -0.5126 -0.1267
13392TIP3    H161667   2.421   0.954   1.538  0.4076  0.5716 -1.5596
13392TIP3    H261668   2.279   0.902   1.526  0.3167  1.1364 -3.1813
13393TIP3   OH261669   4.526   4.288   1.838  0.3749 -0.3469 -0.4096
13393TIP3    H161670   4.597   4.341   1.803 -0.9285  1.5721 -0.2944
13393TIP3    H261671   4.477   4.259   1.761 -0.3755  0.8127 -0.4005
13394TIP3   OH261672   6.785   4.993  10.850 -0.1441 -0.5107 -0.7809
13394TIP3    H161673   6.769   4.966  10.760 -0.2422  0.6814 -1.1434
13394TIP3    H261674   6.698   5.000  10.889 -0.1561 -0.1781 -0.8625
13395TIP3   OH261675   2.355   0.930  12.562  0.1268 -0.0346 -0.7784
13395TIP3    H161676   2.381   0.949  12.652 -0.3092 -0.2692 -0.5952
13395TIP3    H261677   2.435   0.941  12.510  0.2972  0.4685 -0.4177
13396TIP3   OH261678   0.433   2.300  13.869 -0.3130  0.3896 -0.2244
13396TIP3    H161679   0.344   2.275  13.894 -0.1812  0.2025  0.0650
13396TIP3    H261680   0.421   2.368  13.803 -0.6638  1.1051  0.5590
13397TIP3   OH261681   1.021   3.490  11.755  0.7008  0.4289  0.0203
13397TIP3    H161682   1.004   3.584  11.761 -0.3455  0.2948 -0.6671
13397TIP3    H261683   0.938   3.450  11.781  1.0134 -0.3075 -0.1145
13398TIP3   OH261684   0.987   5.408  16.224 -0.2407 -0.2545 -0.7009
13398TIP3    H161685   1.013   5.498  16.211 -2.4284  0.8042  1.3182
13398TIP3    H261686   0.900   5.401  16.184  1.1213 -2.4536 -3.6344
13399TIP3   OH261687   4.778   4.336  13.532 -0.0392 -0.6654  0.0248
13399TIP3    H161688   4.817   4.346  13.619  0.1448  0.9428 -0.2052
13399TIP3    H261689   4.846   4.293  13.480  0.6610  0.2408  0.1596
13400TIP3   OH261690   3.079   5.676  14.981  0.0490 -0.6936  0.4070
13400TIP3    H161691   3.157   5.623  14.991 -0.5343 -1.7537 -0.4691
13400TIP3    H261692   3.050   5.695  15.070  1.1081 -0.5601  0.7292
13401TIP3   OH261693   4.266   1.424   3.112  0.1376  0.4304 -0.1718
13401TIP3    H161694   4.182   1.407   3.070  0.1116  1.7548 -0.7123
13401TIP3    H261695   4.331   1.408   3.044  0.2642  0.2771 -0.0154
13402TIP3   OH261696   3.818   1.327   3.678  0.0821  0.6868  0.9479
13402TIP3    H161697   3.812   1.421   3.696  2.0604  1.5090 -1.9826
13402TIP3    H261698   3.897   1.299   3.725  0.2996  0.8288  0.6700
13403TIP3   OH261699   2.590   6.543   3.514 -0.0421  0.8333 -0.6228
13403TIP3    H161700   2.554   6.478   3.575  0.4843  1.0422 -0.0780
13403TIP3    H261701   2.646   6.492   3.456 -1.8519  0.3653 -2.0410
13404TIP3   OH261702   6.010   0.714   3.547  0.6433  0.7702 -0.1921
13404TIP3    H161703   5.920   0.728   3.577  0.3474 -0.3883 -0.4772
13404TIP3    H261704   6.005   0.636   3.491  1.9196  0.3343  0.2516
13405TIP3   OH261705   4.197   4.887   3.401 -0.3825  0.0219  0.1073
13405TIP3    H161706   4.206   4.933   3.317 -1.3620  1.3369  0.6775
13405TIP3    H261707   4.201   4.957   3.467 -1.7399 -0.7134  1.0280
13406TIP3   OH261708   6.458   4.330   5.955  0.4200  0.4739  0.2768
13406TIP3    H161709   6.382   4.305   6.007  0.2818  0.1836 -0.0545
13406TIP3    H261710   6.427   4.401   5.899  0.4720  0.5533  0.3501
13407TIP3   OH261711   2.926   3.536  10.922 -0.8559 -0.7985 -0.2112
13407TIP3    H161712   2.993   3.554  10.856 -1.3664 -0.3650 -0.6189
13407TIP3    H261713   2.891   3.450  10.899 -1.4850 -0.3675 -0.9033
13408TIP3   OH261714   1.598   0.026  12.747  0.1293 -0.2554 -0.1410
13408TIP3    H161715   1.580   0.083  12.672 -0.1312  1.2915  1.0377
13408TIP3    H261716   1.570   0.077  12.823  1.2008 -1.4150  1.0881
13409TIP3   OH261717   0.476   6.254  13.900 -0.4552  0.1719 -0.3141
13409TIP3    H161718   0.531   6.200  13.957  0.3109 -0.1273 -1.3084
13409TIP3    H261719   0.430   6.312  13.960 -1.8970 -2.0686  0.8731
13410TIP3   OH261720   6.557   3.346   5.067  0.2255 -0.2405  0.5273
13410TIP3    H161721   6.474   3.329   5.024 -0.5688 -1.2294  2.3319
13410TIP3    H261722   6.568   3.441   5.061 -0.0642 -0.2928 -1.3665
13411TIP3   OH261723   5.264   3.342  16.885 -0.4456  0.3481  0.6248
13411TIP3    H161724   5.325   3.274  16.914  1.7440  1.9925  0.1357
13411TIP3    H261725   5.268   3.409  16.953 -1.4437  0.6534  0.4021
13412TIP3   OH261726   0.043   0.779  16.135  0.3537  0.0152 -0.4862
13412TIP3    H161727   0.114   0.785  16.072  0.9400 -0.2316  0.1309
13412TIP3    H261728   0.053   0.857  16.190  0.9654 -0.6581  0.4049
13413TIP3   OH261729   1.675   5.652   1.206 -0.0521 -0.4729 -0.3907
13413TIP3    H161730   1.735   5.725   1.189 -1.5978  1.2917  1.2136
13413TIP3    H261731   1.732   5.578   1.225  1.6364  0.9096  0.1944
13414TIP3   OH261732   1.542   3.977  14.598  0.3266 -0.1968 -0.0856
13414TIP3    H161733   1.632   4.010  14.594  0.6986 -1.2903 -1.4891
13414TIP3    H261734   1.552   3.883  14.610 -0.5421 -0.6413 -2.3318
13415TIP3   OH261735   5.064   6.184   3.943 -0.0960 -0.3749  0.9776
13415TIP3    H161736   4.988   6.193   3.885  0.3764  0.0003  0.4012
13415TIP3    H261737   5.079   6.089   3.948  1.5747 -0.3900 -1.8537
13416TIP3   OH261738   2.402   3.781  11.354  0.1978  0.5113  0.0752
13416TIP3    H161739   2.374   3.841  11.285  1.1496  0.9318  0.0463
13416TIP3    H261740   2.337   3.793  11.424 -0.0487  1.0197 -0.2365
13417TIP3   OH261741   4.811   0.265  15.637  0.1421  0.1470 -0.6043
13417TIP3    H161742   4.794   0.355  15.664  2.0004 -0.3138  2.5199
13417TIP3    H261743   4.872   0.274  15.563  0.0902  1.4261 -0.5211
13418TIP3   OH261744   5.136   2.237   0.407  0.0248  0.2007 -0.3058
13418TIP3    H161745   5.113   2.326   0.381  0.7536  0.3262 -0.5432
13418TIP3    H261746   5.197   2.207   0.339 -0.1166 -0.4312 -0.1606
13419TIP3   OH261747   3.759   4.841  13.672  0.2405  0.5205  0.7481
13419TIP3    H161748   3.737   4.912  13.611  1.7479  0.6462  0.3021
13419TIP3    H261749   3.848   4.863  13.701  1.2525 -1.8109 -0.3500
13420TIP3   OH261750   2.331   3.662   3.152  0.3942 -0.6713  0.1939
13420TIP3    H161751   2.420   3.685   3.180  0.0287 -0.2134  1.0216
13420TIP3    H261752   2.333   3.567   3.143  0.9275 -0.6804  0.3559
13421TIP3   OH261753   0.969   6.571  11.331 -0.4820 -0.1122 -0.3548
13421TIP3    H161754   0.905   6.613  11.389 -1.6336 -1.2822 -0.7358
13421TIP3    H261755   1.020   6.516  11.390  0.3069  0.9244 -0.0281
13422TIP3   OH261756   4.518   3.601   1.871 -0.6987  0.0925 -0.0197
13422TIP3    H161757   4.595   3.582   1.926  0.4851  0.0112 -1.6292
13422TIP3    H261758   4.494   3.516   1.834 -1.5772  0.1279  0.4431
13423TIP3   OH261759   1.935   5.210   4.744 -0.1377  0.4369  0.4661
13423TIP3    H161760   1.874   5.204   4.818 -0.4819 -1.3306  0.0780
13423TIP3    H261761   1.880   5.204   4.666  0.4957 -1.9802  0.1056
13424TIP3   OH261762   1.764   0.840  16.878  0.1860  0.2507  1.2034
13424TIP3    H161763   1.857   0.823  16.891  0.6105  1.3257 -0.0899
13424TIP3    H261764   1.752   0.834  16.783 -1.2973 -0.8819  1.4231
13425TIP3   OH261765   4.483   3.235  10.604 -0.1980 -0.4145  0.1282
13425TIP3    H161766   4.528   3.306  10.558 -1.5979 -0.5443 -1.5555
13425TIP3    H261767   4.552   3.171  10.624  0.9318  1.0035  0.9020
13426TIP3   OH261768   1.632   5.266  15.426 -0.2849  0.0980 -0.7990
13426TIP3    H161769   1.646   5.351  15.468 -0.0991  0.2103 -1.0787
13426TIP3    H261770   1.614   5.288  15.334 -2.9607 -0.0031 -0.3580
13427TIP3   OH261771   2.005   2.055   1.154  0.2054  0.6584  0.0361
13427TIP3    H161772   2.065   2.012   1.093  0.1714  1.3573 -0.4917
13427TIP3    H261773   1.933   1.993   1.164  0.8137 -0.0237  0.3789
13428TIP3   OH261774   3.711   0.867   4.419  0.5282 -0.2568  0.3497
13428TIP3    H161775   3.715   0.796   4.483  1.3775 -1.8955 -1.4356
13428TIP3    H261776   3.789   0.855   4.365 -0.3193  0.8581 -1.2049
13429TIP3   OH261777   4.303   6.752  14.765  1.3095  0.1972  0.4984
13429TIP3    H161778   4.279   6.669  14.807 -0.7773  0.6599  0.3137
13429TIP3    H261779   4.245   6.817  14.805  0.6918  1.0141 -1.5832
13430TIP3   OH261780   6.188   1.252  13.978 -0.2663 -0.0083 -0.2263
13430TIP3    H161781   6.207   1.195  13.904 -0.0359 -0.0607 -0.1273
13430TIP3    H261782   6.095   1.275  13.968 -0.7962 -1.6663  0.5903
13431TIP3   OH261783   5.888   2.758   1.071  0.1905 -0.2326 -0.5171
13431TIP3    H161784   5.882   2.730   1.162  1.0719 -0.5305 -0.5356
13431TIP3    H261785   5.850   2.846   1.070  0.8388  0.0735  0.2935
13432TIP3   OH261786   1.546   2.611   4.631 -0.1743  0.3246 -0.5872
13432TIP3    H161787   1.506   2.659   4.559 -1.2138  0.0788 -0.1830
13432TIP3    H261788   1.474   2.562   4.671  0.6998 -0.8927 -0.4508
13433TIP3   OH261789   3.337   4.150   3.294  0.0129  0.0698  0.1371
13433TIP3    H161790   3.308   4.233   3.332  0.2905  0.4144 -0.3866
13433TIP3    H261791   3.425   4.168   3.261  0.1437 -0.4838  0.1720
13434TIP3   OH261792   0.800   0.098   0.098  0.1472  0.0040 -0.4667
13434TIP3    H161793   0.789   0.093   0.003 -1.0479  0.7256 -0.3934
13434TIP3    H261794   0.788   0.191   0.119 -2.6912 -0.4906  0.6667
13435TIP3   OH261795   3.135   2.611  13.853  0.7876 -0.5193  0.4328
13435TIP3    H161796   3.169   2.621  13.763  0.9770  0.0101  0.5584
13435TIP3    H261797   3.188   2.541  13.891  1.3844 -0.0629  0.4523
13436TIP3   OH261798   2.892   1.877  15.598  0.0214 -0.0561 -0.4918
13436TIP3    H161799   2.968   1.917  15.639 -0.1053 -0.0030 -0.3081
13436TIP3    H261800   2.817   1.924  15.634 -0.0494  0.6897 -1.5508
13437TIP3   OH261801   1.481   3.309  12.530  0.0464 -0.0332 -0.5581
13437TIP3    H161802   1.395   3.306  12.490  0.1888  1.2362 -1.0113
13437TIP3    H261803   1.541   3.281  12.461  0.1560  0.7987 -0.8107
13438TIP3   OH261804   0.161   4.545   4.011  0.0706  0.2769  0.3986
13438TIP3    H161805   0.173   4.461   3.967  0.4227 -0.4823  1.8510
13438TIP3    H261806   0.245   4.590   4.002  0.5700 -0.4273  1.3656
13439TIP3   OH261807   2.482   3.675  16.532  0.9080 -0.2690 -0.4469
13439TIP3    H161808   2.574   3.666  16.554  1.4429 -0.6393 -2.6179
13439TIP3    H261809   2.473   3.768  16.508  0.7718 -0.2884 -0.4691
13440TIP3   OH261810   4.700   5.929   1.659  0.0438  0.7529  0.4596
13440TIP3    H161811   4.632   5.997   1.665 -1.2325 -0.4517  0.2132
13440TIP3    H261812   4.721   5.924   1.566 -1.3001 -0.4963  0.1856
13441TIP3   OH261813   4.517   3.377  16.045 -0.0366  0.2957  0.3009
13441TIP3    H161814   4.548   3.303  16.097  1.2523 -0.1436 -1.0120
13441TIP3    H261815   4.506   3.342  15.957  1.7643  1.8643 -0.6398
13442TIP3   OH261816   1.530   3.526   1.763 -0.6598 -0.3487  0.6258
13442TIP3    H161817   1.464   3.524   1.694 -2.3134 -0.3470  2.1074
13442TIP3    H261818   1.565   3.437   1.766 -1.6620 -0.7627  0.7382
13443TIP3   OH261819   1.013   6.499   3.897 -0.4132 -0.2958  0.1719
13443TIP3    H161820   0.943   6.472   3.957 -3.0925  3.6957 -0.7530
13443TIP3    H261821   0.982   6.472   3.811  0.3095 -0.4098 -0.0577
13444TIP3   OH261822   5.736   0.592   2.925 -0.2949  0.1560 -0.5436
13444TIP3    H161823   5.661   0.636   2.886 -2.6339 -2.4248  0.7133
13444TIP3    H261824   5.715   0.499   2.919  1.9287 -0.6003  1.6036
13445TIP3   OH261825   1.463   3.619  13.981 -0.4686 -0.3565 -1.1047
13445TIP3    H161826   1.456   3.697  14.036 -0.9877 -0.4010 -1.1020
13445TIP3    H261827   1.522   3.645  13.910 -1.9387  0.6035 -2.0391
13446TIP3   OH261828   6.758   4.475  11.339 -0.2906  0.3805  0.3106
13446TIP3    H161829   6.804   4.536  11.280 -1.6986  1.2816  0.0971
13446TIP3    H261830   6.668   4.475  11.307 -1.3109  1.5065  2.9220
13447TIP3   OH261831   5.391   0.800   1.015  0.2265  0.3251 -0.1344
13447TIP3    H161832   5.446   0.844   0.950  0.5604  0.8442  0.4858
13447TIP3    H261833   5.427   0.827   1.099 -0.0853 -0.4817  0.2737
13448TIP3   OH261834   0.727   6.759   3.536 -0.0279  0.5914  0.2929
13448TIP3    H161835   0.772   6.771   3.453 -0.9760 -3.9755 -1.1816
13448TIP3    H261836   0.798   6.746   3.600  0.8515 -1.0745 -0.9308
13449TIP3   OH261837   5.556   1.321   5.236  0.0306 -0.4926 -0.0215
13449TIP3    H161838   5.583   1.403   5.276  0.7525  0.5085 -2.3483
13449TIP3    H261839   5.561   1.337   5.141 -0.1981 -3.0822 -0.5748
13450TIP3   OH261840   2.975   0.439  14.916  0.3692 -0.0527 -0.3726
13450TIP3    H161841   2.899   0.461  14.969  0.3446 -1.1254  0.0647
13450TIP3    H261842   2.968   0.496  14.839 -0.1736  0.7522  0.2621
13451TIP3   OH261843   4.459   2.231  11.871 -0.4465  0.0264 -0.3058
13451TIP3    H161844   4.433   2.321  11.856 -1.6467 -0.3861 -0.8278
13451TIP3    H261845   4.380   2.188  11.904  0.6010 -0.3994  1.8734
13452TIP3   OH261846   6.109   4.111   2.398  0.2168  0.2589 -0.3607
13452TIP3    H161847   6.098   4.195   2.444 -0.8736  0.0795 -0.2770
13452TIP3    H261848   6.201   4.110   2.372  0.8204  0.4889  1.6031
13453TIP3   OH261849   0.971   2.946  16.859  0.5812  0.0719 -0.1772
13453TIP3    H161850   0.953   2.858  16.891  0.6676  0.1977  0.2362
13453TIP3    H261851   0.891   2.973  16.813 -0.1312  0.4420  1.2134
13454TIP3   OH261852   6.710   4.723   1.411 -0.2617  0.2242  0.0427
13454TIP3    H161853   6.742   4.724   1.321 -0.4408  0.1387 -0.0224
13454TIP3    H261854   6.754   4.649   1.452 -1.2175 -0.5801 -0.3577
13455TIP3   OH261855   1.066   4.344   4.047 -0.6025 -0.5165 -0.8641
13455TIP3    H161856   1.027   4.327   4.133 -2.7366 -2.0910 -2.0425
13455TIP3    H261857   1.151   4.302   4.050 -1.1269 -1.5611  0.1189
13456TIP3   OH261858   2.648   4.341   4.728 -0.2555  0.0306 -1.0283
13456TIP3    H161859   2.593   4.322   4.804  1.4821 -1.8185 -0.1530
13456TIP3    H261860   2.588   4.340   4.653 -1.7664  0.4683  0.1308
13457TIP3   OH261861   4.077   3.584   2.479 -0.9938  0.4741  0.0888
13457TIP3    H161862   4.060   3.568   2.386 -1.4580  2.0527 -0.1198
13457TIP3    H261863   4.090   3.678   2.486  1.0535  0.1644  1.3424
13458TIP3   OH261864   3.112   5.107   3.402 -0.0256 -0.1634  0.1824
13458TIP3    H161865   3.092   5.068   3.317  0.2591 -1.7295  0.7934
13458TIP3    H261866   3.207   5.114   3.404 -0.1259  2.4444 -0.6706
13459TIP3   OH261867   2.359   0.353  12.582 -0.0584 -0.4886  0.0337
13459TIP3    H161868   2.294   0.340  12.513 -0.2801  1.3911 -0.1666
13459TIP3    H261869   2.383   0.265  12.610 -2.4106 -1.2489 -0.1475
13460TIP3   OH261870   4.208   3.184  15.460  0.1513  0.0996 -0.2118
13460TIP3    H161871   4.303   3.178  15.468  0.3237  0.7095 -1.5072
13460TIP3    H261872   4.184   3.264  15.507  0.5483  1.0436 -1.5522
13461TIP3   OH261873   0.837   3.386   3.808 -0.1265 -0.3845  0.1670
13461TIP3    H161874   0.746   3.359   3.819  0.0135 -0.2385  1.8412
13461TIP3    H261875   0.834   3.451   3.738 -0.9746 -1.9719 -1.3429
13462TIP3   OH261876   4.926   5.835   1.772  0.0144  0.4750  0.5638
13462TIP3    H161877   4.924   5.743   1.748  0.0574  1.0641 -1.9271
13462TIP3    H261878   4.845   5.871   1.735  0.4640  1.6138  0.6481
13463TIP3   OH261879   0.189   1.429   4.216  0.4284  0.5011  0.2195
13463TIP3    H161880   0.151   1.463   4.297  0.9489  1.4850  0.0714
13463TIP3    H261881   0.277   1.466   4.214  1.0456 -0.9331  0.0583
13464TIP3   OH261882   0.760   5.446   4.338  0.6410 -0.3094  0.1628
13464TIP3    H161883   0.803   5.501   4.272  1.9258  0.2391  1.4106
13464TIP3    H261884   0.690   5.501   4.374  1.0116  0.0014  0.4146
13465TIP3   OH261885   5.156   4.312   4.266  0.3885 -0.5061  0.3052
13465TIP3    H161886   5.195   4.388   4.310 -0.9259 -0.7548  2.0369
13465TIP3    H261887   5.092   4.279   4.330  2.2430 -4.2420  0.4470
13466TIP3   OH261888   3.735   4.236   4.095  0.5582  0.0053  0.6202
13466TIP3    H161889   3.773   4.153   4.124 -0.3990 -0.0143  1.9688
13466TIP3    H261890   3.694   4.271   4.174  0.3498  1.4264 -0.0984
13467TIP3   OH261891   4.961   1.164   0.146 -0.1388 -0.2583 -0.1000
13467TIP3    H161892   4.925   1.080   0.175 -0.5750 -0.7708 -2.0140
13467TIP3    H261893   4.906   1.229   0.189  0.2493 -0.9016  1.4785
13468TIP3   OH261894   5.250   5.025  15.256  0.3236 -0.6552 -0.0316
13468TIP3    H161895   5.154   5.029  15.256  0.3629  1.2603 -0.7592
13468TIP3    H261896   5.273   4.998  15.168  0.4414  2.8644 -1.2655
13469TIP3   OH261897   4.903   2.909   2.400 -0.4563 -0.2158 -0.4328
13469TIP3    H161898   4.842   2.854   2.450  0.0880 -0.4563 -0.0233
13469TIP3    H261899   4.982   2.912   2.454 -0.1176  0.1278 -0.9411
13470TIP3   OH261900   1.837   1.818  14.640 -0.0280 -0.2839 -0.3379
13470TIP3    H161901   1.802   1.758  14.575 -1.3780  1.5885 -1.4213
13470TIP3    H261902   1.930   1.796  14.646 -0.2427 -1.6247 -1.6154
13471TIP3   OH261903   6.448   3.065   0.880 -0.7431 -0.8162 -0.2970
13471TIP3    H161904   6.420   3.049   0.790  0.8547 -1.8658 -0.6470
13471TIP3    H261905   6.518   3.001   0.896  1.1251  1.3114  0.6515
13472TIP3   OH261906   3.071   6.252  12.242 -0.2156  0.0457 -0.2984
13472TIP3    H161907   3.039   6.276  12.329 -0.6260 -0.8401 -0.1960
13472TIP3    H261908   3.038   6.321  12.185  1.4858  1.5869  0.4741
13473TIP3   OH261909   2.337   5.576   4.389 -0.5726 -0.1822 -0.4384
13473TIP3    H161910   2.390   5.632   4.446  0.9007 -2.6400  0.7804
13473TIP3    H261911   2.248   5.608   4.399  0.3789  3.2965 -1.5570
13474TIP3   OH261912   6.213   3.033  14.846 -0.3798 -0.1905  0.0714
13474TIP3    H161913   6.207   2.975  14.770  2.5813  0.4190 -0.7727
13474TIP3    H261914   6.303   3.023  14.877 -0.8990  1.1335  2.2542
13475TIP3   OH261915   6.756   1.124  11.201  0.0823  0.0213  0.6085
13475TIP3    H161916   6.791   1.036  11.192  1.1084  0.3904  0.8857
13475TIP3    H261917   6.670   1.120  11.158  0.5067 -0.8615 -0.1911
13476TIP3   OH261918   5.684   5.775   2.929  0.1136  0.3242  0.4603
13476TIP3    H161919   5.596   5.810   2.947  0.4966  2.1524 -0.8953
13476TIP3    H261920   5.737   5.802   3.004  0.4209  2.9177 -0.5861
13477TIP3   OH261921   4.237   6.243   4.854  0.0854 -0.2209 -0.1257
13477TIP3    H161922   4.206   6.290   4.776 -3.5389 -1.8541  0.1394
13477TIP3    H261923   4.196   6.289   4.927  0.6772 -0.7503  0.5445
13478TIP3   OH261924   2.813   6.674  15.071 -0.3737 -0.1942  0.3386
13478TIP3    H161925   2.887   6.651  15.127  0.0084  2.4783  1.1129
13478TIP3    H261926   2.748   6.711  15.131 -0.2676  2.0448 -0.7796
13479TIP3   OH261927   0.068   5.333   5.062 -0.3222 -0.3346  0.0177
13479TIP3    H161928   0.079   5.422   5.028  0.1405 -0.2560  0.3640
13479TIP3    H261929   0.155   5.294   5.055  0.0679  0.0368  2.0863
13480TIP3   OH261930   5.183   0.733   1.789  0.1850  0.1277 -0.0481
13480TIP3    H161931   5.171   0.645   1.825  0.2930 -0.5246 -1.5161
13480TIP3    H261932   5.215   0.718   1.700 -0.9437  1.6334 -0.7490
13481TIP3   OH261933   0.379   5.729  16.597 -0.8545 -0.3402  0.2808
13481TIP3    H161934   0.392   5.739  16.502 -3.3719  1.2777 -0.0031
13481TIP3    H261935   0.308   5.790  16.617 -0.7537 -1.0512  3.1415
13482TIP3   OH261936   1.558   4.912   1.252  0.6193 -0.2907 -0.9350
13482TIP3    H161937   1.475   4.957   1.234  1.2345  0.3204 -2.3524
13482TIP3    H261938   1.622   4.982   1.263  1.0477 -0.7689 -0.3314
13483TIP3   OH261939   4.296   1.523  13.271  0.7765 -0.0885 -0.4962
13483TIP3    H161940   4.264   1.523  13.361  2.8904 -1.2134  0.3414
13483TIP3    H261941   4.379   1.571  13.274  0.0058  1.4922 -2.2579
13484TIP3   OH261942   5.690   0.980   6.664  0.1300  0.5773  0.2561
13484TIP3    H161943   5.685   1.066   6.706  1.3863  0.5554  0.5116
13484TIP3    H261944   5.681   0.917   6.736 -0.4213  0.4926  0.1181
13485TIP3   OH261945   3.382   1.949   2.586 -0.0503  0.2318  0.2223
13485TIP3    H161946   3.431   1.919   2.510 -0.2035  1.7932 -0.5427
13485TIP3    H261947   3.296   1.908   2.577  0.3014 -0.5158  0.2038
13486TIP3   OH261948   6.762   4.311  17.064 -0.2779 -0.0730  0.0024
13486TIP3    H161949   6.752   4.257  16.986 -0.5221 -1.0074  0.6638
13486TIP3    H261950   6.792   4.251  17.132 -1.9518  0.2920  1.1432
13487TIP3   OH261951   5.546   4.525  17.076 -0.3401  0.0836  0.3037
13487TIP3    H161952   5.504   4.460  17.132  0.7278 -0.4578  0.4848
13487TIP3    H261953   5.640   4.509  17.086 -0.1198 -0.6358 -2.3689
13488TIP3   OH261954   6.007   5.273   5.989 -0.3464 -0.8139  0.0584
13488TIP3    H161955   5.977   5.333   5.921 -0.4500 -2.1910 -1.1873
13488TIP3    H261956   5.967   5.305   6.069 -1.3015  0.1169 -0.7611
13489TIP3   OH261957   5.718   5.361  11.517 -0.3276 -0.0482 -0.0501
13489TIP3    H161958   5.787   5.426  11.516  0.6005 -1.0025  0.4988
13489TIP3    H261959   5.730   5.314  11.599  0.0780 -2.0038 -1.1716
13490TIP3   OH261960   2.565   5.338  15.403 -0.4222  0.2522  0.6456
13490TIP3    H161961   2.534   5.419  15.362 -1.6448 -0.8896 -0.8381
13490TIP3    H261962   2.514   5.269  15.360  1.0432 -1.3713  1.3866
13491TIP3   OH261963   6.546   2.498   5.454  0.5366 -0.1170 -0.3850
13491TIP3    H161964   6.483   2.518   5.384 -0.1246 -3.2618 -0.8216
13491TIP3    H261965   6.631   2.500   5.411  0.0786 -2.7743 -1.6078
13492TIP3   OH261966   1.329   4.570   3.934  0.1121  0.2668  0.0163
13492TIP3    H161967   1.281   4.512   3.875 -0.7242 -0.7424  1.6367
13492TIP3    H261968   1.394   4.613   3.878 -1.0313 -0.2005 -1.7419
13493TIP3   OH261969   4.057   0.010   5.902 -0.1437  0.4469 -0.4933
13493TIP3    H161970   3.982  -0.034   5.941  0.2885 -1.2017 -1.4255
13493TIP3    H261971   4.081   0.078   5.965 -0.8394 -0.6598  1.0180
13494TIP3   OH261972   0.071   4.842  15.987 -0.1191 -0.6239 -0.1839
13494TIP3    H161973   0.086   4.913  16.049 -1.7575 -0.1309 -0.2950
13494TIP3    H261974   0.158   4.819  15.954  0.6381  0.0292  1.2587
13495TIP3   OH261975   4.720   5.869   2.097 -0.0276  0.0486 -0.3676
13495TIP3    H161976   4.627   5.879   2.118  0.0115 -0.6151  0.1750
13495TIP3    H261977   4.721   5.829   2.010 -0.2588 -0.2827 -0.2211
13496TIP3   OH261978   2.697   0.343  13.591 -0.1652 -0.6937 -0.2495
13496TIP3    H161979   2.723   0.293  13.514 -0.7483 -1.4319  0.0216
13496TIP3    H261980   2.774   0.339  13.649 -1.1994 -4.1348  1.1982
13497TIP3   OH261981   5.952   0.935   2.982 -0.1258 -0.0831 -0.6298
13497TIP3    H161982   5.999   0.872   3.036  1.0707  1.7461  0.5566
13497TIP3    H261983   5.908   0.993   3.045 -1.6876 -0.0460 -1.6882
13498TIP3   OH261984   0.112   5.057  16.177  0.2603 -0.2852  0.0624
13498TIP3    H161985   0.035   5.068  16.234 -0.4681 -0.6244 -0.8306
13498TIP3    H261986   0.107   5.131  16.116  0.0012 -0.9122 -0.7033
13499TIP3   OH261987   3.904   4.387   3.216 -0.0404  0.5931 -0.2432
13499TIP3    H161988   3.944   4.473   3.228  0.7247  0.0691  1.1052
13499TIP3    H261989   3.863   4.368   3.301  0.8221 -0.8871 -0.1391
13500TIP3   OH261990   2.084   4.956  16.390 -0.5904 -0.5079  0.7027
13500TIP3    H161991   2.140   4.929  16.317 -1.4024 -1.7269  0.5124
13500TIP3    H261992   1.998   4.922  16.368 -0.7618 -1.2630  2.4418
13501TIP3   OH261993   0.494   6.085   1.555 -0.0788  0.1474 -0.1793
13501TIP3    H161994   0.550   6.154   1.519 -1.8855  0.9254 -1.7217
13501TIP3    H261995   0.426   6.133   1.602 -0.6665 -0.6298 -0.2253
13502TIP3   OH261996   4.902   6.283   2.311 -0.0319 -0.2568  0.2657
13502TIP3    H161997   4.810   6.308   2.326  0.3194  1.3939 -0.1425
13502TIP3    H261998   4.899   6.188   2.297 -1.6979 -0.2125  0.1019
13503TIP3   OH261999   1.686   3.849  10.863  0.3380  0.4581  0.0487
13503TIP3    H162000   1.592   3.839  10.846  0.1750 -1.7414  1.7965
13503TIP3    H262001   1.705   3.940  10.839 -2.3179  1.1036  0.0652
13504TIP3   OH262002   6.642   4.575  12.028  0.0760  0.0354  0.3435
13504TIP3    H162003   6.609   4.662  12.052 -1.5226 -0.5696  0.4289
13504TIP3    H262004   6.597   4.514  12.086  1.5531 -0.8473  0.6270
13505TIP3   OH262005   5.634   1.063   3.675  0.2504  0.0075 -0.5274
13505TIP3    H162006   5.690   1.130   3.715  1.4215 -1.3040  0.1024
13505TIP3    H262007   5.598   1.106   3.597  0.1619  1.6830  0.3858
13506TIP3   OH262008   6.685   1.461   5.924 -0.0637 -0.3669  0.0042
13506TIP3    H162009   6.683   1.391   5.989 -0.2041 -0.1465  0.2401
13506TIP3    H262010   6.668   1.541   5.974 -1.8656 -0.3650 -0.5274
13507TIP3   OH262011   5.997   1.930   4.845  0.2199 -0.4111 -0.7004
13507TIP3    H162012   6.029   1.848   4.882 -0.7650 -1.2446 -1.5906
13507TIP3    H262013   6.074   1.986   4.838  0.8538 -1.1457  0.2104
13508TIP3   OH262014   6.582   0.146   3.561 -0.3684 -0.0896  0.2572
13508TIP3    H162015   6.677   0.147   3.549 -0.3982  0.6473  0.0274
13508TIP3    H262016   6.552   0.226   3.518 -1.2202 -0.9032 -0.7383
13509TIP3   OH262017   3.956   1.676   0.841 -0.0448 -0.0441 -0.0365
13509TIP3    H162018   4.000   1.625   0.908 -0.3036 -0.8301 -0.4471
13509TIP3    H262019   3.864   1.649   0.845  0.0103 -0.4362 -0.9844
13510TIP3   OH262020   2.078   1.251  11.725 -0.1375 -0.2784 -0.1477
13510TIP3    H162021   2.162   1.286  11.754 -0.0944  0.0405 -0.6553
13510TIP3    H262022   2.099   1.198  11.648 -0.3742 -0.3796 -0.1436
13511TIP3   OH262023   0.518   4.931   0.269  0.2368 -0.5790 -0.3480
13511TIP3    H162024   0.590   4.890   0.318  0.8935 -0.1177 -0.9114
13511TIP3    H262025   0.516   5.021   0.302 -0.7047 -0.8379  0.3389
13512TIP3   OH262026   6.305   4.342   3.200 -0.6170  0.6511  0.2324
13512TIP3    H162027   6.375   4.320   3.262  0.4292 -0.9975 -1.4143
13512TIP3    H262028   6.232   4.286   3.225  0.1720 -0.8109 -0.6232
13513TIP3   OH262029   5.064   6.280   1.745  0.3942 -0.1353  0.4554
13513TIP3    H162030   5.043   6.367   1.710  1.4675 -0.3486 -0.7901
13513TIP3    H262031   4.981   6.248   1.781 -0.9610 -0.0886 -2.3519
13514TIP3   OH262032   0.643   1.275   1.643  0.0083  0.3807  0.4869
13514TIP3    H162033   0.548   1.271   1.633 -0.0524  0.8036  0.8872
13514TIP3    H262034   0.670   1.348   1.587  0.3193 -0.9106 -1.1264
13515TIP3   OH262035   3.839   4.215   0.626  0.0272 -0.3929 -0.1786
13515TIP3    H162036   3.812   4.127   0.651  1.0891 -0.5759  0.3728
13515TIP3    H262037   3.830   4.267   0.705  0.9834 -0.3942 -0.0552
13516TIP3   OH262038   3.772   5.460   3.130  0.0638  0.2457 -0.4917
13516TIP3    H162039   3.854   5.489   3.088 -0.5453  0.6551 -1.4407
13516TIP3    H262040   3.798   5.385   3.184  1.1424  0.6466 -0.4184
13517TIP3   OH262041   3.315   1.566  16.229 -0.0673 -0.3269  0.0680
13517TIP3    H162042   3.315   1.534  16.139 -1.9064  2.1512 -0.9439
13517TIP3    H262043   3.355   1.653  16.224  0.3775 -0.3864  1.7886
13518TIP3   OH262044   1.660   6.638   2.638 -0.4653  0.3599  0.7660
13518TIP3    H162045   1.582   6.649   2.692 -0.5413 -0.7046  0.9019
13518TIP3    H262046   1.627   6.611   2.553 -0.3074  1.3521  0.3748
13519TIP3   OH262047   3.286   1.522  15.976 -0.2567 -0.3226 -0.2458
13519TIP3    H162048   3.229   1.459  15.930 -1.2719  1.7809 -2.0704
13519TIP3    H262049   3.365   1.527  15.922 -0.7425  0.9047 -0.8842
13520TIP3   OH262050   6.215   3.450   5.064 -0.0312  0.2352 -0.5240
13520TIP3    H162051   6.213   3.488   4.976  1.8579  1.2701 -0.1803
13520TIP3    H262052   6.273   3.374   5.056 -3.6562 -2.7773 -1.1714
13521TIP3   OH262053   4.647   4.810   1.465  0.5061 -0.2836  0.1136
13521TIP3    H162054   4.584   4.749   1.503  0.6499 -0.6247 -0.1850
13521TIP3    H262055   4.724   4.803   1.521  0.3305  0.0337  0.3999
13522TIP3   OH262056   3.169   3.609   3.315 -0.3047 -0.2129  0.0292
13522TIP3    H162057   3.175   3.632   3.408  0.7175 -1.4691  0.3004
13522TIP3    H262058   3.216   3.527   3.308 -1.8612 -1.0445 -1.3061
13523TIP3   OH262059   5.461   2.456  15.726 -0.1311 -0.1368 -0.3664
13523TIP3    H162060   5.407   2.398  15.671 -0.3348 -3.2912  2.7995
13523TIP3    H262061   5.406   2.532  15.742 -2.0677 -1.4029 -0.5675
13524TIP3   OH262062   3.180   0.582  14.783  0.1224  0.5568  0.4966
13524TIP3    H162063   3.139   0.511  14.832 -0.3087  0.1437 -0.4349
13524TIP3    H262064   3.248   0.615  14.841 -2.1565  1.9719  2.5288
13525TIP3   OH262065   1.923   3.197  12.385 -0.6738  0.1011 -0.1918
13525TIP3    H162066   1.837   3.228  12.356 -0.1866  0.5836 -1.1873
13525TIP3    H262067   1.941   3.121  12.330 -0.0365  0.6086 -0.7042
13526TIP3   OH262068   6.791   3.385  14.409  0.4438  0.0028 -0.4067
13526TIP3    H162069   6.798   3.478  14.385  1.5583 -0.5023 -2.3007
13526TIP3    H262070   6.707   3.358  14.373 -0.3868  0.4774  1.0811
13527TIP3   OH262071   5.054   2.246  11.318  0.0409  0.5383 -0.2696
13527TIP3    H162072   4.986   2.201  11.368  0.6408 -0.0116  0.0685
13527TIP3    H262073   5.059   2.333  11.357 -0.6604  0.6824 -0.4842
13528TIP3   OH262074   4.213   3.608  12.037  0.2301  0.0285  0.2101
13528TIP3    H162075   4.137   3.660  12.063 -0.1566 -0.5331  0.2256
13528TIP3    H262076   4.258   3.589  12.119  0.7276  0.8634  0.1436
13529TIP3   OH262077   1.430   0.015   3.493 -0.1516 -0.3210 -0.2516
13529TIP3    H162078   1.433   0.110   3.497  1.1599 -0.3426 -0.0955
13529TIP3    H262079   1.522  -0.012   3.503 -0.5990 -1.6299  0.6114
13530TIP3   OH262080   4.344   2.863   1.683 -0.2856 -0.1694 -0.5686
13530TIP3    H162081   4.345   2.773   1.715 -1.0629  0.2952  0.8651
13530TIP3    H262082   4.420   2.904   1.724 -1.3136  0.4409  0.8401
13531TIP3   OH262083   0.702   4.679  16.560 -0.0302  0.1829 -0.3533
13531TIP3    H162084   0.654   4.629  16.626 -1.1791  0.1733 -1.1596
13531TIP3    H262085   0.648   4.671  16.481 -0.0427  2.3476 -0.6127
13532TIP3   OH262086   4.969   6.453   4.412  0.1031 -0.3361 -0.7982
13532TIP3    H162087   4.888   6.450   4.463  0.0489  1.7631 -0.6714
13532TIP3    H262088   5.039   6.447   4.477  0.0673 -0.8905 -0.8008
13533TIP3   OH262089   2.551   2.406   2.469  0.8340  0.1764  0.5287
13533TIP3    H162090   2.477   2.345   2.466  1.6764 -0.9294 -3.0854
13533TIP3    H262091   2.510   2.492   2.471 -0.4382 -0.4059  2.1684
13534TIP3   OH262092   4.042   2.303  12.417 -0.6425 -0.4591  0.4711
13534TIP3    H162093   4.135   2.286  12.431 -0.6232 -1.2122 -0.4598
13534TIP3    H262094   4.000   2.219  12.438 -1.1607 -0.0265  1.2188
13535TIP3   OH262095   5.379   0.573  17.103 -0.2831 -0.6065 -0.4191
13535TIP3    H162096   5.449   0.525  17.058 -2.0285 -0.9924 -2.8826
13535TIP3    H262097   5.393   0.664  17.078 -0.2567 -0.5826 -0.3187
13536TIP3   OH262098   0.565   1.105  13.050  0.2531 -0.5416  0.5532
13536TIP3    H162099   0.479   1.130  13.015  0.3881  0.2432  0.7500
13536TIP3    H262100   0.594   1.183  13.097  2.3951  0.3165 -1.9594
13537TIP3   OH262101   3.740   1.178   2.477 -0.1555 -0.1797 -0.0134
13537TIP3    H162102   3.646   1.165   2.489 -0.3098 -1.9922 -2.3041
13537TIP3    H262103   3.781   1.121   2.542 -0.5456  1.7453  2.0111
13538TIP3   OH262104   3.272   5.793  12.172 -0.2222 -0.1308  0.1276
13538TIP3    H162105   3.257   5.883  12.143  2.9525  0.6283  0.4860
13538TIP3    H262106   3.289   5.744  12.092  1.7515  0.4790  0.1149
13539TIP3   OH262107   4.293   2.727  16.564 -0.6239 -0.1716 -0.4193
13539TIP3    H162108   4.339   2.756  16.486 -0.4855 -1.1017 -0.6931
13539TIP3    H262109   4.359   2.683  16.617 -0.9430 -0.4969 -0.2806
13540TIP3   OH262110   6.593   4.415   2.426 -0.0514  0.3409 -0.3309
13540TIP3    H162111   6.586   4.510   2.412  0.9610  0.1706 -2.3234
13540TIP3    H262112   6.502   4.384   2.423 -0.2715  1.0430 -1.4387
13541TIP3   OH262113   2.544   5.328  16.482 -0.1243  0.4941 -0.2227
13541TIP3    H162114   2.629   5.325  16.439  0.6818 -0.5233  1.3623
13541TIP3    H262115   2.505   5.243  16.465 -0.2136  0.4428  0.2091
13542TIP3   OH262116   5.908   1.366   5.516 -0.3611  0.6310  0.1560
13542TIP3    H162117   5.955   1.287   5.541  0.0066  0.5557 -0.7183
13542TIP3    H262118   5.845   1.381   5.586 -1.0193 -0.9179 -0.0697
13543TIP3   OH262119   0.657   1.886  12.431 -0.1408 -0.5508 -0.6029
13543TIP3    H162120   0.743   1.898  12.471  0.2559  1.0821 -1.8500
13543TIP3    H262121   0.671   1.908  12.339 -1.5383 -1.9189 -1.1871
13544TIP3   OH262122   5.405   5.211   0.942  0.0955  0.1793 -0.0354
13544TIP3    H162123   5.499   5.205   0.963  0.4003 -1.2046 -1.5519
13544TIP3    H262124   5.374   5.121   0.950 -0.3319  0.0148 -2.7269
13545TIP3   OH262125   2.012   1.694  15.280 -0.0612 -0.0378  0.5542
13545TIP3    H162126   2.070   1.628  15.316 -1.7451 -2.2288 -0.4916
13545TIP3    H262127   2.069   1.769  15.260  1.7236 -0.6705  2.8342
13546TIP3   OH262128   3.041   1.050   5.862  0.3162  0.1320  0.1109
13546TIP3    H162129   3.132   1.074   5.881  0.4283  1.3626 -1.6803
13546TIP3    H262130   3.048   0.968   5.814  0.3509 -0.5379  1.2267
13547TIP3   OH262131   0.033   1.878  11.225 -0.4610  0.2744  0.4641
13547TIP3    H162132   0.073   1.812  11.168 -1.1478 -0.3149  0.6480
13547TIP3    H262133   0.037   1.840  11.313 -0.8584  0.4780  0.5729
13548TIP3   OH262134   6.421   5.010   0.932 -0.3680 -0.4040  0.3169
13548TIP3    H162135   6.479   5.014   0.856 -2.0431  1.5100 -0.9601
13548TIP3    H262136   6.457   5.074   0.993 -1.4310  1.3123 -0.7726
13549TIP3   OH262137   4.569   6.076  15.460 -0.3426 -0.2939 -0.5822
13549TIP3    H162138   4.653   6.044  15.494 -0.5877 -1.7538 -1.2362
13549TIP3    H262139   4.583   6.082  15.365 -1.1369 -1.1523 -0.7720
13550TIP3   OH262140   2.451   4.125   0.059 -0.0416 -0.1172  0.0850
13550TIP3    H162141   2.372   4.144   0.110  0.9753  0.5719  1.4741
13550TIP3    H262142   2.432   4.160  -0.028 -2.4160 -2.6898 -0.5694
13551TIP3   OH262143   4.625   5.479   3.027 -0.3076 -0.0446 -0.2297
13551TIP3    H162144   4.532   5.489   3.005 -0.4366 -0.6852 -0.0218
13551TIP3    H262145   4.662   5.433   2.952  0.0693  1.0982 -0.7642
13552TIP3   OH262146   3.363   6.552  13.723  0.3480 -0.3116 -0.0738
13552TIP3    H162147   3.417   6.474  13.708  1.0554  0.1404  0.0605
13552TIP3    H262148   3.274   6.525  13.701  0.6114 -1.1120 -0.1759
13553TIP3   OH262149   6.722   1.859   1.353 -0.1980 -0.2323 -0.2757
13553TIP3    H162150   6.801   1.905   1.325 -0.0826 -0.3398 -0.1312
13553TIP3    H262151   6.711   1.883   1.445 -0.2711 -0.3031 -0.2652
13554TIP3   OH262152   5.320   1.422   2.920  0.0965 -0.0569 -0.3774
13554TIP3    H162153   5.343   1.480   2.847 -0.5255  4.0445  2.3283
13554TIP3    H262154   5.225   1.417   2.916  0.2033 -2.3345 -1.4355
13555TIP3   OH262155   3.776   3.339  17.164 -0.1286 -0.2579 -0.1715
13555TIP3    H162156   3.763   3.245  17.159 -1.4421 -0.1423  0.5266
13555TIP3    H262157   3.701   3.377  17.119  1.3045  0.4794 -2.0701
13556TIP3   OH262158   1.811   2.559  16.091  0.1020 -0.0279 -0.2273
13556TIP3    H162159   1.736   2.523  16.137 -0.6172  0.3956 -1.0387
13556TIP3    H262160   1.864   2.600  16.159 -1.2707  1.1774  0.1526
13557TIP3   OH262161   3.632   4.988   0.098 -0.0846  0.0645  0.3511
13557TIP3    H162162   3.655   4.983   0.191 -1.4932  2.1084  0.8695
13557TIP3    H262163   3.537   4.978   0.096 -0.2043  1.1817 -0.7365
13558TIP3   OH262164   4.038   1.689   3.137  0.4606 -0.0771 -0.1200
13558TIP3    H162165   4.036   1.598   3.168  0.1643 -0.4045 -1.0455
13558TIP3    H262166   3.977   1.735   3.195 -0.4223 -0.7621 -0.4737
13559TIP3   OH262167   3.498   3.919  16.968  0.3851  0.5686 -0.1475
13559TIP3    H162168   3.481   4.002  17.013  1.9363 -0.0539  1.7126
13559TIP3    H262169   3.590   3.924  16.942  0.2064 -0.1592 -0.9983
13560TIP3   OH262170   1.827   3.198  14.700 -0.1722  0.4995 -0.8351
13560TIP3    H162171   1.832   3.292  14.685  1.5541  0.4469 -0.7217
13560TIP3    H262172   1.913   3.165  14.676 -0.2075 -0.8238  0.7023
13561TIP3   OH262173   2.306   2.820  16.590  0.0375  0.0220  0.0690
13561TIP3    H162174   2.305   2.808  16.495  0.5782  1.7989 -0.1898
13561TIP3    H262175   2.213   2.819  16.615 -0.3942  3.0692 -1.0250
13562TIP3   OH262176   3.695   2.012   1.916  0.5727  0.2546  0.1078
13562TIP3    H162177   3.787   2.030   1.898  0.8092 -0.5748  0.4479
13562TIP3    H262178   3.659   2.097   1.942  0.6552  1.1053 -2.2939
13563TIP3   OH262179   4.682   0.329   3.451  0.2382 -0.2320  0.1720
13563TIP3    H162180   4.594   0.363   3.470  0.1838  0.4907 -1.2619
13563TIP3    H262181   4.699   0.267   3.523 -0.7416  0.8589  1.4091
13564TIP3   OH262182   4.305   2.625  15.710  0.3501 -0.1737 -0.0621
13564TIP3    H162183   4.250   2.617  15.788  0.7450  1.6623  0.4662
13564TIP3    H262184   4.313   2.719  15.696  0.4477 -0.4561 -2.2414
13565TIP3   OH262185   4.536   2.524   1.999 -0.1787  0.1790  0.6370
13565TIP3    H162186   4.512   2.512   2.091 -1.3018 -2.4134  0.1079
13565TIP3    H262187   4.452   2.532   1.954  0.2707 -0.5171 -0.3513
13566TIP3   OH262188   5.611   2.035   1.710  0.0624 -0.1439 -0.5668
13566TIP3    H162189   5.543   1.973   1.739  0.2936 -1.0840 -1.9309
13566TIP3    H262190   5.686   1.979   1.689  0.8681  0.7825 -0.2060
13567TIP3   OH262191   4.074   1.067   4.304 -0.0810  0.1206  0.2097
13567TIP3    H162192   4.066   1.131   4.233 -0.4483  0.2492  0.3645
13567TIP3    H262193   4.164   1.076   4.335  0.4718 -0.7574 -1.0193
13568TIP3   OH262194   5.111   5.135  16.361 -0.2499  0.4119 -0.2685
13568TIP3    H162195   5.169   5.083  16.416 -1.0520 -0.1966  0.0243
13568TIP3    H262196   5.142   5.225  16.371 -1.0078  0.4689  2.0234
13569TIP3   OH262197   4.751   5.042   1.184 -0.1556 -0.4745  0.1475
13569TIP3    H162198   4.792   5.093   1.254 -0.1160 -0.3401  0.0259
13569TIP3    H262199   4.659   5.037   1.209 -0.3826  0.6174 -0.4110
13570TIP3   OH262200   4.760   1.267   5.107 -0.8381  0.1607 -0.3025
13570TIP3    H162201   4.694   1.225   5.052  0.6029  0.2012 -2.1748
13570TIP3    H262202   4.822   1.197   5.127  0.2046  0.7657 -1.2760
13571TIP3   OH262203   3.142   6.021  14.608  0.3459  0.1434  0.7350
13571TIP3    H162204   3.200   6.038  14.682 -0.0630 -0.8816  1.3019
13571TIP3    H262205   3.125   5.927  14.611  0.6053  0.0172 -0.8804
13572TIP3   OH262206   6.581   5.684  11.414 -1.1618 -0.0185  0.1256
13572TIP3    H162207   6.640   5.707  11.342 -0.0135 -0.1262  0.9926
13572TIP3    H262208   6.564   5.591  11.402 -0.2312 -0.2461  0.4940
13573TIP3   OH262209   5.958   5.484  11.951 -0.2972  0.1341  0.2666
13573TIP3    H162210   5.965   5.500  12.046 -0.4523  1.8794  0.0309
13573TIP3    H262211   5.933   5.393  11.944 -1.2870  0.2272  1.9596
13574TIP3   OH262212   0.609   2.109  14.557 -0.3205  0.8358  0.1026
13574TIP3    H162213   0.526   2.115  14.511  0.4829  0.9864 -1.3771
13574TIP3    H262214   0.630   2.200  14.581 -1.5466  0.6034  2.3554
13575TIP3   OH262215   4.850   0.558  11.660 -0.1794 -0.2396 -0.9963
13575TIP3    H162216   4.795   0.634  11.642  0.9465  0.7975 -0.1841
13575TIP3    H262217   4.868   0.562  11.754  2.2124  0.1269 -1.4135
13576TIP3   OH262218   3.558   0.982   0.138  0.0353  0.2044 -0.1928
13576TIP3    H162219   3.626   0.953   0.199 -1.1890 -0.0132  1.1306
13576TIP3    H262220   3.511   0.902   0.115 -0.9086  0.5831  0.3688
13577TIP3   OH262221   5.680   0.906   3.898 -0.2905 -0.2869 -0.1843
13577TIP3    H162222   5.654   0.966   3.829 -0.1824  0.1177  0.1226
13577TIP3    H262223   5.620   0.923   3.970  0.9181  0.8178  0.6148
13578TIP3   OH262224   4.785   1.579  12.916 -0.4595  0.0702 -0.2130
13578TIP3    H162225   4.825   1.621  12.993 -1.4931 -1.3336  1.1449
13578TIP3    H262226   4.746   1.652  12.867 -1.2259  0.8776  1.4867
13579TIP3   OH262227   3.829   3.477  13.752 -0.2797  0.5345 -0.9756
13579TIP3    H162228   3.821   3.383  13.765 -0.2886  0.2259 -2.9385
13579TIP3    H262229   3.868   3.509  13.833  2.6557 -1.5971 -1.3853
13580TIP3   OH262230   3.799   4.613   2.303 -0.1223  0.1663  0.2051
13580TIP3    H162231   3.760   4.601   2.216  0.4221  0.8926 -0.1454
13580TIP3    H262232   3.852   4.692   2.295 -0.3989  0.4827  1.3228
13581TIP3   OH262233   5.922   6.475   5.988  0.4296  0.6052 -0.4617
13581TIP3    H162234   5.975   6.503   6.063  1.1021  0.5270 -0.9070
13581TIP3    H262235   5.880   6.395   6.018  1.1766  0.2379 -0.3724
13582TIP3   OH262236   5.157   3.879  16.093 -0.3108 -0.0528  0.6352
13582TIP3    H162237   5.086   3.819  16.070 -0.7942  1.0050 -0.7547
13582TIP3    H262238   5.181   3.920  16.010  0.4589  1.1867  1.4520
13583TIP3   OH262239   1.512   2.870  16.338 -0.0544  0.0356 -0.4155
13583TIP3    H162240   1.454   2.862  16.413 -0.3076  0.5471 -0.5516
13583TIP3    H262241   1.590   2.915  16.373  0.0335 -0.1616 -0.3544
13584TIP3   OH262242   3.306   1.176   6.593  0.3470  0.2289  0.1654
13584TIP3    H162243   3.390   1.216   6.570  1.3570 -1.7779  0.0556
13584TIP3    H262244   3.285   1.211   6.680  1.5057  0.4700  0.3608
13585TIP3   OH262245   4.666   1.930   0.121  0.5191 -1.0580  0.1059
13585TIP3    H162246   4.675   1.888   0.206 -2.0372 -0.8172  0.5611
13585TIP3    H262247   4.572   1.948   0.112  1.0235  1.2549 -1.6361
13586TIP3   OH262248   0.405   3.405  12.758  0.2931 -0.8589  0.0225
13586TIP3    H162249   0.442   3.445  12.679  2.9117  0.0432  1.5478
13586TIP3    H262250   0.362   3.478  12.803 -1.4765 -1.4357 -0.6441
13587TIP3   OH262251   5.634   5.739  14.623  0.2741 -0.1248 -0.2781
13587TIP3    H162252   5.688   5.809  14.658  1.1074 -0.2148 -1.3383
13587TIP3    H262253   5.593   5.700  14.700  3.0954 -1.2003  0.8173
13588TIP3   OH262254   0.538   2.856   4.031  0.2531  0.0819  0.1048
13588TIP3    H162255   0.605   2.923   4.042  1.2977 -1.1125  1.3716
13588TIP3    H262256   0.568   2.803   3.957  0.9839 -0.7173  0.9469
13589TIP3   OH262257   0.934   0.622  13.886 -0.2274  0.2592  0.1316
13589TIP3    H162258   0.985   0.601  13.964  1.1130  2.1804 -0.1503
13589TIP3    H262259   0.986   0.587  13.813  0.2680  1.3708 -0.0847
13590TIP3   OH262260   5.220   3.350   5.309  0.1171  0.6160 -0.0939
13590TIP3    H162261   5.187   3.392   5.388 -0.7919  0.5538 -0.4260
13590TIP3    H262262   5.175   3.265   5.306  1.8902 -0.4179  0.5500
13591TIP3   OH262263   4.830   0.571  16.275  0.4274 -0.9615  0.5373
13591TIP3    H162264   4.765   0.546  16.209  0.9907 -1.5096  0.1717
13591TIP3    H262265   4.781   0.619  16.341 -0.7802 -3.2914  1.4266
13592TIP3   OH262266   5.905   6.201  12.545  0.0771 -0.2301  0.4480
13592TIP3    H162267   5.871   6.259  12.478  1.6360 -2.9057 -2.9849
13592TIP3    H262268   5.830   6.149  12.573 -0.3903  0.1763 -0.0420
13593TIP3   OH262269   2.860   2.856   1.980 -0.1938  0.9505  0.3754
13593TIP3    H162270   2.906   2.845   1.897 -2.1324 -1.2053 -0.5245
13593TIP3    H262271   2.918   2.910   2.033  4.6954 -3.4031  0.3162
13594TIP3   OH262272   2.437   4.040   3.887  0.5293  0.6980 -1.1789
13594TIP3    H162273   2.404   4.129   3.901 -1.0573  0.1238 -1.0721
13594TIP3    H262274   2.445   4.004   3.975 -1.7665 -0.2393 -1.2820
13595TIP3   OH262275   3.142   2.572   1.136  0.1610 -0.0206  0.5742
13595TIP3    H162276   3.065   2.531   1.098  0.9464 -1.5371  0.5474
13595TIP3    H262277   3.116   2.595   1.225 -0.2640 -0.6763  0.6224
13596TIP3   OH262278   4.345   5.666  14.622 -0.1983  0.4694  0.2979
13596TIP3    H162279   4.425   5.615  14.628 -0.1575  0.5494  0.4329
13596TIP3    H262280   4.371   5.748  14.580 -0.3817  0.1308 -0.4871
13597TIP3   OH262281   4.258   0.101   2.499  0.2708  0.2224  0.2413
13597TIP3    H162282   4.247   0.189   2.463  3.2692  0.2195 -0.9305
13597TIP3    H262283   4.350   0.097   2.525  0.2367 -2.6015  0.1997
13598TIP3   OH262284   1.622   6.428  17.045 -0.2884 -0.4943  0.2220
13598TIP3    H162285   1.593   6.339  17.024  0.5007 -0.7120  0.0188
13598TIP3    H262286   1.696   6.444  16.986 -1.1773  0.7644 -0.6128
13599TIP3   OH262287   4.188   3.638   5.262  0.2530  0.3629 -0.1025
13599TIP3    H162288   4.127   3.627   5.335  0.5674 -1.1263 -0.0343
13599TIP3    H262289   4.237   3.556   5.258 -0.6064 -0.1323 -2.7753
13600TIP3   OH262290   3.864   2.473  16.213  1.0523  0.5701  0.2792
13600TIP3    H162291   3.796   2.539  16.204  0.9570  0.1229 -4.5410
13600TIP3    H262292   3.820   2.399  16.255 -0.9780  0.9437 -1.0569
13601TIP3   OH262293   5.066   3.356   2.733 -0.0414 -0.0620  0.0027
13601TIP3    H162294   5.097   3.446   2.725 -1.0799  0.3004 -0.0463
13601TIP3    H262295   5.111   3.309   2.663 -0.6976  0.7622 -0.9965
13602TIP3   OH262296   2.257   4.297  16.622 -0.3152  0.0741 -0.2634
13602TIP3    H162297   2.193   4.260  16.561 -0.7569 -0.2522  0.3838
13602TIP3    H262298   2.206   4.324  16.697  0.0929  1.4276 -0.4475
13603TIP3   OH262299   1.627   1.736   0.978 -0.7418  0.1652 -0.2091
13603TIP3    H162300   1.550   1.787   1.000  0.2371  0.7231  2.2537
13603TIP3    H262301   1.601   1.645   0.993 -0.9549  0.3423  0.5112
13604TIP3   OH262302   0.867   6.059   0.202 -0.6726 -0.4406 -0.0607
13604TIP3    H162303   0.882   6.111   0.281  0.1806  0.6876 -0.9201
13604TIP3    H262304   0.799   6.107   0.154 -1.3287 -1.2247  0.0882
13605TIP3   OH262305   1.962   1.723   5.595 -0.6488  0.2700  0.2687
13605TIP3    H162306   2.012   1.801   5.619 -0.3996  0.1946  0.0038
13605TIP3    H262307   2.026   1.665   5.553 -1.1340  0.5371 -0.8887
13606TIP3   OH262308   6.390   4.552  14.370  0.6014  0.4490  0.2406
13606TIP3    H162309   6.329   4.491  14.412 -0.0409  0.8918 -0.0184
13606TIP3    H262310   6.333   4.617  14.327  1.2235  0.2003 -1.0272
13607TIP3   OH262311   4.210   3.086  12.114  0.5539  0.2864  0.1914
13607TIP3    H162312   4.288   3.040  12.146  1.7401  1.1562 -1.3389
13607TIP3    H262313   4.202   3.060  12.023 -2.2101 -1.3970  0.7756
13608TIP3   OH262314   4.845   6.616  13.980 -0.6409  0.5261  0.7930
13608TIP3    H162315   4.816   6.525  13.980 -1.1655  0.6710 -0.3011
13608TIP3    H262316   4.940   6.610  13.965 -0.9643  0.1701 -1.6519
13609TIP3   OH262317   1.075   1.211   6.222 -0.2302  0.4541  0.1872
13609TIP3    H162318   0.992   1.189   6.265  0.2338  0.0213  0.8901
13609TIP3    H262319   1.128   1.131   6.230  0.3098  0.7750 -0.1084
13610TIP3   OH262320   4.934   6.124   1.455 -0.3983 -0.0192 -0.3052
13610TIP3    H162321   4.982   6.081   1.526 -0.5127 -0.1483 -0.3059
13610TIP3    H262322   4.850   6.148   1.493  0.4724  2.2034  0.3475
13611TIP3   OH262323   3.212   0.303  10.559 -0.3118  0.1286 -0.1814
13611TIP3    H162324   3.250   0.215  10.560 -1.8827 -0.5771 -0.1235
13611TIP3    H262325   3.151   0.303  10.485 -0.6203  1.0493  0.0507
13612TIP3   OH262326   2.682   5.849  12.502  0.0748  0.4792 -0.4892
13612TIP3    H162327   2.675   5.867  12.408 -0.2546 -1.4605 -0.8811
13612TIP3    H262328   2.607   5.894  12.541 -0.6851  0.0216 -1.3776
13613TIP3   OH262329   4.839   4.732   0.460 -0.5041  0.0031  0.0445
13613TIP3    H162330   4.797   4.791   0.522 -1.3612  1.3634 -1.7342
13613TIP3    H262331   4.916   4.779   0.428 -1.0214  0.0820 -1.1617
13614TIP3   OH262332   6.666   0.212  13.839  0.8688 -0.2955 -0.0051
13614TIP3    H162333   6.589   0.169  13.799  0.9271 -0.1932 -0.2303
13614TIP3    H262334   6.703   0.145  13.896 -0.4817  0.2451  1.6090
13615TIP3   OH262335   2.413   6.069  15.459  0.1234 -0.3566  0.0352
13615TIP3    H162336   2.357   6.146  15.470  0.9047  0.2983 -0.4709
13615TIP3    H262337   2.490   6.102  15.414 -0.2494 -1.7611 -1.7387
13616TIP3   OH262338   5.458   4.634  11.537  0.5966  0.2993  0.3452
13616TIP3    H162339   5.529   4.572  11.523 -0.3245 -0.5771 -0.6033
13616TIP3    H262340   5.442   4.632  11.632  0.3075 -1.2422  0.2850
13617TIP3   OH262341   1.374   0.224   2.626 -0.3360 -0.2291  0.3074
13617TIP3    H162342   1.394   0.148   2.680  0.2535 -0.5293 -0.3161
13617TIP3    H262343   1.437   0.219   2.554 -1.3944 -0.0805 -0.6514
13618TIP3   OH262344   3.264   5.871  11.302 -0.1094 -0.4359  0.0388
13618TIP3    H162345   3.271   5.777  11.321  0.6508 -0.7434 -1.6498
13618TIP3    H262346   3.189   5.879  11.244  0.1958 -0.0813 -0.3152
13619TIP3   OH262347   3.398   0.365  17.117  0.3695 -0.5785 -0.1211
13619TIP3    H162348   3.341   0.436  17.148  0.3597 -0.9865  0.8263
13619TIP3    H262349   3.452   0.406  17.049  1.6738  0.8838  1.6720
13620TIP3   OH262350   6.623   6.162  13.424 -0.1724 -0.0832  0.3821
13620TIP3    H162351   6.661   6.141  13.339 -1.4462 -1.3584  0.0952
13620TIP3    H262352   6.697   6.165  13.483  0.8343  1.5374 -0.8682
13621TIP3   OH262353   1.818   3.577  12.779 -0.1107  0.0741 -0.2763
13621TIP3    H162354   1.727   3.550  12.790 -0.1043  0.6448  1.5863
13621TIP3    H262355   1.869   3.506  12.818  0.3272 -0.6481 -2.0753
13622TIP3   OH262356   1.374   6.696  14.689  0.2727  0.1261  0.2893
13622TIP3    H162357   1.415   6.735  14.767 -1.3114  0.2277  1.1038
13622TIP3    H262358   1.345   6.771  14.637  1.4741  0.0621 -0.5193
13623TIP3   OH262359   5.466   2.636  16.516  0.3794 -0.0132  0.1553
13623TIP3    H162360   5.395   2.657  16.577  0.5756  0.9217  0.0658
13623TIP3    H262361   5.477   2.541  16.525  0.0033  0.0224  1.1384
13624TIP3   OH262362   1.718   0.362   2.703 -0.4323  0.3218 -0.1004
13624TIP3    H162363   1.704   0.455   2.685  1.2180  0.6390  0.0936
13624TIP3    H262364   1.802   0.343   2.663 -0.8862 -1.1729 -0.3774
13625TIP3   OH262365   6.403   5.077  11.356 -0.0922  0.3147 -0.4744
13625TIP3    H162366   6.411   5.139  11.284 -1.5174  0.2900 -0.6831
13625TIP3    H262367   6.438   4.995  11.322  2.1081  1.0293 -0.0921
13626TIP3   OH262368   5.259   4.896   2.999 -0.1519 -0.7988  0.1631
13626TIP3    H162369   5.354   4.889   2.988  0.0952  2.1782 -0.2817
13626TIP3    H262370   5.226   4.904   2.909 -0.3044  2.4039  0.4013
13627TIP3   OH262371   5.216   4.804  11.691  0.0391  0.3219  0.2748
13627TIP3    H162372   5.181   4.716  11.678 -0.5774  0.5766  0.1777
13627TIP3    H262373   5.288   4.792  11.752  1.7674 -0.6341 -1.8189
13628TIP3   OH262374   5.996   2.724  11.826  0.0558  0.1147 -0.4307
13628TIP3    H162375   6.011   2.764  11.911 -1.0272  3.1879 -1.5478
13628TIP3    H262376   5.960   2.638  11.846  2.0816 -0.2433  2.1582
13629TIP3   OH262377   4.159   0.515   1.124  0.6284  0.2984 -0.1704
13629TIP3    H162378   4.148   0.591   1.068  3.3592  0.4514 -0.6366
13629TIP3    H262379   4.180   0.551   1.210  2.0076  0.1373 -0.4094
13630TIP3   OH262380   3.958   4.473   6.441  0.1131 -0.0898 -0.2935
13630TIP3    H162381   3.869   4.505   6.457  0.6339  0.8252  0.9414
13630TIP3    H262382   3.953   4.379   6.463 -0.8765 -0.3987 -1.6948
13631TIP3   OH262383   5.553   3.526  11.578 -0.2503  0.0210 -0.1872
13631TIP3    H162384   5.622   3.593  11.583 -2.2990  2.2147  1.3567
13631TIP3    H262385   5.482   3.568  11.529 -1.8151 -0.7629  1.2927
13632TIP3   OH262386   6.065   3.421  13.794  0.4639 -0.4164 -0.6548
13632TIP3    H162387   6.090   3.482  13.725 -0.8984  0.1043 -0.7148
13632TIP3    H262388   6.051   3.338  13.749 -2.9226  0.4891 -1.5193
13633TIP3   OH262389   4.078   2.245  15.015 -0.8577  0.1406 -0.5358
13633TIP3    H162390   4.143   2.278  14.954  0.7247 -0.1045  0.9345
13633TIP3    H262391   4.010   2.207  14.960  0.7595 -0.5640 -2.1345
13634TIP3   OH262392   3.470   2.110  16.500  0.0834  0.4246  0.4788
13634TIP3    H162393   3.422   2.090  16.419  0.1824  0.9676  0.2790
13634TIP3    H262394   3.485   2.204  16.496 -0.1583  0.5057  1.2742
13635TIP3   OH262395   3.488   1.189  17.134  0.3190  0.3375  0.3329
13635TIP3    H162396   3.500   1.112  17.190 -2.8350  0.0070  0.7346
13635TIP3    H262397   3.503   1.264  17.191 -0.6052 -0.0080  1.0534
13636TIP3   OH262398   2.291   1.806  14.117 -0.0850 -0.1258 -0.7919
13636TIP3    H162399   2.337   1.890  14.118 -0.5147  0.2208  2.4143
13636TIP3    H262400   2.338   1.753  14.182 -1.4240 -1.4002 -0.8150
13637TIP3   OH262401   3.853   1.301   1.811 -0.1127 -0.0888 -0.3945
13637TIP3    H162402   3.789   1.296   1.882 -0.2899 -0.9603 -0.6026
13637TIP3    H262403   3.919   1.235   1.833  0.2286  0.1621 -0.6537
13638TIP3   OH262404   3.997   3.383  11.883  0.8090  0.3848  0.6548
13638TIP3    H162405   3.942   3.379  11.805 -0.2339  0.5239  1.3574
13638TIP3    H262406   4.076   3.335  11.860 -0.6052 -1.9938  0.4043
13639TIP3   OH262407   0.098   0.158   1.497  0.2327 -0.3673  0.1924
13639TIP3    H162408   0.077   0.241   1.539 -2.2121 -2.1312  2.8096
13639TIP3    H262409   0.033   0.148   1.427 -0.3713 -0.6953  0.7980
13640TIP3   OH262410   6.463   3.149   1.151 -0.1425 -0.4048 -0.0093
13640TIP3    H162411   6.371   3.139   1.174 -0.2799  1.8236  0.6099
13640TIP3    H262412   6.478   3.084   1.082 -1.8753 -1.5368  0.6255
13641TIP3   OH262413   4.559   1.378  15.724 -0.3081 -0.0286  0.1004
13641TIP3    H162414   4.502   1.317  15.677 -1.6332 -0.3313  1.9938
13641TIP3    H262415   4.632   1.325  15.754 -0.7469 -0.3754  0.5503
13642TIP3   OH262416   1.225   6.136   2.841  0.0027  0.3656  0.4605
13642TIP3    H162417   1.297   6.074   2.848  1.1093  1.6056  0.5948
13642TIP3    H262418   1.147   6.087   2.865  0.9109 -0.8220  1.0414
13643TIP3   OH262419   3.753   2.015   3.553 -0.4170  0.5849  0.1891
13643TIP3    H162420   3.823   1.962   3.516 -0.0527  2.0506 -1.3664
13643TIP3    H262421   3.704   1.955   3.610 -0.1553 -1.4275 -1.5992
13644TIP3   OH262422   5.915   2.061   4.054 -0.2812 -0.4356  0.3569
13644TIP3    H162423   5.835   2.088   4.009  0.1562  2.0774  0.9185
13644TIP3    H262424   5.985   2.085   3.994  0.1770  0.5940  1.2660
13645TIP3   OH262425   2.699   2.882   2.696 -0.4570  0.8843 -0.0143
13645TIP3    H162426   2.794   2.892   2.707 -0.4917  0.8620  0.3295
13645TIP3    H262427   2.661   2.941   2.761 -0.6681 -0.2846  0.9672
13646TIP3   OH262428   2.374   3.102   0.889  0.7073  0.4102  0.1271
13646TIP3    H162429   2.423   3.057   0.958  0.8783 -0.3565 -0.4870
13646TIP3    H262430   2.392   3.052   0.809  0.6936  1.4118 -0.5242
13647TIP3   OH262431   6.289   1.957  12.790  0.2498  0.0313 -0.4053
13647TIP3    H162432   6.290   1.863  12.808  1.0166  0.1157  0.0370
13647TIP3    H262433   6.324   1.997  12.870  2.3846  0.5180 -1.5326
13648TIP3   OH262434   0.038   4.254   1.552  0.5876  0.1082 -0.3456
13648TIP3    H162435  -0.030   4.194   1.522 -0.9875  2.3453 -1.5168
13648TIP3    H262436   0.106   4.247   1.485  0.2599 -0.0790 -0.6646
13649TIP3   OH262437   2.789   5.596   1.665 -0.0779  0.3664 -0.1865
13649TIP3    H162438   2.785   5.560   1.576  0.9850 -1.2176  0.3549
13649TIP3    H262439   2.724   5.666   1.665 -1.2135 -0.6080 -1.7680
13650TIP3   OH262440   0.478   5.443   3.038 -0.0339 -0.0595  0.4914
13650TIP3    H162441   0.474   5.352   3.068 -0.0773 -0.5803 -1.0083
13650TIP3    H262442   0.512   5.492   3.113 -0.9524 -1.1455  1.6607
13651TIP3   OH262443   6.089   6.599   0.533  0.0843  0.4163  0.2656
13651TIP3    H162444   6.168   6.608   0.585  0.8290 -2.1599 -0.2861
13651TIP3    H262445   6.042   6.525   0.573 -0.7261  0.2119 -0.9988
13652TIP3   OH262446   0.074   3.497  16.893  0.6136 -0.5002  0.3657
13652TIP3    H162447   0.071   3.517  16.800  0.6753  0.0456  0.4776
13652TIP3    H262448   0.000   3.544  16.931  1.3408  0.3502  0.7794
13653TIP3   OH262449   1.850   5.421   5.477  0.1629 -0.3185  0.2546
13653TIP3    H162450   1.789   5.417   5.550 -0.1329 -2.6265 -0.0258
13653TIP3    H262451   1.936   5.433   5.518 -0.1953  0.3239  0.8291
13654TIP3   OH262452   4.358   5.405  11.751  0.0444 -0.4288  0.9391
13654TIP3    H162453   4.427   5.355  11.707  0.6805  0.6072  0.7111
13654TIP3    H262454   4.402   5.486  11.779 -1.8159  2.1402 -2.6722
13655TIP3   OH262455   6.726   3.685  11.196 -0.1804  0.3490  0.0927
13655TIP3    H162456   6.819   3.680  11.176  0.1177 -1.9834  1.6072
13655TIP3    H262457   6.683   3.649  11.118  0.1234  1.7270 -0.7386
13656TIP3   OH262458   3.853   4.592   5.843  0.2131  0.4395  0.3700
13656TIP3    H162459   3.923   4.544   5.887 -0.9778 -1.7258  0.0599
13656TIP3    H262460   3.783   4.597   5.908 -0.2323  0.4316 -0.1035
13657TIP3   OH262461   0.547   4.908  15.287  0.6260  0.3524 -0.0951
13657TIP3    H162462   0.481   4.842  15.265 -0.2580  0.3384  2.2504
13657TIP3    H262463   0.619   4.858  15.327  0.8922  0.6076 -0.2489
13658TIP3   OH262464   0.075   1.507  14.751 -0.4918  0.1809 -0.5459
13658TIP3    H162465  -0.008   1.463  14.769  0.9767 -2.5183  0.1629
13658TIP3    H262466   0.129   1.492  14.829  1.2998  0.2599 -1.6974
13659TIP3   OH262467   3.992   1.152  13.398 -0.2948 -0.2210  0.1986
13659TIP3    H162468   3.905   1.158  13.437 -0.5059 -0.3051 -0.2608
13659TIP3    H262469   4.051   1.144  13.473 -0.7058 -0.4470  0.5010
13660TIP3   OH262470   0.518   3.978  12.085  0.0193  0.1543  0.3305
13660TIP3    H162471   0.456   4.036  12.042  0.4019  0.4187  0.1396
13660TIP3    H262472   0.478   3.891  12.078  0.1246  0.1775 -0.6400
13661TIP3   OH262473   3.191   5.596  17.124  0.2482  0.8172 -0.1190
13661TIP3    H162474   3.272   5.644  17.144  0.7510  0.1167 -0.4209
13661TIP3    H262475   3.176   5.542  17.202  1.8686 -1.4503 -1.2555
13662TIP3   OH262476   0.953   5.646   1.594  0.0562 -0.1686 -0.3582
13662TIP3    H162477   0.909   5.704   1.531 -1.2367  0.5451  1.1335
13662TIP3    H262478   0.979   5.570   1.542 -3.8408 -1.1266 -1.2436
13663TIP3   OH262479   0.449   4.934   2.950  0.5032  0.1715  0.3189
13663TIP3    H162480   0.534   4.954   2.989  0.3419  3.0320 -0.6007
13663TIP3    H262481   0.465   4.930   2.856 -0.1993 -0.4220  0.2113
13664TIP3   OH262482   1.701   3.178  14.428  0.0282  0.1730 -0.1975
13664TIP3    H162483   1.744   3.189  14.343  0.7694  0.7264  0.2407
13664TIP3    H262484   1.741   3.244  14.484 -1.2608  0.5699  0.2840
13665TIP3   OH262485   3.246   3.698   5.147  0.6563 -0.4249  0.1617
13665TIP3    H162486   3.184   3.739   5.087 -0.1432 -2.9114 -0.8624
13665TIP3    H262487   3.318   3.668   5.090  0.7354 -1.2709  0.6940
13666TIP3   OH262488   5.278   3.426  14.196  0.4616 -0.4077  0.0971
13666TIP3    H162489   5.244   3.336  14.192  0.8982 -0.5399 -1.0240
13666TIP3    H262490   5.314   3.435  14.284 -0.8219 -0.8700  0.6916
13667TIP3   OH262491   2.161   2.833  15.711  0.4000  0.2541 -0.4744
13667TIP3    H162492   2.204   2.910  15.748 -1.2597  1.4365 -0.8994
13667TIP3    H262493   2.183   2.835  15.618 -0.0106  0.5075 -0.5729
13668TIP3   OH262494   0.387   0.536   5.752 -0.3593  0.0821 -0.1735
13668TIP3    H162495   0.341   0.516   5.670  0.5926 -0.3097 -0.6222
13668TIP3    H262496   0.435   0.456   5.773  0.6163  0.6828 -0.0465
13669TIP3   OH262497   3.764   6.648   3.751  0.1150 -0.0205  0.3371
13669TIP3    H162498   3.801   6.617   3.834  0.1106 -0.9584  0.0014
13669TIP3    H262499   3.671   6.661   3.770 -0.1427 -1.4487  0.1766
13670TIP3   OH262500   1.643   1.244  14.205 -0.3745 -0.1946  0.6383
13670TIP3    H162501   1.715   1.188  14.174 -0.6809  0.4097 -1.2381
13670TIP3    H262502   1.580   1.182  14.243 -0.0386 -0.9906 -0.0604
13671TIP3   OH262503   0.765   5.495  15.390 -0.5065 -0.0629 -0.1876
13671TIP3    H162504   0.796   5.411  15.356 -1.8011 -0.6327 -0.0027
13671TIP3    H262505   0.677   5.478  15.423  0.1183  0.7607  2.1915
13672TIP3   OH262506   4.502   2.802  11.429  0.3230  0.1057  0.2288
13672TIP3    H162507   4.543   2.881  11.394  1.7712 -1.0831 -0.8781
13672TIP3    H262508   4.425   2.789  11.373  0.6059  0.2055 -0.1846
13673TIP3   OH262509   0.955   6.251   0.679  0.0160  0.3296 -0.1311
13673TIP3    H162510   1.029   6.283   0.627 -0.0115  1.1294  0.2991
13673TIP3    H262511   0.912   6.331   0.710 -1.7054 -0.0903 -1.3022
13674TIP3   OH262512   2.218   5.336   2.931 -0.2377 -0.4697  0.3646
13674TIP3    H162513   2.132   5.297   2.945  0.4251 -2.0939  0.1756
13674TIP3    H262514   2.227   5.342   2.836 -0.5719  0.7781  0.3916
13675TIP3   OH262515   2.014   0.220   0.704 -0.0915  0.3732  0.2396
13675TIP3    H162516   2.074   0.286   0.670  0.0841  0.1992  0.2095
13675TIP3    H262517   1.943   0.270   0.745 -0.5703  0.5930 -0.8333
13676TIP3   OH262518   5.656   0.961  14.554  0.2007  0.3779  0.1985
13676TIP3    H162519   5.684   1.018  14.482 -0.9397  1.1092  0.3193
13676TIP3    H262520   5.595   1.014  14.605  0.9984 -0.1232  1.7341
13677TIP3   OH262521   3.532   2.350   4.599  0.1500  0.1468  0.0912
13677TIP3    H162522   3.494   2.438   4.599  1.1741  0.6052  0.0162
13677TIP3    H262523   3.509   2.315   4.513  0.1232  0.5185 -0.0579
13678TIP3   OH262524   6.257   2.064  17.168  0.2607 -0.0721 -0.1305
13678TIP3    H162525   6.189   2.112  17.215 -0.0757  0.5543 -1.2304
13678TIP3    H262526   6.249   1.974  17.200  0.0664  0.3306  1.0130
13679TIP3   OH262527   5.235   5.917  14.629 -0.0205  0.3274 -0.3578
13679TIP3    H162528   5.290   5.870  14.692  0.8990 -1.2311 -2.2483
13679TIP3    H262529   5.145   5.903  14.660  0.3354 -1.4107 -0.0221
13680TIP3   OH262530   2.775   6.746   2.731  0.8107 -0.0521 -0.5692
13680TIP3    H162531   2.713   6.812   2.698  1.0752 -0.2784 -1.5593
13680TIP3    H262532   2.787   6.686   2.658  1.3594 -0.6346 -0.0152
13681TIP3   OH262533   1.541   5.888   2.479  0.0764  0.3198  0.4678
13681TIP3    H162534   1.545   5.795   2.455  0.0730  0.2243  0.8332
13681TIP3    H262535   1.530   5.933   2.396  1.1287  0.0639  0.1656
13682TIP3   OH262536   2.704   4.127   2.336  0.4255  0.1357 -0.0151
13682TIP3    H162537   2.775   4.095   2.391  0.5570 -1.7515 -1.1753
13682TIP3    H262538   2.650   4.049   2.320 -0.2889  0.8972 -1.5142
13683TIP3   OH262539   6.091   1.331  11.943 -0.1175 -0.1907 -1.1494
13683TIP3    H162540   6.162   1.372  11.895  3.8395 -1.3853  2.9978
13683TIP3    H262541   6.034   1.404  11.967  0.8400  1.1685 -2.8019
13684TIP3   OH262542   1.586   2.034   2.739  0.3456 -0.2414 -0.2756
13684TIP3    H162543   1.513   1.981   2.771 -0.2381  0.7665  0.1072
13684TIP3    H262544   1.640   1.973   2.688  0.2024 -1.4133  0.9200
13685TIP3   OH262545   5.437   1.551  14.918  0.5372 -0.4693  0.5617
13685TIP3    H162546   5.365   1.488  14.923 -0.2480  0.4435  1.1567
13685TIP3    H262547   5.484   1.541  15.000  0.0486  0.1309  0.9203
13686TIP3   OH262548   3.623   5.828   2.966  0.6031  0.1042  0.6640
13686TIP3    H162549   3.616   5.788   3.053  0.8291 -0.2702  0.5141
13686TIP3    H262550   3.692   5.778   2.923  0.8338  0.6163  0.4443
13687TIP3   OH262551   6.429   4.285   4.651 -0.1688  0.0976 -0.7217
13687TIP3    H162552   6.497   4.299   4.585  0.5892 -0.5864 -0.1110
13687TIP3    H262553   6.360   4.239   4.604  1.1391 -2.0901 -0.7057
13688TIP3   OH262554   5.750   3.868  14.106  0.0173 -0.4932  0.5349
13688TIP3    H162555   5.794   3.821  14.035  3.1851  0.2736  1.8204
13688TIP3    H262556   5.753   3.960  14.079 -0.5516 -0.3927  0.8040
13689TIP3   OH262557   3.040   6.599  12.240  0.3276 -0.0745 -0.3369
13689TIP3    H162558   3.088   6.613  12.158 -2.1372 -1.4246 -2.0966
13689TIP3    H262559   2.970   6.538  12.218 -0.5825 -0.3165  2.7541
13690TIP3   OH262560   4.879   5.696  11.128 -0.7806  0.2630  0.9347
13690TIP3    H162561   4.819   5.766  11.151 -0.7665  0.8955 -0.8085
13690TIP3    H262562   4.966   5.733  11.143 -0.6586  1.6724 -2.4037
13691TIP3   OH262563   4.491   3.002   4.345 -0.2542  0.9361 -0.0915
13691TIP3    H162564   4.453   2.915   4.345  1.9873 -0.1154  0.3297
13691TIP3    H262565   4.464   3.041   4.428 -0.2492  0.1631  0.2762
13692TIP3   OH262566   0.121   0.422  15.418 -0.6399  0.1168  0.5366
13692TIP3    H162567   0.209   0.460  15.419 -0.0457 -1.2107  1.3877
13692TIP3    H262568   0.122   0.359  15.346 -1.5651  1.5004 -0.7509
13693TIP3   OH262569   1.428   1.494   3.398  0.9417  0.2004 -0.2912
13693TIP3    H162570   1.362   1.555   3.432  0.2385 -0.7763  0.1131
13693TIP3    H262571   1.491   1.485   3.470  0.8295  0.1378 -0.2002
13694TIP3   OH262572   4.853   4.719   3.578 -0.2986 -0.1688 -0.6016
13694TIP3    H162573   4.880   4.661   3.649 -2.0494 -0.4853 -0.1378
13694TIP3    H262574   4.930   4.727   3.522  0.5126 -1.5245  0.2679
13695TIP3   OH262575   3.027   4.481   4.073 -0.2874  0.2855 -0.5432
13695TIP3    H162576   3.065   4.444   4.153 -0.8616 -1.7096 -1.1468
13695TIP3    H262577   2.997   4.405   4.023  0.2382  1.4606 -2.7722
13696TIP3   OH262578   4.093   3.338   4.251  0.0004  0.1315  0.2660
13696TIP3    H162579   4.086   3.425   4.292  0.0327  0.0594  0.4247
13696TIP3    H262580   4.017   3.333   4.193 -0.9364 -0.3858  1.4956
13697TIP3   OH262581   1.126   5.511   0.291 -0.2558  0.1192 -0.5084
13697TIP3    H162582   1.066   5.499   0.218 -1.7114 -0.6015  0.7308
13697TIP3    H262583   1.069   5.513   0.368  1.3079 -0.5963  0.7289
13698TIP3   OH262584   2.244   6.742  12.632 -0.1732  0.1124  0.2258
13698TIP3    H162585   2.198   6.795  12.567  0.4831  0.6449  0.1895
13698TIP3    H262586   2.296   6.804  12.682 -1.9136 -0.0245  2.3954
13699TIP3   OH262587   3.943   6.219   3.180  0.5570 -0.1619 -0.5254
13699TIP3    H162588   3.981   6.266   3.254  2.6020  0.4441 -1.8614
13699TIP3    H262589   3.941   6.128   3.207 -0.9127  0.3122  1.1018
13700TIP3   OH262590   4.521   3.460   5.904  0.4301  0.1225 -0.4222
13700TIP3    H162591   4.534   3.475   5.811  0.5449 -0.5653 -0.5266
13700TIP3    H262592   4.460   3.528   5.932 -1.7467 -1.2240 -1.5803
13701TIP3   OH262593   5.339   3.739   0.811  0.0765  0.2879  0.3711
13701TIP3    H162594   5.430   3.745   0.782 -0.6024  0.6306 -1.9533
13701TIP3    H262595   5.330   3.650   0.845  0.9306 -0.2672 -0.7828
13702TIP3   OH262596   2.998   4.349   6.630  0.2886  0.3694 -0.6718
13702TIP3    H162597   2.924   4.295   6.656  1.0438 -1.0766 -1.3864
13702TIP3    H262598   2.990   4.358   6.535  1.9715 -1.4146 -1.0655
13703TIP3   OH262599   1.899   0.192  12.302  0.1807 -0.3886  0.5789
13703TIP3    H162600   1.962   0.247  12.349 -0.0982  0.8957 -0.4756
13703TIP3    H262601   1.912   0.215  12.210 -1.4434 -0.4967  0.2958
13704TIP3   OH262602   0.215   2.952   4.317 -0.1548 -0.2763 -0.2023
13704TIP3    H162603   0.120   2.960   4.309 -0.3623 -1.3586  0.8711
13704TIP3    H262604   0.230   2.939   4.410  0.9509 -1.2981 -0.5039
13705TIP3   OH262605   0.151   6.196   4.531  0.3566  0.4370  0.2016
13705TIP3    H162606   0.177   6.279   4.569 -0.1105  0.4766  0.4392
13705TIP3    H262607   0.056   6.201   4.524  0.2080 -0.5158  1.2570
13706TIP3   OH262608   2.700   6.347  16.447  0.0470 -0.6882 -0.1474
13706TIP3    H162609   2.719   6.312  16.535  1.2372 -0.5363 -0.3174
13706TIP3    H262610   2.753   6.293  16.388  0.6776  0.3441 -0.5741
13707TIP3   OH262611   2.620   4.070   1.372 -0.6550 -0.3048 -0.4636
13707TIP3    H162612   2.706   4.106   1.349 -1.2439  1.0647 -0.5976
13707TIP3    H262613   2.628   3.977   1.353  0.8720 -0.2511 -0.2627
13708TIP3   OH262614   3.666   6.665  11.395  0.3486  0.5847  0.8331
13708TIP3    H162615   3.666   6.668  11.299 -0.5907  0.1640  0.8085
13708TIP3    H262616   3.672   6.572  11.416  1.4986  0.7224  1.2127
13709TIP3   OH262617   3.428   6.402   4.720  0.2521 -0.4052 -0.7157
13709TIP3    H162618   3.375   6.461   4.774  1.8744  0.4509  0.0003
13709TIP3    H262619   3.493   6.459   4.678  0.4907 -1.3904 -1.7530
13710TIP3   OH262620   5.097   0.369  15.919 -0.0393 -0.3904 -0.4281
13710TIP3    H162621   5.105   0.363  16.014 -0.3683 -0.7228 -0.4203
13710TIP3    H262622   5.091   0.278  15.889  0.6999 -0.3132 -0.8244
13711TIP3   OH262623   5.490   2.146  16.183 -0.5436 -0.1767  0.1926
13711TIP3    H162624   5.583   2.154  16.162 -0.9055 -0.7195 -1.8930
13711TIP3    H262625   5.445   2.189  16.110 -1.9487  1.1667  1.7561
13712TIP3   OH262626   0.952   5.428   0.510  0.2218  0.2450  0.3567
13712TIP3    H162627   0.993   5.510   0.536 -0.7041  0.1630  2.2830
13712TIP3    H262628   0.859   5.441   0.526  0.1602 -1.5013  1.8070
13713TIP3   OH262629   3.156   3.981  16.648  0.1383  0.7544  0.2067
13713TIP3    H162630   3.124   3.920  16.581 -1.2344  2.5138 -0.8455
13713TIP3    H262631   3.239   4.012  16.613  0.5697 -0.0686  0.4754
13714TIP3   OH262632   2.442   6.270   5.607  0.3992  0.2406 -0.5454
13714TIP3    H162633   2.454   6.185   5.564 -0.4654 -2.2214  3.5186
13714TIP3    H262634   2.349   6.290   5.594 -0.0828 -0.9651  0.7919
13715TIP3   OH262635   0.801   4.101   1.672  0.3717 -0.0065  0.1297
13715TIP3    H162636   0.778   4.012   1.699 -0.2920  0.5182  1.3881
13715TIP3    H262637   0.732   4.126   1.612 -0.0508  0.0508  0.6343
13716TIP3   OH262638   4.832   3.297   5.584 -0.1934  0.3952  0.1343
13716TIP3    H162639   4.839   3.330   5.494  0.3743  1.1033  0.4258
13716TIP3    H262640   4.917   3.258   5.602 -0.0878  0.8132  0.5720
13717TIP3   OH262641   2.202   6.451   1.033  0.0370 -0.0529 -0.4764
13717TIP3    H162642   2.235   6.405   1.110  1.4529 -0.3652 -1.2208
13717TIP3    H262643   2.128   6.398   1.003 -1.9648  1.2276  1.8485
13718TIP3   OH262644   6.482   6.364   0.629 -0.2506 -0.2014 -0.4163
13718TIP3    H162645   6.524   6.376   0.715  0.0898 -2.0134 -0.2941
13718TIP3    H262646   6.394   6.400   0.641 -0.6668 -1.6133  1.1315
13719TIP3   OH262647   2.029   6.200   2.834  0.1395 -0.1758  0.2487
13719TIP3    H162648   1.985   6.280   2.806  0.1037 -0.0040  0.8048
13719TIP3    H262649   1.996   6.133   2.773  2.1041  0.6877 -1.9215
13720TIP3   OH262650   2.272   4.743   5.675  0.3492  0.2889  0.1047
13720TIP3    H162651   2.288   4.648   5.674  0.5307  0.3119  0.5421
13720TIP3    H262652   2.241   4.761   5.764  0.2413  0.6288 -0.0005
13721TIP3   OH262653   3.534   1.142  11.148  0.4827 -0.1333  0.0842
13721TIP3    H162654   3.596   1.105  11.086  0.5774 -0.7018  0.5141
13721TIP3    H262655   3.457   1.085  11.143 -1.1233  1.9823 -2.3511
13722TIP3   OH262656   1.817   2.720   1.872 -0.1370 -0.3405 -0.2054
13722TIP3    H162657   1.798   2.676   1.789 -1.1898 -0.6917  0.2065
13722TIP3    H262658   1.765   2.672   1.937  2.6614 -1.8143  1.1452
13723TIP3   OH262659   0.163   0.634   4.065  0.2800  0.6564  0.4856
13723TIP3    H162660   0.189   0.570   3.999  2.6642  0.1239  1.8323
13723TIP3    H262661   0.118   0.703   4.015 -0.1074 -0.8241 -1.3247
13724TIP3   OH262662   5.980   6.267  13.713  0.2206  1.2063  0.1721
13724TIP3    H162663   6.061   6.220  13.695 -0.6986 -1.2829  1.9991
13724TIP3    H262664   5.913   6.222  13.662 -1.0491 -1.0702  3.5364
13725TIP3   OH262665   4.083   3.133  15.847  0.2377  0.1361  0.3001
13725TIP3    H162666   4.175   3.123  15.870  0.0248 -1.0247  0.7071
13725TIP3    H262667   4.046   3.190  15.915  0.2332 -0.9884  1.2675
13726TIP3   OH262668   5.623   0.209  10.862  0.0970  0.2465  0.5313
13726TIP3    H162669   5.665   0.221  10.777 -0.8043 -1.4063 -0.2010
13726TIP3    H262670   5.661   0.128  10.897 -1.4586 -0.5547  0.4547
13727TIP3   OH262671   5.576   6.100  13.772 -0.5526 -0.1059 -0.0954
13727TIP3    H162672   5.629   6.022  13.789  0.0312  0.6313  1.7150
13727TIP3    H262673   5.568   6.103  13.676  1.8413 -0.8187 -0.3908
13728TIP3   OH262674   2.197   3.102  10.344  0.2210  0.0973  0.3026
13728TIP3    H162675   2.225   3.193  10.343  0.9683 -0.1183 -0.6003
13728TIP3    H262676   2.102   3.106  10.333  0.0428  0.8062  1.9235
13729TIP3   OH262677   0.741   5.421  16.090 -0.2172 -0.2271  0.0660
13729TIP3    H162678   0.699   5.506  16.081 -0.6322 -0.4885 -0.5964
13729TIP3    H262679   0.764   5.396  16.000  0.7666 -0.3877  0.3538
13730TIP3   OH262680   6.416   5.126   4.701 -0.6162  0.2834 -0.8966
13730TIP3    H162681   6.463   5.046   4.725 -0.3837  0.4527 -0.7809
13730TIP3    H262682   6.482   5.181   4.661  0.1707  1.9381  2.3551
13731TIP3   OH262683   4.222   2.488   1.073 -0.2621 -0.0153 -0.3123
13731TIP3    H162684   4.146   2.435   1.049 -0.5327  0.9937 -1.8675
13731TIP3    H262685   4.203   2.518   1.162 -0.0194 -2.5843  0.6747
13732TIP3   OH262686   2.396   2.324  11.616  0.0421 -0.2009  0.3677
13732TIP3    H162687   2.386   2.353  11.707 -0.0808  0.6597  0.0791
13732TIP3    H262688   2.349   2.240  11.613 -0.8640  0.2818  0.8338
13733TIP3   OH262689   0.229   0.677  15.535 -0.4522  0.2450 -0.0806
13733TIP3    H162690   0.319   0.680  15.504 -1.0766 -0.0763 -2.1399
13733TIP3    H262691   0.178   0.718  15.464 -2.0474 -0.8030  0.3981
13734TIP3   OH262692   2.175   2.183   5.982  0.1387  0.1942  0.0171
13734TIP3    H162693   2.159   2.241   5.908 -0.3269 -1.3342 -1.1591
13734TIP3    H262694   2.254   2.216   6.023  0.7311  0.7697 -1.5235
13735TIP3   OH262695   4.316   0.017   5.793  0.3533  0.4421  0.7168
13735TIP3    H162696   4.352   0.099   5.827  0.8533  0.6925 -0.3497
13735TIP3    H262697   4.222   0.022   5.809  0.3010  1.4926  0.1450
13736TIP3   OH262698   3.509   6.696   3.871 -0.7485 -0.0641  0.1601
13736TIP3    H162699   3.494   6.759   3.800 -1.7169  0.3286  0.6936
13736TIP3    H262700   3.440   6.631   3.860 -1.3032  0.3456  1.1147
13737TIP3   OH262701   6.698   6.403  16.070 -0.2163  0.1849 -0.3844
13737TIP3    H162702   6.733   6.445  16.148 -1.6744  0.9337 -0.1016
13737TIP3    H262703   6.775   6.383  16.016  0.7104  0.7011  0.7243
13738TIP3   OH262704   1.833   5.079  13.468  0.0856 -0.9045  0.8998
13738TIP3    H162705   1.761   5.019  13.484  0.0388 -0.9659  0.4672
13738TIP3    H262706   1.793   5.166  13.469 -0.8280 -1.0317 -3.2314
13739TIP3   OH262707   1.102   5.562   5.701 -0.5403 -0.1482  0.0145
13739TIP3    H162708   1.042   5.491   5.680  1.5316 -1.9742 -0.0645
13739TIP3    H262709   1.148   5.532   5.780 -0.6162  1.7736  0.8411
13740TIP3   OH262710   1.636   1.438   2.435 -0.1568 -0.1274 -0.1570
13740TIP3    H162711   1.704   1.495   2.400 -0.6201  0.4694 -0.1093
13740TIP3    H262712   1.683   1.364   2.474  0.4191 -0.1036 -0.8019
13741TIP3   OH262713   1.514   5.524  16.133 -0.0318  0.1627 -0.1488
13741TIP3    H162714   1.442   5.584  16.113  0.1024  0.1402 -0.7315
13741TIP3    H262715   1.540   5.546  16.223 -0.2894  0.6606 -0.1924
13742TIP3   OH262716   3.455   4.438   4.379 -0.2736 -0.3164 -0.7127
13742TIP3    H162717   3.441   4.397   4.294 -1.7684 -0.9154 -0.1899
13742TIP3    H262718   3.451   4.367   4.442  2.0505 -0.0692 -0.1966
13743TIP3   OH262719   3.623   0.667   5.413 -0.2223 -0.4993 -0.7900
13743TIP3    H162720   3.594   0.651   5.323 -0.9503  1.3776 -0.9460
13743TIP3    H262721   3.578   0.748   5.438  0.4395 -0.6580  1.0591
13744TIP3   OH262722   0.110   2.626   4.306  0.4358  0.5647 -0.5013
13744TIP3    H162723   0.100   2.701   4.364 -0.0286 -0.1377  0.3620
13744TIP3    H262724   0.030   2.625   4.254 -1.1559 -1.2172  1.8036
13745TIP3   OH262725   1.625   0.625  12.041  0.3167  0.1191  0.1668
13745TIP3    H162726   1.542   0.635  12.087  0.5207  0.0109  0.5611
13745TIP3    H262727   1.691   0.626  12.110  0.7886  1.9432 -0.2551
13746TIP3   OH262728   1.251   1.624  14.107  0.3039 -0.6061  0.2352
13746TIP3    H162729   1.305   1.580  14.172  0.6205  1.0820  1.1688
13746TIP3    H262730   1.289   1.599  14.023  0.9974 -1.4111  0.7770
13747TIP3   OH262731   3.401   1.868  11.053 -0.4846  0.4765  0.4612
13747TIP3    H162732   3.476   1.813  11.032 -0.8635 -1.4632  3.5744
13747TIP3    H262733   3.430   1.921  11.126 -1.1438  2.2433 -0.4943
13748TIP3   OH262734   5.990   0.256   0.400  0.2168 -0.1487  0.3944
13748TIP3    H162735   5.955   0.190   0.340 -2.6764 -0.0425  1.7907
13748TIP3    H262736   6.072   0.219   0.432 -0.6007 -2.4139  0.0250
13749TIP3   OH262737   4.326   2.567  11.055 -0.0013  0.6228 -0.4289
13749TIP3    H162738   4.355   2.554  10.965 -0.8227 -0.0513 -0.6144
13749TIP3    H262739   4.264   2.496  11.070  1.4120 -0.3441  1.2522
13750TIP3   OH262740   6.386   6.006  15.833  0.5227  0.3444 -0.3968
13750TIP3    H162741   6.413   6.061  15.760  0.0083  0.9684 -0.1244
13750TIP3    H262742   6.296   5.981  15.812  1.1848 -1.5685 -1.2069
13751TIP3   OH262743   4.474   3.038   0.554  0.5563  0.4834 -0.3160
13751TIP3    H162744   4.393   3.076   0.518 -1.4990 -1.8024  1.5284
13751TIP3    H262745   4.485   3.082   0.638 -0.2520 -0.8880  0.5514
13752TIP3   OH262746   5.313   1.053  13.376  0.1266  0.0533 -0.5871
13752TIP3    H162747   5.306   1.029  13.283 -0.5716  0.7950 -0.7450
13752TIP3    H262748   5.321   0.970  13.422 -0.1673 -0.3628 -1.2651
13753TIP3   OH262749   4.878   5.023  16.341 -0.5218  0.7993  0.3167
13753TIP3    H162750   4.956   5.075  16.361  0.1797 -0.0077 -0.2510
13753TIP3    H262751   4.851   5.053  16.254 -0.3481  0.5034  0.1587
13754TIP3   OH262752   5.877   2.502  16.523 -0.0529 -0.2732 -0.4335
13754TIP3    H162753   5.882   2.485  16.429 -1.6606  2.6858 -1.1966
13754TIP3    H262754   5.968   2.503  16.553  0.4373 -2.1335 -1.7311
13755TIP3   OH262755   5.175   4.887  15.577 -0.0002  0.0088  0.3252
13755TIP3    H162756   5.109   4.824  15.605  1.3716 -1.4172  0.5174
13755TIP3    H262757   5.190   4.943  15.654 -1.0129  0.4060  0.2452
13756TIP3   OH262758   4.855   1.380   5.723 -0.4154 -0.3680  0.7792
13756TIP3    H162759   4.864   1.471   5.750 -0.9623  0.1925 -0.7959
13756TIP3    H262760   4.945   1.349   5.713 -0.2257 -0.0997  1.6198
13757TIP3   OH262761   3.864   3.149  13.772  0.3987 -0.3990 -0.9374
13757TIP3    H162762   3.783   3.098  13.761 -1.5822  2.6570 -1.7461
13757TIP3    H262763   3.890   3.172  13.683  1.1968  0.0780 -0.5842
13758TIP3   OH262764   5.117   6.756  13.599 -0.0403  0.1237 -0.2086
13758TIP3    H162765   5.135   6.714  13.683 -0.9694  0.7686  0.3222
13758TIP3    H262766   5.096   6.846  13.621  1.5282  0.8034 -1.3016
13759TIP3   OH262767   5.595   6.327   1.859 -0.5632  0.1217  0.6417
13759TIP3    H162768   5.517   6.312   1.806  0.3709 -0.6022 -0.6106
13759TIP3    H262769   5.615   6.241   1.896 -0.5711  0.3845  1.2629
13760TIP3   OH262770   6.046   0.521  17.028 -0.6367  0.5798  1.0647
13760TIP3    H162771   6.044   0.614  17.051  2.8238  0.4628  2.5156
13760TIP3    H262772   6.102   0.516  16.951 -0.1504 -0.3174  1.4549
13761TIP3   OH262773   4.362   5.368  14.798 -0.3365 -0.0459 -0.0228
13761TIP3    H162774   4.357   5.430  14.871  3.1616  1.3916 -0.8340
13761TIP3    H262775   4.308   5.407  14.730  0.6453  1.4123 -0.0081
13762TIP3   OH262776   2.192   0.942   4.055  0.2593 -0.1417 -0.2653
13762TIP3    H162777   2.276   0.917   4.094  1.5198  1.0736 -2.0406
13762TIP3    H262778   2.162   0.863   4.010 -0.4399 -1.0839  1.7330
13763TIP3   OH262779   4.346   4.906  14.580 -0.0110  0.5405  0.6183
13763TIP3    H162780   4.354   4.986  14.527 -1.5581 -1.3385 -2.8321
13763TIP3    H262781   4.260   4.871  14.556 -0.2240 -1.2159  3.5306
13764TIP3   OH262782   5.965   3.603  13.134  0.0578  0.1312  0.1819
13764TIP3    H162783   6.026   3.649  13.192 -1.9691  3.1021  0.1706
13764TIP3    H262784   6.001   3.615  13.046  1.2597 -1.2938  0.4372
13765TIP3   OH262785   2.864   2.269   4.323 -0.1843  0.5343 -0.1418
13765TIP3    H162786   2.831   2.322   4.396  0.0685 -1.2443  1.3180
13765TIP3    H262787   2.786   2.229   4.285 -0.0510 -1.9115  1.9160
13766TIP3   OH262788   4.692   5.704   4.100 -0.5362  0.2880  0.2037
13766TIP3    H162789   4.720   5.721   4.190  0.1916 -1.8267  0.4308
13766TIP3    H262790   4.634   5.628   4.107 -1.2513  0.6991 -1.0201
13767TIP3   OH262791   1.847   5.895   3.228  0.3837  0.3299 -0.0081
13767TIP3    H162792   1.797   5.961   3.181 -0.7544 -0.4563  0.0675
13767TIP3    H262793   1.937   5.926   3.225 -0.0839  1.7115 -0.2596
13768TIP3   OH262794   6.394   0.966  13.944 -0.6604  0.6496  0.0980
13768TIP3    H162795   6.476   0.933  13.981 -1.1326 -1.4465 -0.5999
13768TIP3    H262796   6.400   0.948  13.850 -2.6923 -1.4312  0.2754
13769TIP3   OH262797   0.220   1.589  11.434 -0.4817 -0.0082  0.2235
13769TIP3    H162798   0.145   1.631  11.476 -1.9931  0.6619 -2.8033
13769TIP3    H262799   0.284   1.659  11.424 -0.9765  0.3669 -0.4062
13770TIP3   OH262800   1.405   0.346  16.664 -0.1206  0.2289  0.3831
13770TIP3    H162801   1.478   0.402  16.691 -0.2228 -0.2284  1.6302
13770TIP3    H262802   1.364   0.318  16.746  0.6539 -2.6842 -0.1254
13771TIP3   OH262803   1.927   4.253   5.362 -0.0854  0.3758 -0.2924
13771TIP3    H162804   1.886   4.324   5.312  0.0396  0.4449 -0.2974
13771TIP3    H262805   1.900   4.270   5.452 -1.1969 -0.3576 -0.4611
13772TIP3   OH262806   0.953   3.568  14.955  0.0641 -0.3241 -0.6387
13772TIP3    H162807   1.004   3.640  14.917  0.2017 -0.9587 -1.6856
13772TIP3    H262808   0.868   3.573  14.912 -0.7942  0.7088  1.0842
13773TIP3   OH262809   5.114   5.198   5.210  0.3475  0.1991  0.1112
13773TIP3    H162810   5.089   5.118   5.255  0.8383 -0.0106  0.0156
13773TIP3    H262811   5.190   5.174   5.157  0.6010  0.7643  0.2069
13774TIP3   OH262812   6.485   5.552  11.856  0.2432  0.6948  0.5678
13774TIP3    H162813   6.542   5.560  11.932  0.1917  2.0927  0.4864
13774TIP3    H262814   6.542   5.521  11.786  0.3278 -0.4326  1.1130
13775TIP3   OH262815   2.594   1.506  12.975 -0.2015  0.1016  0.1208
13775TIP3    H162816   2.612   1.455  13.054 -0.3295 -1.0002 -0.5363
13775TIP3    H262817   2.502   1.530  12.983 -0.3191 -0.3363  0.1400
13776TIP3   OH262818   4.133   5.761  14.747 -0.2907  0.0966 -0.3091
13776TIP3    H162819   4.219   5.724  14.728  0.4382  1.5088  0.0821
13776TIP3    H262820   4.104   5.800  14.665  0.8475  2.2696  0.2412
13777TIP3   OH262821   3.866   1.054   6.876  0.3156 -0.0160 -0.4735
13777TIP3    H162822   3.861   1.052   6.780 -0.0314 -1.0497 -0.4454
13777TIP3    H262823   3.882   1.146   6.897  0.5521  0.1970 -1.5304
13778TIP3   OH262824   6.723   1.005   2.419  0.1521  0.3433 -0.8853
13778TIP3    H162825   6.673   1.051   2.351  0.1342  1.4138 -0.1716
13778TIP3    H262826   6.658   0.951   2.463 -0.1092  0.6718 -0.8590
13779TIP3   OH262827   1.615   1.726  17.146 -0.1371  0.0838  0.4112
13779TIP3    H162828   1.606   1.643  17.193  1.3053  0.0518  0.6843
13779TIP3    H262829   1.704   1.722  17.109  1.2366  2.7777  3.0033
13780TIP3   OH262830   6.048   6.685   1.735 -0.3152  0.4446 -0.1665
13780TIP3    H162831   5.979   6.636   1.780  0.8121 -2.4156 -1.3113
13780TIP3    H262832   6.049   6.649   1.646  2.4441  0.5085 -0.2647
13781TIP3   OH262833   1.483   1.318   0.239 -0.3992  0.2739  0.1751
13781TIP3    H162834   1.399   1.342   0.280 -0.3462 -1.2872  1.2694
13781TIP3    H262835   1.458   1.261   0.166 -0.2912 -0.2888  0.5749
13782TIP3   OH262836   0.127   0.336  13.087 -0.0579  0.2406  0.4906
13782TIP3    H162837   0.214   0.325  13.125  0.3690  0.8068 -0.2655
13782TIP3    H262838   0.144   0.374  13.000 -1.1152  1.6658  0.8640
13783TIP3   OH262839   3.347   4.243   1.353 -0.6806 -0.4067  0.1958
13783TIP3    H162840   3.303   4.159   1.366 -1.2283 -0.1501 -0.0065
13783TIP3    H262841   3.279   4.302   1.321  0.0664 -0.3457 -1.4214
13784TIP3   OH262842   3.113   5.814   4.946 -0.1877 -0.5144 -0.6722
13784TIP3    H162843   3.190   5.824   5.002 -1.0475  2.1938  0.1398
13784TIP3    H262844   3.144   5.835   4.858 -0.2029  1.8258 -0.1635
13785TIP3   OH262845   1.556   3.629   3.764  0.2434  0.4285 -0.1929
13785TIP3    H162846   1.508   3.548   3.782 -0.7692  0.9464 -0.5133
13785TIP3    H262847   1.648   3.606   3.779 -0.1008 -0.5646  0.4861
13786TIP3   OH262848   4.361   0.293  13.527 -0.6530  0.9324  0.7260
13786TIP3    H162849   4.308   0.370  13.546 -2.4942  0.1309 -0.8333
13786TIP3    H262850   4.352   0.238  13.606 -1.8780  0.9725  0.6334
13787TIP3   OH262851   2.817   1.812   2.798 -0.0617 -0.2641 -0.4809
13787TIP3    H162852   2.864   1.878   2.747 -0.1996 -0.4334 -0.8296
13787TIP3    H262853   2.727   1.818   2.768  0.2037 -1.6861 -1.6817
13788TIP3   OH262854   6.116   5.248  11.208  0.4370 -0.1652 -0.0487
13788TIP3    H162855   6.023   5.228  11.211  1.0899 -4.6892 -1.9684
13788TIP3    H262856   6.125   5.311  11.136 -1.1606  1.8760  1.4098
13789TIP3   OH262857   2.254   3.813   0.295  0.5865 -0.0682 -1.0781
13789TIP3    H162858   2.336   3.860   0.276 -0.0724  1.2217 -0.8405
13789TIP3    H262859   2.208   3.811   0.211  0.4624  0.0135 -1.0116
13790TIP3   OH262860   5.205   4.728  14.765 -0.4765  0.0376 -0.5069
13790TIP3    H162861   5.239   4.803  14.717 -0.1219  1.1495  1.3798
13790TIP3    H262862   5.110   4.730  14.748 -0.6865  1.7942  0.6022
13791TIP3   OH262863   3.899   3.798   0.351 -0.7223  0.0790 -0.0406
13791TIP3    H162864   3.899   3.794   0.255 -0.6281  1.7889 -0.1302
13791TIP3    H262865   3.959   3.869   0.373 -1.1192  0.0398  1.2729
13792TIP3   OH262866   6.509   4.915   1.882 -0.5930 -0.3254 -0.1259
13792TIP3    H162867   6.519   4.999   1.837 -0.1668 -0.8661 -1.0808
13792TIP3    H262868   6.415   4.907   1.897 -0.4778  1.2645  1.8950
13793TIP3   OH262869   3.448   5.268   2.698  0.4674  0.0272  0.2188
13793TIP3    H162870   3.433   5.201   2.765  1.4853 -0.2149  0.2108
13793TIP3    H262871   3.515   5.324   2.735  2.2495 -1.0413 -1.2216
13794TIP3   OH262872   1.938   2.631   3.105 -0.6344 -1.0167 -0.1473
13794TIP3    H162873   1.855   2.621   3.151 -0.4067  0.5233  0.6880
13794TIP3    H262874   2.001   2.585   3.160 -0.5796 -0.2516  0.4620
13795TIP3   OH262875   0.718   2.301  14.259  0.1669  0.5645  0.6454
13795TIP3    H162876   0.751   2.381  14.219 -2.3380  0.9099 -0.9517
13795TIP3    H262877   0.630   2.325  14.291 -0.4941 -1.4334  0.4456
13796TIP3   OH262878   4.742   3.327   0.970  0.2346 -0.1310 -0.0378
13796TIP3    H162879   4.706   3.409   0.938  0.1541  0.1236  0.6873
13796TIP3    H262880   4.832   3.326   0.938 -0.4037 -0.8139 -1.9336
13797TIP3   OH262881   4.801   3.999  14.274 -0.1035  0.0678 -0.1872
13797TIP3    H162882   4.739   4.047  14.329  0.3984  0.4597  0.0514
13797TIP3    H262883   4.878   4.055  14.271  0.4736 -0.7001  0.0430
13798TIP3   OH262884   5.748   0.328  11.568 -0.0840 -0.2646 -0.9797
13798TIP3    H162885   5.683   0.278  11.518 -1.0758  0.8443 -0.8523
13798TIP3    H262886   5.810   0.360  11.503  0.9704 -2.1850 -0.9865
13799TIP3   OH262887   1.911   2.998   2.364  0.1149 -0.4762  0.1283
13799TIP3    H162888   1.901   2.909   2.330  0.1756 -0.5195  0.2247
13799TIP3    H262889   1.875   3.054   2.295  1.2278 -0.4893 -0.4902
13800TIP3   OH262890   0.795   6.798  10.211 -0.7212 -0.3379 -0.6538
13800TIP3    H162891   0.852   6.720  10.208 -0.9857 -0.6047  0.6831
13800TIP3    H262892   0.709   6.765  10.183 -0.9915 -0.7116  0.5261
13801TIP3   OH262893   0.830   4.620  14.545  0.7287  0.9641  0.5525
13801TIP3    H162894   0.734   4.623  14.548  0.7451  1.3890  0.8583
13801TIP3    H262895   0.852   4.613  14.452  0.4249  2.0532  0.3905
13802TIP3   OH262896   5.026   1.731   2.047 -0.2925 -0.1936  0.3502
13802TIP3    H162897   5.114   1.706   2.076 -0.4075 -0.1808  0.7162
13802TIP3    H262898   4.968   1.666   2.087 -0.5661  0.4764  1.0715
13803TIP3   OH262899   0.181   3.605   1.024 -0.4133 -0.2529  0.3979
13803TIP3    H162900   0.086   3.619   1.020 -0.3583  0.5681  1.5465
13803TIP3    H262901   0.190   3.510   1.032 -1.1597 -0.3133  0.6129
13804TIP3   OH262902   2.582   4.369   2.237 -0.2998 -0.2377 -0.2774
13804TIP3    H162903   2.489   4.360   2.215 -0.2748  0.5297 -0.7108
13804TIP3    H262904   2.597   4.300   2.302 -1.6342  0.8156  1.2402
13805TIP3   OH262905   4.028   2.604   6.172  0.1157 -0.3463 -0.3558
13805TIP3    H162906   4.071   2.674   6.221  0.2368 -2.1508  2.3860
13805TIP3    H262907   4.065   2.608   6.085  1.4658  1.8136  0.2471
13806TIP3   OH262908   3.490   5.665   2.596  0.3414 -0.5690  0.0813
13806TIP3    H162909   3.577   5.692   2.627 -0.1147  1.8859 -0.6125
13806TIP3    H262910   3.460   5.737   2.542 -1.5202 -2.0547 -0.9881
13807TIP3   OH262911   2.884   1.237  14.795  0.1091  0.2437 -0.3371
13807TIP3    H162912   2.909   1.311  14.739 -2.6476 -0.2098 -2.4134
13807TIP3    H262913   2.815   1.272  14.851 -0.4842 -0.4650 -0.6096
13808TIP3   OH262914   1.333   6.311   0.986 -0.0234 -0.6238 -0.3212
13808TIP3    H162915   1.344   6.399   1.021 -2.4057 -0.5310  0.4177
13808TIP3    H262916   1.417   6.267   1.001  0.6028  0.9469  0.9883
13809TIP3   OH262917   6.340   6.524  12.475  0.4870  0.1213  0.1233
13809TIP3    H162918   6.328   6.431  12.455  2.4755  0.4319 -3.1872
13809TIP3    H262919   6.370   6.525  12.566  0.5019 -2.4517  0.2135
13810TIP3   OH262920   3.506   3.728  10.940  0.2253  0.3258  0.1380
13810TIP3    H162921   3.556   3.651  10.914 -0.4145  0.4218 -1.4765
13810TIP3    H262922   3.484   3.772  10.858 -0.1753  1.7664  0.9647
13811TIP3   OH262923   4.821   1.178   2.532 -0.2206  0.2618 -0.4519
13811TIP3    H162924   4.913   1.179   2.559  0.2142 -0.4377 -1.7975
13811TIP3    H262925   4.782   1.253   2.576  1.0677  0.7386 -0.0799
13812TIP3   OH262926   1.893   1.674   5.924  0.0705 -0.2658 -0.3595
13812TIP3    H162927   1.858   1.598   5.970 -0.9932 -0.1340 -0.9154
13812TIP3    H262928   1.943   1.722   5.990 -0.9058 -0.4089  0.4936
13813TIP3   OH262929   1.251   0.547  10.696 -0.5033 -0.1095 -0.4232
13813TIP3    H162930   1.172   0.599  10.711  0.0498  0.6511 -0.0530
13813TIP3    H262931   1.237   0.506  10.611 -3.1398 -3.4063  1.3343
13814TIP3   OH262932   2.137   3.106  13.552 -0.6007 -0.3003 -0.3038
13814TIP3    H162933   2.098   3.162  13.619  0.8206 -0.7134  0.9206
13814TIP3    H262934   2.231   3.127  13.555 -0.5138 -0.0944 -2.4113
13815TIP3   OH262935   3.378   5.118  14.817 -0.0198 -0.3528  0.2613
13815TIP3    H162936   3.436   5.188  14.846  1.0683 -0.2747 -1.9163
13815TIP3    H262937   3.355   5.071  14.898  1.0662  1.1127  1.4836
13816TIP3   OH262938   6.349   5.451   6.467  0.1266 -0.2655  0.1573
13816TIP3    H162939   6.305   5.436   6.383 -0.2563 -0.2016  0.3395
13816TIP3    H262940   6.280   5.488   6.523 -0.5228 -3.2170  1.4853
13817TIP3   OH262941   3.776   1.537   1.300 -0.5978  0.5706 -0.0884
13817TIP3    H162942   3.780   1.632   1.288  0.5611  0.5093 -0.2791
13817TIP3    H262943   3.860   1.514   1.340 -0.3574 -0.5187 -1.1476
13818TIP3   OH262944   4.857   3.283   1.539 -0.1213 -0.1507 -0.3212
13818TIP3    H162945   4.827   3.290   1.448 -0.1311 -0.0771 -0.3128
13818TIP3    H262946   4.866   3.374   1.568  0.0994 -0.1728 -0.3191
13819TIP3   OH262947   3.441   4.412   4.921 -0.2910 -0.4644  0.0973
13819TIP3    H162948   3.386   4.471   4.972  0.5388  0.5053 -0.0911
13819TIP3    H262949   3.447   4.332   4.973 -0.8183 -0.1018  0.7217
13820TIP3   OH262950   3.469   2.345  12.924  0.0086 -0.3482 -0.0091
13820TIP3    H162951   3.389   2.396  12.912  1.1232  1.0638 -1.8708
13820TIP3    H262952   3.439   2.260  12.956 -2.2355  0.0879 -0.8246
13821TIP3   OH262953   0.694   3.094   4.068 -0.1956  0.4811  0.2109
13821TIP3    H162954   0.687   3.098   4.163 -0.1859 -1.6374  0.3568
13821TIP3    H262955   0.624   3.150   4.036 -2.0085 -0.9185  1.5091
13822TIP3   OH262956   2.773   1.722  14.532  0.5884  0.8567 -0.2519
13822TIP3    H162957   2.682   1.750  14.543  0.3729 -0.1876  0.8338
13822TIP3    H262958   2.771   1.664  14.456 -0.1737 -1.1186  1.1792
13823TIP3   OH262959   0.362   5.572  12.860 -0.2859  0.3364  0.2731
13823TIP3    H162960   0.385   5.499  12.917 -0.7965 -0.6308 -0.7304
13823TIP3    H262961   0.436   5.579  12.800 -0.3651  0.4672  0.1905
13824TIP3   OH262962   0.386   1.709  13.541  0.0019  0.0386  0.4554
13824TIP3    H162963   0.465   1.733  13.588  0.3200  1.7645 -0.8666
13824TIP3    H262964   0.339   1.791  13.529 -0.3689 -0.4204 -1.6412
13825TIP3   OH262965   2.711   0.483  12.913 -0.1276  0.0976  0.0537
13825TIP3    H162966   2.673   0.559  12.870 -0.0875 -0.4481 -0.9901
13825TIP3    H262967   2.641   0.418  12.913 -0.3192  0.2797  1.3773
13826TIP3   OH262968   0.261   2.370   2.773  0.4425  0.2146 -0.2978
13826TIP3    H162969   0.291   2.282   2.749 -0.9954 -0.3011 -0.2694
13826TIP3    H262970   0.181   2.383   2.723 -0.1808  0.9047  0.8350
13827TIP3   OH262971   6.088   0.844  14.500 -0.0969 -0.1003  0.2263
13827TIP3    H162972   6.072   0.908  14.569 -2.0625 -1.4438  1.1186
13827TIP3    H262973   6.113   0.764  14.546  0.5236 -0.4910 -0.7530
13828TIP3   OH262974   6.797   2.738  15.355  0.2815 -0.1523 -0.0799
13828TIP3    H162975   6.879   2.701  15.388  1.5360  1.4441 -1.2263
13828TIP3    H262976   6.824   2.814  15.304 -1.9769  0.7963  0.0120
13829TIP3   OH262977   6.520   4.809  12.115 -0.3717  0.1119 -0.0030
13829TIP3    H162978   6.451   4.820  12.180  1.6326  2.8917  1.9133
13829TIP3    H262979   6.485   4.846  12.034 -1.8084 -0.4759  0.3282
13830TIP3   OH262980   0.953   1.053  14.790 -0.1304 -0.8214 -0.1971
13830TIP3    H162981   1.025   1.107  14.760 -0.3844 -1.8619 -2.8995
13830TIP3    H262982   0.979   1.025  14.878  2.1024 -0.0516 -0.5510
13831TIP3   OH262983   5.126   1.931  11.568  0.2431 -0.1895  0.0667
13831TIP3    H162984   5.110   1.845  11.606  1.2272 -0.7141 -0.6443
13831TIP3    H262985   5.128   1.916  11.474 -3.1777  1.2525 -0.3978
13832TIP3   OH262986   5.754   0.641   5.188  0.1169  0.0604 -0.0208
13832TIP3    H162987   5.804   0.658   5.108  1.5163  3.2812  1.3563
13832TIP3    H262988   5.666   0.674   5.168  0.2903  0.2847 -0.4381
13833TIP3   OH262989   1.096   5.070   3.222  0.3368 -0.0357 -0.0384
13833TIP3    H162990   1.164   5.023   3.270  2.0989  1.5304 -0.8747
13833TIP3    H262991   1.115   5.050   3.130  0.0219  0.8715 -0.3043
13834TIP3   OH262992   1.743   5.102   1.361 -0.3189  0.3212  0.3894
13834TIP3    H162993   1.694   5.126   1.439 -2.3843 -0.1247 -0.7118
13834TIP3    H262994   1.827   5.070   1.395  0.1547  3.1174  2.2118
13835TIP3   OH262995   2.407   1.518  11.685  0.7863  0.4994 -0.6980
13835TIP3    H162996   2.400   1.467  11.605  2.2920  0.3982 -0.7901
13835TIP3    H262997   2.475   1.583  11.667 -0.2976  1.8116 -0.1931
13836TIP3   OH262998   1.201   6.102   0.885 -0.1041 -0.7393  0.0316
13836TIP3    H162999   1.108   6.089   0.901 -0.2365 -0.8607 -0.8095
13836TIP3    H263000   1.222   6.185   0.928 -0.3963 -1.1510  0.9914
13837TIP3   OH263001   5.755   5.552  16.317 -0.2082  0.7578 -0.2087
13837TIP3    H163002   5.848   5.555  16.340 -0.0146 -1.4801 -0.4376
13837TIP3    H263003   5.746   5.615  16.246  1.7837 -0.8921 -2.0881
13838TIP3   OH263004   1.582   2.157  16.658 -0.3158  0.2329  0.1259
13838TIP3    H163005   1.649   2.225  16.651 -0.6200  0.9389  2.7158
13838TIP3    H263006   1.538   2.177  16.741 -1.8934 -1.8384 -0.1477
13839TIP3   OH263007   3.470   2.178  10.628  0.2130  0.2644 -0.0910
13839TIP3    H163008   3.478   2.262  10.582  1.9342 -0.0330 -0.4013
13839TIP3    H263009   3.391   2.138  10.591  0.1793  1.1148 -0.9884
13840TIP3   OH263010   4.038   0.452  14.880  0.1509 -0.3066 -0.0198
13840TIP3    H163011   4.106   0.449  14.946  0.6236  0.1399 -0.4750
13840TIP3    H263012   3.958   0.472  14.928  0.6469  0.9842  0.3079
13841TIP3   OH263013   1.441   2.410  12.812 -0.0729 -0.5049 -0.1182
13841TIP3    H163014   1.407   2.479  12.756 -1.2440 -1.6264 -0.8545
13841TIP3    H263015   1.505   2.453  12.868 -1.1807  1.2933 -0.1582
13842TIP3   OH263016   3.382   6.381  14.643 -0.2655 -0.1914 -0.4605
13842TIP3    H163017   3.359   6.293  14.672  0.3030  0.8647  3.8138
13842TIP3    H263018   3.472   6.394  14.672 -0.1097  1.6318 -1.5521
13843TIP3   OH263019   1.869   0.811   5.722  0.2492 -0.1182  0.3910
13843TIP3    H163020   1.810   0.794   5.795  2.6464 -0.0630  2.4600
13843TIP3    H263021   1.887   0.905   5.726  1.3228 -0.3150  0.5116
13844TIP3   OH263022   6.257   0.588   1.874 -0.4516 -0.4284  0.2103
13844TIP3    H163023   6.193   0.554   1.936 -0.6215  0.6884  0.6666
13844TIP3    H263024   6.330   0.618   1.928 -0.4833  0.3028 -0.1309
13845TIP3   OH263025   1.242   6.514   0.353  0.3905 -0.0121  0.2173
13845TIP3    H163026   1.246   6.556   0.268  0.0357 -1.0680 -0.3411
13845TIP3    H263027   1.152   6.481   0.359  0.8680 -1.3766  0.2761
13846TIP3   OH263028   5.779   3.270  16.583  0.4500  0.1503 -0.7872
13846TIP3    H163029   5.714   3.260  16.652  0.9687  1.1291 -0.1225
13846TIP3    H263030   5.733   3.247  16.503  0.2019 -2.3363 -0.0121
13847TIP3   OH263031   1.129   0.014   1.240 -0.3462  0.6155  0.3951
13847TIP3    H163032   1.206   0.068   1.224  0.4533 -0.9845 -1.7602
13847TIP3    H263033   1.056   0.063   1.202  0.0171  1.1063  0.3338
13848TIP3   OH263034   6.462   5.421   1.634 -0.1180  0.3241 -0.4019
13848TIP3    H163035   6.551   5.408   1.666 -0.5120  0.6485  0.9122
13848TIP3    H263036   6.472   5.443   1.542  1.3407  2.6193  0.2228
13849TIP3   OH263037   0.565   6.578  13.098  0.1433  0.0034 -0.1698
13849TIP3    H163038   0.507   6.620  13.035  0.4582 -2.6464 -2.3963
13849TIP3    H263039   0.643   6.632  13.099 -0.1617  0.5058 -1.5144
13850TIP3   OH263040   6.095   5.542   4.866 -0.4155  0.1574  0.4298
13850TIP3    H163041   6.156   5.468   4.861 -1.7142 -1.1833  2.5090
13850TIP3    H263042   6.041   5.533   4.787  2.3663  1.8202 -1.8585
13851TIP3   OH263043   1.971   0.295  15.135  0.4375 -0.1139 -0.0809
13851TIP3    H163044   1.939   0.338  15.055  0.0510  0.4733  0.3859
13851TIP3    H263045   1.905   0.229  15.155  0.1137  0.2944  0.2116
13852TIP3   OH263046   6.153   6.693   2.638 -0.1830 -0.1598 -0.4153
13852TIP3    H163047   6.137   6.619   2.697  1.5457  0.0488  0.3690
13852TIP3    H263048   6.086   6.684   2.570 -0.8736 -1.6448  0.4152
13853TIP3   OH263049   0.230   3.520  17.136  0.3269  0.2572 -0.0050
13853TIP3    H163050   0.142   3.488  17.157  0.5564  0.8776  2.2159
13853TIP3    H263051   0.240   3.505  17.042 -0.8130 -3.0210  0.2804
13854TIP3   OH263052   3.066   5.717  16.069  0.5014  0.2111  0.2144
13854TIP3    H163053   3.135   5.651  16.072  0.5613  0.2973  1.7477
13854TIP3    H263054   3.030   5.718  16.158 -2.9468 -1.3206 -1.0157
13855TIP3   OH263055   3.955   6.371  17.054 -0.1317  0.3521  0.2720
13855TIP3    H163056   3.966   6.351  17.147 -0.6201  1.7409  0.6402
13855TIP3    H263057   3.880   6.317  17.027  0.6279 -0.8221  0.3992
13856TIP3   OH263058   1.493   0.744  12.619 -0.3122 -0.2087 -0.0840
13856TIP3    H163059   1.514   0.729  12.712 -0.0629  0.3336 -0.0512
13856TIP3    H263060   1.559   0.806  12.589 -1.3055  0.8166 -0.2224
13857TIP3   OH263061   2.122   6.790   1.562  0.0208  0.2150  0.1708
13857TIP3    H163062   2.115   6.885   1.572  2.8078  0.7531 -1.8837
13857TIP3    H263063   2.103   6.773   1.470  0.5495 -1.0774  0.2746
13858TIP3   OH263064   2.546   2.177   0.566  0.9464 -0.0432  0.5739
13858TIP3    H163065   2.550   2.174   0.470 -1.6570  2.7181  0.2166
13858TIP3    H263066   2.637   2.184   0.594  1.6887  1.8569 -1.9348
13859TIP3   OH263067   2.961   5.597  12.012 -0.0193 -0.3508 -0.1480
13859TIP3    H163068   2.958   5.691  12.028 -0.4336 -0.2666 -0.6564
13859TIP3    H263069   2.883   5.580  11.959 -0.7500 -1.2205  1.1501
13860TIP3   OH263070   5.845   6.736  15.652  0.2269 -0.4596  0.5555
13860TIP3    H163071   5.865   6.734  15.745 -0.2886 -0.4269  0.6697
13860TIP3    H263072   5.763   6.687  15.644 -0.9231  1.3919  0.4271
13861TIP3   OH263073   0.069   2.020   1.219 -0.1855  0.2771  0.5893
13861TIP3    H163074   0.127   1.978   1.156 -1.1433  0.0012 -0.1451
13861TIP3    H263075  -0.012   2.036   1.170 -1.7219 -1.7832  2.2372
13862TIP3   OH263076   2.522   2.435   5.050 -0.4074  0.0263 -0.5101
13862TIP3    H163077   2.443   2.445   5.103  1.3928  0.9792  2.1791
13862TIP3    H263078   2.543   2.524   5.021  1.3144  0.3563  1.4817
13863TIP3   OH263079   2.276   1.604  16.070 -0.2656  0.3229 -0.5519
13863TIP3    H163080   2.341   1.674  16.065  1.3091 -0.9021  1.2367
13863TIP3    H263081   2.205   1.641  16.123  0.2266  0.8017 -0.2219
13864TIP3   OH263082   0.662   1.349   6.163  0.1794  0.0901  0.4018
13864TIP3    H163083   0.592   1.408   6.190 -0.9722 -0.7775 -0.5990
13864TIP3    H263084   0.711   1.398   6.096 -1.4280 -0.4135 -1.2296
13865TIP3   OH263085   4.161   5.809  12.295 -0.3134  0.3241 -0.5682
13865TIP3    H163086   4.224   5.739  12.312 -0.9246  0.0666  0.7570
13865TIP3    H263087   4.203   5.863  12.229  0.6638 -0.6570 -0.7798
13866TIP3   OH263088   3.803   1.955   5.468  0.0543 -0.1032 -0.2837
13866TIP3    H163089   3.818   2.048   5.481 -0.1560  0.2864 -2.4453
13866TIP3    H263090   3.707   1.946   5.465  0.0439 -0.5635  0.8105
13867TIP3   OH263091   3.030   5.626  11.685  0.1787 -0.5660 -0.2502
13867TIP3    H163092   2.960   5.652  11.745 -0.1429 -3.0345  0.5323
13867TIP3    H263093   3.107   5.618  11.741  0.8837  1.0217 -0.9172
13868TIP3   OH263094   3.444   1.660  16.865  0.0375 -0.3850  0.0265
13868TIP3    H163095   3.486   1.679  16.949 -1.2183  0.1893  0.5644
13868TIP3    H263096   3.494   1.710  16.801 -0.5111  1.2610  0.8176
13869TIP3   OH263097   4.613   0.500   5.461  0.4433  0.3935 -0.4458
13869TIP3    H163098   4.632   0.407   5.451  1.3297  0.4379  0.5750
13869TIP3    H263099   4.677   0.544   5.405  0.1551  0.4018 -0.7724
13870TIP3   OH263100   3.985   0.372  13.554  0.1294 -0.1157 -0.1142
13870TIP3    H163101   3.931   0.365  13.476  0.0547 -1.5047  0.0314
13870TIP3    H263102   4.017   0.462  13.553 -1.8215  0.6156 -0.4279
13871TIP3   OH263103   2.969   5.778  15.596  0.2320  0.5417 -0.3224
13871TIP3    H163104   2.911   5.767  15.671  0.1543  1.4883 -0.2250
13871TIP3    H263105   2.931   5.722  15.528 -0.4254  0.6481 -0.0539
13872TIP3   OH263106   0.199   1.353   0.096  0.4767 -0.4169 -0.0602
13872TIP3    H163107   0.291   1.372   0.115  0.6694 -2.0051  0.7009
13872TIP3    H263108   0.160   1.335   0.182 -0.8007  1.1709 -0.2598
13873TIP3   OH263109   3.938   4.414   5.050  0.1715  0.0307  0.2097
13873TIP3    H163110   4.007   4.371   4.999  1.4819  0.2781  1.6847
13873TIP3    H263111   3.866   4.426   4.988  1.7299  0.4398 -1.6079
13874TIP3   OH263112   3.546   2.424   3.420  0.3813  0.2200  0.1489
13874TIP3    H163113   3.527   2.514   3.393  0.9011 -0.2380 -1.9000
13874TIP3    H263114   3.607   2.391   3.355 -0.8440 -2.0842  0.0424
13875TIP3   OH263115   5.608   3.024  15.762 -0.0266 -0.2806 -0.1653
13875TIP3    H163116   5.680   2.964  15.746  0.7551  0.9744 -1.5961
13875TIP3    H263117   5.642   3.088  15.825 -0.8835 -1.3011  1.4237
13876TIP3   OH263118   3.173   1.674  11.290  0.2283 -0.0383 -0.1807
13876TIP3    H163119   3.138   1.725  11.217 -0.0995 -0.3776 -0.2659
13876TIP3    H263120   3.265   1.699  11.295 -0.1406  1.3058  0.4117
13877TIP3   OH263121   5.514   3.484  15.559 -0.3158  1.3047  0.4763
13877TIP3    H163122   5.426   3.467  15.525  0.1367  0.4996 -0.3177
13877TIP3    H263123   5.567   3.411  15.527  0.1025  0.3569  3.1465
13878TIP3   OH263124   4.362   5.610  11.437 -0.1056  0.1688 -0.6243
13878TIP3    H163125   4.348   5.705  11.447  2.1372  0.3728  1.8657
13878TIP3    H263126   4.295   5.570  11.493  0.3744  0.4470  0.1781
13879TIP3   OH263127   3.085   1.835   3.603  0.0675 -0.5534 -0.6721
13879TIP3    H163128   3.097   1.746   3.636 -0.1789 -0.4089 -0.1706
13879TIP3    H263129   3.084   1.827   3.508 -2.1174 -1.3792 -0.6212
13880TIP3   OH263130   3.794   4.281   4.725  0.0960 -0.6116  0.0871
13880TIP3    H163131   3.819   4.373   4.716 -0.2436 -0.3562  1.4907
13880TIP3    H263132   3.870   4.232   4.694  0.6725  0.1367  0.2966
13881TIP3   OH263133   2.256   3.447  13.077  0.1172  0.1852 -0.3299
13881TIP3    H163134   2.280   3.375  13.135  0.7473  0.1873 -0.5841
13881TIP3    H263135   2.208   3.508  13.133  1.5856  0.6745  0.4458
13882TIP3   OH263136   0.654   3.926   1.103  0.2371 -0.6962  0.0328
13882TIP3    H163137   0.597   3.984   1.154  1.7035  2.2020 -1.3889
13882TIP3    H263138   0.603   3.845   1.093 -2.7362  0.9511  0.5954
13883TIP3   OH263139   2.723   1.927  13.944  0.4365  0.4149  0.1416
13883TIP3    H163140   2.743   2.007  13.993  0.0356  1.1432 -0.8591
13883TIP3    H263141   2.635   1.941  13.909  0.1362 -0.7005  0.4096
13884TIP3   OH263142   1.113   0.008  13.091 -0.1756  0.4450  0.0593
13884TIP3    H163143   1.050  -0.039  13.145 -0.4554 -0.9943 -1.4577
13884TIP3    H263144   1.197  -0.033  13.111 -0.7132 -2.6062 -3.0278
13885TIP3   OH263145   6.073   3.021  11.556 -0.2418 -0.3065 -0.2276
13885TIP3    H163146   6.133   2.947  11.571 -0.2755 -0.5380 -1.1482
13885TIP3    H263147   6.129   3.090  11.520 -0.7279 -1.0780 -2.6855
13886TIP3   OH263148   2.414   0.123  16.944  0.0287 -0.3853  0.2448
13886TIP3    H163149   2.491   0.158  16.898 -0.3239 -0.8629 -0.7492
13886TIP3    H263150   2.422   0.028  16.933 -0.8776 -0.4200 -0.1710
13887TIP3   OH263151   5.628   4.664  11.041  0.7229  0.0638 -0.3249
13887TIP3    H163152   5.699   4.653  11.104 -0.1450  0.6471  0.7887
13887TIP3    H263153   5.583   4.744  11.069  0.0414  0.0922 -1.4217
13888TIP3   OH263154   0.853   2.015   0.676  0.3827 -0.1453 -0.3788
13888TIP3    H163155   0.858   1.922   0.652  0.0442 -0.0500 -0.8223
13888TIP3    H263156   0.921   2.026   0.743 -1.2019 -1.2910  1.5290
13889TIP3   OH263157   5.977   0.991   2.203  0.0905  0.6141 -0.2976
13889TIP3    H163158   5.886   1.004   2.230  0.1399  0.1106  0.1250
13889TIP3    H263159   5.983   1.035   2.118 -1.0340 -0.8298 -1.1875
13890TIP3   OH263160   0.950   6.549   1.827 -0.2757 -0.5197  0.2351
13890TIP3    H163161   0.921   6.524   1.915  0.1523  1.5217  0.9951
13890TIP3    H263162   0.939   6.644   1.824  1.0079 -0.3857 -1.4359
13891TIP3   OH263163   3.597   3.244   6.411  0.6018  0.3915 -0.0392
13891TIP3    H163164   3.635   3.287   6.488  0.1206 -2.2262  1.8169
13891TIP3    H263165   3.508   3.280   6.405  0.4980  0.3405  0.9295
13892TIP3   OH263166   1.505   4.793   4.699 -0.4749  0.0543  0.1916
13892TIP3    H163167   1.526   4.711   4.654  0.5676  0.1780  0.4290
13892TIP3    H263168   1.469   4.765   4.783 -0.0677 -0.1609  0.2959
13893TIP3   OH263169   6.067   4.240   0.272  0.6656  0.1600 -0.0895
13893TIP3    H163170   6.113   4.242   0.189  0.9790  1.0145  0.0982
13893TIP3    H263171   6.003   4.311   0.266  0.2080 -0.2226  0.1337
13894TIP3   OH263172   3.642   5.275  15.997  0.2887  0.7700 -0.0391
13894TIP3    H163173   3.732   5.249  16.016  0.1539  1.8594  2.5195
13894TIP3    H263174   3.638   5.368  16.020 -1.6445  0.5652  0.6904
13895TIP3   OH263175   1.329   3.338   5.267  0.0423  0.0267 -0.0540
13895TIP3    H163176   1.264   3.303   5.327  0.1636 -1.4817 -0.7633
13895TIP3    H263177   1.375   3.261   5.234  2.8726  1.0740  1.1526
13896TIP3   OH263178   0.751   4.164  15.145  0.6069  0.0788  0.6397
13896TIP3    H163179   0.790   4.090  15.192  1.3637  0.7983  1.1851
13896TIP3    H263180   0.819   4.232  15.148 -0.1420  0.8536  0.3135
13897TIP3   OH263181   5.943   5.216  12.881 -0.0619 -0.5289  0.2636
13897TIP3    H163182   5.931   5.123  12.863 -0.1762 -0.8250  1.7306
13897TIP3    H263183   5.993   5.218  12.963  1.9262  0.7082 -0.9141
13898TIP3   OH263184   1.666   2.437  13.818  0.2235  0.1952 -0.3453
13898TIP3    H163185   1.580   2.456  13.782  0.1171  0.5999  0.1118
13898TIP3    H263186   1.649   2.380  13.892  0.4733 -0.9581 -1.1564
13899TIP3   OH263187   0.294   5.250   3.339 -0.5100  0.0053 -0.4640
13899TIP3    H163188   0.325   5.160   3.333  0.9487  0.3077  1.5634
13899TIP3    H263189   0.199   5.243   3.337 -0.5906 -1.9614  2.7994
13900TIP3   OH263190   5.549   1.065   1.536 -0.2061  0.2310 -0.2660
13900TIP3    H163191   5.642   1.085   1.534 -0.1655  0.3303  1.3233
13900TIP3    H263192   5.545   0.969   1.538 -0.1568  0.2198 -0.6055
13901TIP3   OH263193   1.971   5.469  13.185  0.0877 -0.1820 -0.2932
13901TIP3    H163194   1.914   5.392  13.181 -0.6053  0.2794  0.5165
13901TIP3    H263195   2.010   5.466  13.272  0.1135  0.3393 -0.2811
13902TIP3   OH263196   4.161   4.674  10.761  0.4054 -0.5297 -0.1317
13902TIP3    H163197   4.155   4.596  10.705  0.5962 -0.4113 -0.3180
13902TIP3    H263198   4.112   4.651  10.839 -0.6797 -0.3510 -0.7397
13903TIP3   OH263199   5.892   3.512  10.655 -0.1816  0.1446  0.6225
13903TIP3    H163200   5.803   3.475  10.657 -0.6536  1.2494  0.8729
13903TIP3    H263201   5.878   3.606  10.644  1.0192  0.0754 -2.6921
13904TIP3   OH263202   6.557   1.402  15.528 -0.7097 -0.0552  0.6187
13904TIP3    H163203   6.607   1.321  15.540  0.1080  0.4463  0.6143
13904TIP3    H263204   6.523   1.422  15.615  0.5576  0.5450  0.9876
13905TIP3   OH263205   5.348   6.286   1.734 -0.2087 -0.0682  0.1965
13905TIP3    H163206   5.254   6.304   1.736 -0.3987 -0.9216  2.5249
13905TIP3    H263207   5.364   6.250   1.647 -2.3163 -1.1627  0.1972
13906TIP3   OH263208   4.903   1.456   2.004 -1.0227  0.0713  0.0138
13906TIP3    H163209   4.997   1.460   2.021 -0.9851  0.6986 -0.3117
13906TIP3    H263210   4.870   1.393   2.067 -0.0990 -1.5874 -1.0645
13907TIP3   OH263211   5.523   4.572  11.903 -0.4514 -0.0585  0.1774
13907TIP3    H163212   5.531   4.516  11.980 -0.3285  0.9323  0.9076
13907TIP3    H263213   5.442   4.621  11.917  0.6080  1.6086  0.7041
13908TIP3   OH263214   5.472   4.664  14.905  0.8202  0.2151  0.2644
13908TIP3    H163215   5.530   4.642  14.833 -0.4581 -2.4658 -0.0568
13908TIP3    H263216   5.387   4.680  14.864  0.7181  1.6534  0.9570
13909TIP3   OH263217   6.146   0.406  11.760  0.4189  0.1323  0.0168
13909TIP3    H163218   6.129   0.315  11.739 -1.7273  0.5080 -0.0703
13909TIP3    H263219   6.106   0.456  11.689 -1.1761  1.1992  1.5743
13910TIP3   OH263220   4.115   0.388   4.984  0.3016 -0.1464 -0.0831
13910TIP3    H163221   4.138   0.442   5.060  0.4431 -0.9079  0.4226
13910TIP3    H263222   4.103   0.300   5.020 -2.4102 -0.0187 -0.4720
13911TIP3   OH263223   0.910   3.332   0.896 -0.2372 -0.0907 -0.3000
13911TIP3    H163224   0.948   3.273   0.831  2.4813 -0.9541  1.8748
13911TIP3    H263225   0.981   3.393   0.917 -1.7789  1.5970  0.2571
13912TIP3   OH263226   5.519   5.271  14.660  0.2555  0.2378  0.0269
13912TIP3    H163227   5.514   5.273  14.565 -0.7604 -1.0497  0.0220
13912TIP3    H263228   5.512   5.363  14.687 -5.6969  0.5078 -0.9766
13913TIP3   OH263229   3.422   2.312  12.252  0.3551 -0.2862  0.2504
13913TIP3    H163230   3.444   2.225  12.218  0.8195  0.5086 -1.6475
13913TIP3    H263231   3.451   2.372  12.183 -1.6240  1.2627  0.6878
13914TIP3   OH263232   6.306   1.479   0.370 -0.0735  0.2478 -0.2353
13914TIP3    H163233   6.376   1.469   0.435  1.1789  0.0793 -1.5753
13914TIP3    H263234   6.288   1.573   0.370  2.0723  0.7282 -1.7667
13915TIP3   OH263235   4.006   3.173  14.500 -0.5938 -0.3999 -0.1219
13915TIP3    H163236   4.068   3.182  14.573  0.2538  1.8378 -1.0496
13915TIP3    H263237   4.048   3.112  14.440 -0.8047 -1.4151  0.7377
13916TIP3   OH263238   4.456   3.939   3.201 -0.0443  0.1738  0.2490
13916TIP3    H163239   4.378   3.899   3.237 -0.7952  0.4439 -1.0070
13916TIP3    H263240   4.475   3.888   3.122 -1.2298  2.3818 -1.5854
13917TIP3   OH263241   4.474   0.673   1.132 -0.3953 -0.2966 -0.1664
13917TIP3    H163242   4.475   0.585   1.171 -0.8241 -0.4214 -0.4282
13917TIP3    H263243   4.546   0.719   1.175 -0.4969 -0.6122  0.3490
13918TIP3   OH263244   2.750   6.512  17.107 -0.6750 -0.8361  0.0779
13918TIP3    H163245   2.774   6.546  17.020 -1.1542 -0.8458 -0.0614
13918TIP3    H263246   2.663   6.548  17.123 -1.0479 -1.7283  0.0744
13919TIP3   OH263247   1.443   3.654   2.160 -0.3437  0.2201  0.3353
13919TIP3    H163248   1.451   3.653   2.255  0.2923  0.6774  0.2976
13919TIP3    H263249   1.473   3.568   2.132  0.3387  0.3943  0.5007
13920TIP3   OH263250   2.923   0.327   5.126  0.5656 -0.4878  0.3938
13920TIP3    H163251   2.992   0.378   5.084  2.0861 -2.7934 -0.0949
13920TIP3    H263252   2.842   0.362   5.089  1.5472  1.0978 -0.3952
13921TIP3   OH263253   2.596   6.075  13.931  0.3113  0.7766  0.6013
13921TIP3    H163254   2.607   6.132  13.855  0.7060  1.1413  0.9287
13921TIP3    H263255   2.656   6.003  13.916 -1.1588 -0.2846 -0.4798
13922TIP3   OH263256   2.728   0.896   0.749 -0.1554 -0.2716  0.2331
13922TIP3    H163257   2.664   0.832   0.718  0.2143 -0.1340 -0.8728
13922TIP3    H263258   2.794   0.844   0.795 -0.2456 -0.6000 -0.0061
13923TIP3   OH263259   3.890   3.436   2.646 -0.0840  0.2677  0.0297
13923TIP3    H163260   3.934   3.363   2.603  0.4116  0.6885 -0.2034
13923TIP3    H263261   3.929   3.514   2.606  0.0801  0.6711  0.9432
13924TIP3   OH263262   0.710   1.845  14.459  0.3740 -0.0885 -0.2378
13924TIP3    H163263   0.680   1.932  14.487 -0.1008 -0.5525  0.7205
13924TIP3    H263264   0.648   1.784  14.499  0.4208 -0.8540 -1.2985
13925TIP3   OH263265   0.547   0.837  14.474 -0.7334  0.7718 -0.1297
13925TIP3    H163266   0.499   0.905  14.427 -0.4984  2.3838  1.7973
13925TIP3    H263267   0.482   0.769  14.492 -1.8597  2.0501  0.8101
13926TIP3   OH263268   3.377   4.986  14.078 -0.0438  0.6050 -0.4921
13926TIP3    H163269   3.417   4.912  14.124  0.4701  1.3957  0.3556
13926TIP3    H263270   3.448   5.049  14.067 -0.6287  1.2530 -0.6235
13927TIP3   OH263271   3.559   2.131   1.665 -0.0033 -0.0525  0.0227
13927TIP3    H163272   3.570   2.121   1.570  1.2814 -1.6401  0.2948
13927TIP3    H263273   3.632   2.080   1.703 -0.1589  1.0187  1.8522
13928TIP3   OH263274   0.060   0.589   0.566 -0.5735  0.9202  0.6526
13928TIP3    H163275  -0.021   0.541   0.549  0.0483  0.4491 -1.0974
13928TIP3    H263276   0.107   0.534   0.629 -0.9233  0.4290  0.4916
13929TIP3   OH263277   0.618   6.581  12.489 -0.1280 -0.2500  0.1635
13929TIP3    H163278   0.596   6.490  12.471 -0.6694 -0.3562  1.3144
13929TIP3    H263279   0.670   6.608  12.413 -1.0925 -1.1010 -0.8322
13930TIP3   OH263280   0.818   1.784   4.511 -0.1651  0.0461 -0.1233
13930TIP3    H163281   0.785   1.773   4.421  0.2409 -1.8926 -0.0797
13930TIP3    H263282   0.798   1.701   4.554 -2.2273  1.6404  2.2478
13931TIP3   OH263283   2.365   5.748   4.133 -0.6703  0.4284 -0.0110
13931TIP3    H163284   2.285   5.733   4.082 -0.6380 -1.1361  0.3579
13931TIP3    H263285   2.378   5.667   4.182  0.4510  1.1375  0.9084
13932TIP3   OH263286   5.010   1.240   4.743  0.0348 -0.3410  0.0175
13932TIP3    H163287   5.018   1.194   4.660  1.1053 -1.2354  0.5869
13932TIP3    H263288   4.998   1.170   4.808 -0.2889  0.3092  0.6771
13933TIP3   OH263289   5.712   2.126   3.112  0.2084 -0.3561  0.5758
13933TIP3    H163290   5.730   2.134   3.018 -1.1090 -3.6046 -0.0956
13933TIP3    H263291   5.791   2.157   3.155  0.0447  3.3542 -1.4325
13934TIP3   OH263292   5.755   4.697   2.786  0.0588 -0.1510 -0.2289
13934TIP3    H163293   5.828   4.692   2.847  0.2411  1.8090 -0.2280
13934TIP3    H263294   5.691   4.753   2.829 -0.1294  0.6466 -1.4926
13935TIP3   OH263295   4.033   6.124   4.306  0.1261 -0.2227 -0.1199
13935TIP3    H163296   3.964   6.187   4.328  0.3109  0.7126 -2.0352
13935TIP3    H263297   3.994   6.039   4.326 -0.2066  0.4220  2.3019
13936TIP3   OH263298   0.679   4.640   1.101  0.3056 -0.0973  0.3272
13936TIP3    H163299   0.669   4.555   1.058 -1.0742 -0.2802  0.9622
13936TIP3    H263300   0.718   4.620   1.186  1.7721  0.1314 -0.2520
13937TIP3   OH263301   2.263   3.509  14.062 -0.5200 -0.1745 -0.0603
13937TIP3    H163302   2.328   3.464  14.115 -0.1605  0.6921  0.2499
13937TIP3    H263303   2.243   3.589  14.111 -0.8437  0.2041 -0.7911
13938TIP3   OH263304   0.376   2.198  13.513  0.1013  0.0034  0.1408
13938TIP3    H163305   0.306   2.240  13.463  0.8809  0.0369 -0.9575
13938TIP3    H263306   0.389   2.256  13.589 -1.8338 -0.6251  0.9980
13939TIP3   OH263307   6.276   0.258  14.547  0.2019  0.4262 -0.0377
13939TIP3    H163308   6.313   0.295  14.628  0.8133 -0.2790  0.0245
13939TIP3    H263309   6.190   0.224  14.573 -0.3253  1.6794 -0.0764
13940TIP3   OH263310   1.064   1.509  14.376 -0.2265 -0.1534 -0.1896
13940TIP3    H163311   1.027   1.425  14.405  1.7356 -0.4435  1.6949
13940TIP3    H263312   1.079   1.497  14.282 -1.6998 -1.2069 -0.3322
13941TIP3   OH263313   2.619   1.357  13.211  0.4627 -0.1343 -0.6179
13941TIP3    H163314   2.540   1.326  13.254 -0.5992  1.5637 -1.2158
13941TIP3    H263315   2.666   1.406  13.278  2.1854 -2.9137  0.3515
13942TIP3   OH263316   2.930   2.710   3.931  0.2685 -0.1330 -0.8296
13942TIP3    H163317   2.834   2.717   3.933 -0.0045 -2.6349 -0.9965
13942TIP3    H263318   2.953   2.727   3.840 -0.3454 -1.8063 -1.3531
13943TIP3   OH263319   1.822   1.263   2.989 -0.6540  0.2179  0.2051
13943TIP3    H163320   1.807   1.298   3.077 -1.1376 -0.4251  0.3903
13943TIP3    H263321   1.753   1.197   2.979 -0.6774  0.3788 -0.7043
13944TIP3   OH263322   4.811   5.086  16.075  0.0792 -0.5927  0.2457
13944TIP3    H163323   4.852   5.045  15.999 -0.7821 -0.1459 -0.4807
13944TIP3    H263324   4.717   5.078  16.058 -0.1310  1.6588  0.0639
13945TIP3   OH263325   5.116   6.096  16.997  0.5005  0.2734  0.2792
13945TIP3    H163326   5.195   6.083  16.943 -0.4917 -0.1269 -1.1494
13945TIP3    H263327   5.076   6.009  17.001 -0.1165  0.5725  0.5921
13946TIP3   OH263328   5.893   2.430   0.455 -0.5081  0.0644  0.9725
13946TIP3    H163329   5.844   2.348   0.462 -1.1438  0.4290  0.8864
13946TIP3    H263330   5.831   2.491   0.416  0.5881  0.0575 -0.8802
13947TIP3   OH263331   6.719   6.547   5.660 -0.0792  0.7159  0.5499
13947TIP3    H163332   6.741   6.567   5.751  2.5726  0.5264  0.0327
13947TIP3    H263333   6.675   6.462   5.664  0.6334  0.3779  1.6014
13948TIP3   OH263334   5.822   4.966   3.458  0.2445 -0.2296 -0.2738
13948TIP3    H163335   5.790   4.877   3.442  0.6964  0.1510 -4.3962
13948TIP3    H263336   5.747   5.022   3.440 -0.2597  0.3476  3.0489
13949TIP3   OH263337   0.063   4.787  12.758  0.1205 -0.7070 -0.2052
13949TIP3    H163338   0.149   4.747  12.767 -0.0102 -0.8692  0.3838
13949TIP3    H263339   0.079   4.873  12.720  0.5794 -0.5757  0.2865
13950TIP3   OH263340   3.923   0.478  14.629  0.2228  0.5174 -0.1702
13950TIP3    H163341   3.976   0.453  14.705 -0.4993 -2.8324 -0.6027
13950TIP3    H263342   3.886   0.563  14.652  0.9937  0.1821  2.6833
13951TIP3   OH263343   0.632   4.353  14.039  0.3619 -0.5192 -0.0757
13951TIP3    H163344   0.567   4.303  13.990  1.4156 -1.8759 -0.1521
13951TIP3    H263345   0.587   4.377  14.120 -1.3991  1.7335 -1.6021
13952TIP3   OH263346   0.404   3.356  16.699  0.2245  0.7111 -0.1464
13952TIP3    H163347   0.327   3.302  16.680  0.7159  0.1193 -0.5165
13952TIP3    H263348   0.405   3.363  16.795  0.6749 -0.7485 -0.0190
13953TIP3   OH263349   3.059   1.697  13.230 -0.0235 -0.1708 -0.2933
13953TIP3    H163350   3.031   1.788  13.223  0.6334 -0.0440 -1.3550
13953TIP3    H263351   3.027   1.655  13.150 -0.1736 -0.8446  0.1042
13954TIP3   OH263352   2.021   4.714  14.412 -0.7026  0.5966 -0.0171
13954TIP3    H163353   2.032   4.754  14.499  0.2691  0.1523  0.0825
13954TIP3    H263354   2.100   4.741  14.364 -1.3856  1.1037 -0.8772
13955TIP3   OH263355   3.747   5.281   6.116  0.0608  0.3491  0.5291
13955TIP3    H163356   3.835   5.258   6.148  0.5893  3.5709  1.7106
13955TIP3    H263357   3.759   5.364   6.070 -2.0317 -0.4004 -1.5485
13956TIP3   OH263358   2.823   0.553   2.260 -0.2884  0.0228  0.2428
13956TIP3    H163359   2.749   0.504   2.223  0.6065  0.4533 -2.2825
13956TIP3    H263360   2.894   0.488   2.265  0.1185  0.3998 -0.5406
13957TIP3   OH263361   5.040   1.707   0.621  0.4388  0.1519 -0.6621
13957TIP3    H163362   5.006   1.795   0.609  1.0546  0.6695  1.0323
13957TIP3    H263363   5.120   1.705   0.568  0.3794  0.6033 -0.7729
13958TIP3   OH263364   3.396   5.684   4.688 -0.3071  1.1498  0.8459
13958TIP3    H163365   3.332   5.625   4.649 -0.4645  1.2751  0.9137
13958TIP3    H263366   3.346   5.761   4.713  0.1709  2.0123 -0.7247
13959TIP3   OH263367   2.152   6.526  16.806 -0.3537  0.8550  0.4697
13959TIP3    H163368   2.197   6.545  16.723 -2.1472  1.1591 -0.4826
13959TIP3    H263369   2.126   6.434  16.798 -2.5144  1.4775 -0.3554
13960TIP3   OH263370   1.811   4.340   4.300  0.0605  0.0736 -0.3557
13960TIP3    H163371   1.863   4.405   4.348 -1.3897  0.5584  0.6142
13960TIP3    H263372   1.796   4.380   4.215  0.2794  0.4303 -0.2299
13961TIP3   OH263373   4.467   5.248  11.160 -0.0262 -0.4686 -0.0627
13961TIP3    H163374   4.374   5.267  11.175 -0.0228 -0.7355  0.3145
13961TIP3    H263375   4.488   5.294  11.079 -0.1396  0.7363  0.5615
13962TIP3   OH263376   5.616   1.789  12.167 -0.4221  0.1396 -0.4350
13962TIP3    H163377   5.526   1.767  12.142 -0.4392 -0.5731  0.2134
13962TIP3    H263378   5.671   1.745  12.101 -0.5512  2.0550 -1.9299
13963TIP3   OH263379   3.447   0.585  15.674 -0.5553 -0.4491  0.2085
13963TIP3    H163380   3.371   0.528  15.665 -0.9031 -0.3460  2.0693
13963TIP3    H263381   3.420   0.653  15.736  0.7641  0.0785  0.2549
13964TIP3   OH263382   6.312   2.861  15.085 -0.3839 -0.1916 -0.0593
13964TIP3    H163383   6.269   2.806  15.150 -0.9700 -0.7156 -0.8635
13964TIP3    H263384   6.326   2.803  15.010 -0.9132  0.7187 -0.8856
13965TIP3   OH263385   1.707   6.419   1.572  0.4084 -0.4192  0.3520
13965TIP3    H163386   1.739   6.509   1.560  1.3132 -1.0684 -3.5864
13965TIP3    H263387   1.786   6.365   1.564 -0.4787 -1.6478 -0.5602
13966TIP3   OH263388   3.972   2.771  16.908 -0.0078 -0.3625 -0.6632
13966TIP3    H163389   4.026   2.832  16.859 -0.0656 -0.1031 -0.4103
13966TIP3    H263390   4.032   2.702  16.936  1.0189  1.5895  2.5268
13967TIP3   OH263391   2.685   3.021  14.860 -0.8409  0.1376  0.1739
13967TIP3    H163392   2.592   3.026  14.880 -0.8515  1.3722 -0.0564
13967TIP3    H263393   2.729   3.038  14.943 -0.8406  0.4517  0.1127
13968TIP3   OH263394   5.600   4.221  16.114 -0.0863 -0.5107  0.3171
13968TIP3    H163395   5.618   4.135  16.075  0.0497 -0.9358  1.2924
13968TIP3    H263396   5.505   4.222  16.128 -0.0187 -0.7129  0.7908
13969TIP3   OH263397   5.963   4.362  12.493  0.0729 -0.1486 -0.5627
13969TIP3    H163398   5.911   4.436  12.524 -0.4545 -0.6116 -0.3332
13969TIP3    H263399   6.051   4.380  12.525 -0.7798 -1.5713  2.9630
13970TIP3   OH263400   4.585   6.830  13.545  0.0392 -0.2284  0.0001
13970TIP3    H163401   4.550   6.768  13.481 -0.6110  0.6164 -0.4788
13970TIP3    H263402   4.621   6.774  13.614 -0.5651 -1.1471 -0.3993
13971TIP3   OH263403   2.408   6.015  14.153  0.1884 -0.2579  0.1009
13971TIP3    H163404   2.472   5.976  14.093  2.7760  1.3917  1.6016
13971TIP3    H263405   2.441   6.103  14.168 -1.1949 -0.1067  2.7580
13972TIP3   OH263406   4.722   4.463   4.490  0.6901  0.0901 -0.0406
13972TIP3    H163407   4.781   4.391   4.510  0.2641 -0.4734 -0.7689
13972TIP3    H263408   4.775   4.542   4.503  1.1183 -0.3391  0.8991
13973TIP3   OH263409   5.332   0.371   4.253  0.3960  0.5457 -0.2554
13973TIP3    H163410   5.238   0.376   4.268 -0.0072 -2.1096 -1.3324
13973TIP3    H263411   5.371   0.395   4.337 -1.4428 -2.9594  1.8258
13974TIP3   OH263412   3.042   0.096   2.292 -0.2287 -0.3477  0.3468
13974TIP3    H163413   2.963   0.057   2.329 -0.2549 -1.0000 -0.3703
13974TIP3    H263414   3.111   0.075   2.355 -0.2236 -1.6539 -0.0663
13975TIP3   OH263415   3.165   1.981   2.887 -0.4635  0.5712 -0.4596
13975TIP3    H163416   3.233   1.952   2.826  0.8912  1.3430  0.6290
13975TIP3    H263417   3.142   1.902   2.937 -0.2725  0.3296 -0.7545
13976TIP3   OH263418   3.741   6.293  12.061  0.4647  0.0668  0.3211
13976TIP3    H163419   3.693   6.373  12.083  1.5686  0.5288  1.1264
13976TIP3    H263420   3.678   6.223  12.079 -0.5710  0.7382 -0.5515
13977TIP3   OH263421   4.131   6.212  16.693  0.9955 -0.4727 -0.0120
13977TIP3    H163422   4.041   6.236  16.716 -0.0410 -1.0203 -3.0701
13977TIP3    H263423   4.167   6.174  16.773 -0.9194  1.1834  1.7640
13978TIP3   OH263424   1.385   5.120   1.712 -0.5625  0.2902 -0.5273
13978TIP3    H163425   1.365   5.186   1.778 -1.3490  0.6064 -1.0633
13978TIP3    H263426   1.326   5.141   1.639  1.5905  1.1236 -2.1190
13979TIP3   OH263427   2.291   3.703   2.273 -0.1959  0.3344  0.2474
13979TIP3    H163428   2.381   3.702   2.240  0.2032 -0.1507  1.3013
13979TIP3    H263429   2.274   3.612   2.298 -1.2267  0.2867 -0.5580
13980TIP3   OH263430   4.276   4.857  13.091 -0.2952  0.4262 -0.2259
13980TIP3    H163431   4.349   4.816  13.045 -1.2420 -0.6901 -0.8086
13980TIP3    H263432   4.231   4.908  13.023 -1.7937 -1.3566 -0.6440
13981TIP3   OH263433   1.735   5.388  10.480 -0.2789 -0.0482  0.0702
13981TIP3    H163434   1.699   5.373  10.393  0.3670  0.8415 -0.3736
13981TIP3    H263435   1.754   5.300  10.514 -1.1005 -0.4265 -0.4336
13982TIP3   OH263436   6.349   0.715   3.923 -0.3524  0.5143 -0.2795
13982TIP3    H163437   6.401   0.662   3.983  0.9160  0.6544 -1.2094
13982TIP3    H263438   6.400   0.795   3.911 -2.0524  1.8399  0.8219
13983TIP3   OH263439   0.736   3.976   0.628 -0.0348  0.4094 -0.0425
13983TIP3    H163440   0.811   3.954   0.683 -0.6362 -1.1684  0.2154
13983TIP3    H263441   0.768   3.967   0.539  0.6050  1.7348  0.0342
13984TIP3   OH263442   2.966   6.714  15.279  0.0683  0.4682 -0.1980
13984TIP3    H163443   2.894   6.753  15.328  0.6654 -0.7953  1.7879
13984TIP3    H263444   3.044   6.736  15.329  1.1502  1.7921 -2.2967
13985TIP3   OH263445   1.431   4.770  12.744  1.0820 -0.6121 -0.1088
13985TIP3    H163446   1.508   4.749  12.796 -0.9634 -0.4527  3.2717
13985TIP3    H263447   1.408   4.859  12.769 -0.3128 -0.7186 -0.8959
13986TIP3   OH263448   4.783   0.974   2.815  0.5543  0.4764 -0.6886
13986TIP3    H163449   4.839   0.996   2.890  0.7783 -0.6302 -0.5252
13986TIP3    H263450   4.833   0.911   2.765 -0.4184 -0.3068 -0.7042
13987TIP3   OH263451   0.746   5.578  16.527 -0.7406  0.5191 -0.0479
13987TIP3    H163452   0.657   5.562  16.559 -0.9907 -0.1681 -1.0555
13987TIP3    H263453   0.786   5.491  16.526 -0.6502  0.5628 -1.3230
13988TIP3   OH263454   1.603   5.853   1.764 -0.0871 -0.0904  0.3966
13988TIP3    H163455   1.553   5.790   1.815 -0.5003  0.9943  1.3951
13988TIP3    H263456   1.633   5.805   1.688 -0.0592 -1.5851  1.3165
13989TIP3   OH263457   3.411   6.151  14.790 -0.4946  1.1815 -0.1802
13989TIP3    H163458   3.431   6.059  14.808 -4.4335  0.3754  1.0382
13989TIP3    H263459   3.384   6.186  14.875  0.7225  3.4851 -0.6751
13990TIP3   OH263460   2.630   2.298   1.997  0.0238 -0.3749 -0.4475
13990TIP3    H163461   2.549   2.264   2.035  0.4745 -1.4839 -0.4414
13990TIP3    H263462   2.660   2.229   1.939 -0.8948  1.4605 -3.2978
13991TIP3   OH263463   2.309   2.546  14.905 -0.0699  0.6153 -0.6656
13991TIP3    H163464   2.345   2.473  14.955 -0.3990  1.0917  0.2943
13991TIP3    H263465   2.214   2.540  14.918 -0.0921  1.2999 -0.4354
13992TIP3   OH263466   5.132   2.107   4.011 -0.4931  0.5076 -0.3906
13992TIP3    H163467   5.047   2.110   4.053 -1.0962 -0.7717 -1.4539
13992TIP3    H263468   5.168   2.195   4.024 -1.1604  0.5264  1.6503
13993TIP3   OH263469   3.773   3.921  10.454 -0.2055 -0.3644  0.0278
13993TIP3    H163470   3.770   4.015  10.470 -4.1900 -0.1558 -0.9126
13993TIP3    H263471   3.715   3.883  10.520  2.6553 -2.5191  1.5179
13994TIP3   OH263472   1.570   1.007   0.424 -0.1264 -0.2918  0.2618
13994TIP3    H163473   1.628   1.059   0.369  2.3683 -2.0036  1.1269
13994TIP3    H263474   1.520   0.953   0.362  2.0183 -1.5678 -0.4881
13995TIP3   OH263475   3.293   2.762   1.801  0.1220 -0.2942  0.8310
13995TIP3    H163476   3.314   2.756   1.894  0.9149 -3.0900  0.5579
13995TIP3    H263477   3.221   2.700   1.789  2.6337 -3.0860 -1.0199
13996TIP3   OH263478   2.129   6.179  11.905 -0.7357  0.1649  0.1581
13996TIP3    H163479   2.065   6.108  11.911 -0.4548 -0.0078  1.3917
13996TIP3    H263480   2.079   6.259  11.922 -0.4801 -0.0643  2.2672
13997TIP3   OH263481   5.622   4.862   4.834 -0.2097  1.0467 -0.2599
13997TIP3    H163482   5.566   4.787   4.851 -2.8229  2.9459  0.0749
13997TIP3    H263483   5.707   4.838   4.872 -0.8625 -1.7483 -0.3588
13998TIP3   OH263484   3.368   5.332  16.556 -0.0629 -0.2381  0.2879
13998TIP3    H163485   3.457   5.330  16.522  0.4833  0.9922  1.5731
13998TIP3    H263486   3.322   5.394  16.499 -0.1592 -0.9653 -0.4515
13999TIP3   OH263487   4.757   6.015   4.854 -0.2414 -0.0746  0.2659
13999TIP3    H163488   4.762   5.986   4.763  0.7127  1.1349 -0.0802
13999TIP3    H263489   4.682   6.074   4.856  0.8306  1.3526 -0.1828
14000TIP3   OH263490   0.031   1.149  16.608  0.3223  0.0620  0.0774
14000TIP3    H163491  -0.041   1.123  16.666 -0.7648  1.1686 -0.7249
14000TIP3    H263492  -0.011   1.199  16.539  1.7085 -0.5201 -1.2348
14001TIP3   OH263493   2.165   4.203   0.391 -0.3680 -0.1351 -0.3127
14001TIP3    H163494   2.134   4.282   0.346  1.0023  0.8454  0.3652
14001TIP3    H263495   2.197   4.147   0.320  0.7628  0.9243 -0.6909
14002TIP3   OH263496   0.783   1.507   0.416 -0.1134  1.0235  0.4167
14002TIP3    H163497   0.742   1.522   0.331  0.0096  1.7899  0.4795
14002TIP3    H263498   0.796   1.413   0.421  0.8244  1.0607 -0.8713
14003TIP3   OH263499   1.091   2.353   1.192 -0.0826  0.6515  0.1732
14003TIP3    H163500   1.019   2.290   1.204 -1.0499  1.6113 -0.4409
14003TIP3    H263501   1.050   2.428   1.149  1.2310  1.3629  0.1298
14004TIP3   OH263502   6.005   5.630   6.313  0.3211 -0.3443  0.1745
14004TIP3    H163503   6.017   5.546   6.268  2.5072 -0.6838  1.2315
14004TIP3    H263504   5.923   5.665   6.278  0.9739 -1.3940 -2.6864
14005TIP3   OH263505   0.814   0.027   0.615 -0.6646  0.3537  0.9396
14005TIP3    H163506   0.832   0.074   0.534  1.0057 -1.8160 -0.0596
14005TIP3    H263507   0.867   0.072   0.681 -0.8805  1.2422  0.5243
14006TIP3   OH263508   5.613   0.950   4.323  0.2668 -0.2639  0.1030
14006TIP3    H163509   5.617   0.898   4.404 -1.2007  1.6260  1.4790
14006TIP3    H263510   5.678   1.019   4.335 -1.1583  1.0645  0.5130
14007TIP3   OH263511   2.694   6.321   3.361  0.2102  0.0603 -0.0560
14007TIP3    H163512   2.656   6.348   3.278 -0.0162  0.7621  0.2712
14007TIP3    H263513   2.789   6.324   3.347  0.1822  0.8319 -0.0807
14008TIP3   OH263514   4.370   2.142   1.115  0.0970 -0.6569 -0.0365
14008TIP3    H163515   4.401   2.057   1.147  0.8748 -0.0130  0.9616
14008TIP3    H263516   4.411   2.206   1.172 -1.6877  0.3407  0.2070
14009TIP3   OH263517   1.332   3.261   2.729 -0.3567 -0.0237  0.0961
14009TIP3    H163518   1.254   3.263   2.783 -1.0036  0.0069 -0.8058
14009TIP3    H263519   1.307   3.306   2.648  0.9919  1.1601  0.2919
14010TIP3   OH263520   1.598   5.977  13.141  0.1602  0.1668 -0.5221
14010TIP3    H163521   1.609   6.028  13.061  0.6304 -1.3153 -1.4330
14010TIP3    H263522   1.639   6.031  13.209 -0.5214  1.5863 -1.1874
14011TIP3   OH263523   1.899   4.715   2.984 -0.4098  0.0805 -0.0969
14011TIP3    H163524   1.900   4.665   2.902 -1.7717  0.3809 -0.3179
14011TIP3    H263525   1.901   4.806   2.957 -0.9849  0.1826  0.2010
14012TIP3   OH263526   0.836   6.538   2.085  0.3665 -0.2318  0.8168
14012TIP3    H163527   0.756   6.512   2.130 -0.9913  1.5534 -0.4697
14012TIP3    H263528   0.859   6.623   2.124  0.6164  0.1199 -0.0864
14013TIP3   OH263529   5.516   1.460  11.264  0.4571 -0.1973 -0.3315
14013TIP3    H163530   5.595   1.407  11.250  0.1589 -0.4589 -1.0618
14013TIP3    H263531   5.462   1.443  11.187 -0.0397  0.4720 -0.1358
14014TIP3   OH263532   0.813   1.327  15.692 -0.0038 -0.2576 -0.1375
14014TIP3    H163533   0.888   1.311  15.634  0.9055  1.0005  0.6479
14014TIP3    H263534   0.739   1.290  15.645  1.3772 -3.4891 -0.0173
14015TIP3   OH263535   3.073   5.511   1.509 -0.0690 -0.2064 -0.4173
14015TIP3    H163536   3.034   5.448   1.570  2.0411 -0.2377  1.0307
14015TIP3    H263537   3.016   5.587   1.513 -1.2252 -1.0613 -0.1774
14016TIP3   OH263538   2.090   5.184   1.527 -0.3496  1.1483 -0.2257
14016TIP3    H163539   2.085   5.204   1.620  0.3380 -1.1418  0.3646
14016TIP3    H263540   2.177   5.146   1.515 -1.6746 -1.9881 -1.0140
14017TIP3   OH263541   2.454   0.113  12.650 -0.2888 -0.6257  0.5944
14017TIP3    H163542   2.526   0.097  12.589  0.5543  1.6635  0.8678
14017TIP3    H263543   2.489   0.087  12.735  0.7155  1.4624  0.8946
14018TIP3   OH263544   5.668   6.765  10.955  0.0523 -0.1210  0.3062
14018TIP3    H163545   5.738   6.714  10.997  2.2208  2.0969 -0.3586
14018TIP3    H263546   5.615   6.797  11.028  0.0302 -1.3751  0.8684
14019TIP3   OH263547   3.775   4.802  14.218 -0.4961  0.0129  0.3774
14019TIP3    H163548   3.681   4.788  14.207 -0.8960  2.1238  0.6870
14019TIP3    H263549   3.790   4.795  14.312 -0.3553 -0.2531  0.3347
14020TIP3   OH263550   4.058   1.251   4.098 -0.4372 -0.6458 -0.7252
14020TIP3    H163551   4.130   1.235   4.037 -0.7705 -1.2095 -0.9766
14020TIP3    H263552   4.006   1.318   4.055  0.7619  0.9243  0.1632
14021TIP3   OH263553   4.953   4.016   2.159 -0.1617 -0.2267  0.2336
14021TIP3    H163554   4.915   4.025   2.246  0.3297  2.0154  0.2911
14021TIP3    H263555   4.896   4.068   2.102 -0.6120 -1.8498 -0.8743
14022TIP3   OH263556   3.125   6.445  13.198 -0.0907 -0.4583 -0.2127
14022TIP3    H163557   3.089   6.357  13.209 -1.0319  0.1149  1.6240
14022TIP3    H263558   3.142   6.476  13.287 -0.4958  1.5032 -0.7628
14023TIP3   OH263559   4.601   1.779   2.560 -0.1875  0.0186 -0.0000
14023TIP3    H163560   4.524   1.767   2.505  0.1217  1.6958 -0.8635
14023TIP3    H263561   4.652   1.847   2.516  0.6602  0.5847  1.7380
14024TIP3   OH263562   6.088   6.480   0.026 -0.3142  0.1393 -0.5811
14024TIP3    H163563   6.097   6.567   0.066  0.2584 -0.9803  1.9627
14024TIP3    H263564   6.170   6.467  -0.021 -0.6663  1.1819 -1.5418
14025TIP3   OH263565   3.057   0.407   2.271  0.0318  0.0269  0.1305
14025TIP3    H163566   3.090   0.317   2.268  1.2205  0.4799 -0.7392
14025TIP3    H263567   3.128   0.457   2.309  0.2716  0.9745 -1.4951
14026TIP3   OH263568   3.336   6.434  11.511  0.0066  0.1771  0.3675
14026TIP3    H163569   3.343   6.497  11.439 -0.6466 -0.4595 -0.2639
14026TIP3    H263570   3.426   6.412  11.533  0.2621  1.5122  0.7617
14027TIP3   OH263571   6.549   5.132  16.602  0.3716 -0.3816 -0.2365
14027TIP3    H163572   6.519   5.120  16.692 -0.2450  0.9783 -0.2222
14027TIP3    H263573   6.536   5.047  16.560  1.2213 -1.2080  1.0887
14028TIP3   OH263574   5.230   6.538  14.688  0.6906 -0.0868 -0.4333
14028TIP3    H163575   5.302   6.476  14.702  0.4017 -0.9387 -2.4875
14028TIP3    H263576   5.254   6.585  14.608 -0.5153  0.4272 -0.5123
14029TIP3   OH263577   5.247   2.878  11.077 -0.6003 -0.2742  0.2261
14029TIP3    H163578   5.299   2.846  11.003 -2.1619 -1.5082 -0.3806
14029TIP3    H263579   5.174   2.925  11.037 -1.2412 -0.6042  0.9848
14030TIP3   OH263580   1.875   6.323  14.061 -0.4632 -0.1359  0.0410
14030TIP3    H163581   1.876   6.316  13.966 -0.2721 -1.5706  0.1176
14030TIP3    H263582   1.960   6.361  14.083 -1.8119  3.5152 -0.4986
14031TIP3   OH263583   4.274   1.170   6.188 -0.3081  0.4516 -0.2693
14031TIP3    H163584   4.262   1.077   6.169 -0.1188  0.4635 -0.4513
14031TIP3    H263585   4.218   1.215   6.125  0.0747  0.4801 -0.5931
14032TIP3   OH263586   0.438   2.183  15.171  0.7685  0.2499 -0.4874
14032TIP3    H163587   0.530   2.174  15.196  0.5280  0.9220  0.7064
14032TIP3    H263588   0.393   2.205  15.253 -0.2482  1.3041 -1.3000
14033TIP3   OH263589   2.504   3.683  14.873  0.4999 -0.4742  0.1328
14033TIP3    H163590   2.540   3.677  14.962 -2.3368 -1.4250  1.3292
14033TIP3    H263591   2.464   3.770  14.869 -1.5736 -1.3256  0.7980
14034TIP3   OH263592   3.030   5.122  13.724 -0.2365  0.2513  0.9732
14034TIP3    H163593   3.124   5.129  13.736  0.1790 -1.0996 -1.0796
14034TIP3    H263594   2.993   5.153  13.807  1.9018  2.6831  1.1308
14035TIP3   OH263595   5.188   6.754   2.222 -0.2500  0.1154  0.3817
14035TIP3    H163596   5.183   6.688   2.292 -0.1186 -0.2898  0.0155
14035TIP3    H263597   5.278   6.747   2.190 -0.8714 -1.1956 -1.2421
14036TIP3   OH263598   5.439   0.493   1.714  0.2533 -0.0080  0.4951
14036TIP3    H163599   5.410   0.402   1.720  0.8577 -0.3169 -0.8101
14036TIP3    H263600   5.532   0.491   1.739  0.5373  0.0621 -0.5004
14037TIP3   OH263601   5.907   6.596   5.400  0.2851 -0.0431  0.3136
14037TIP3    H163602   5.873   6.507   5.389 -2.9133  1.2261 -1.3741
14037TIP3    H263603   5.977   6.603   5.335  0.1713 -1.1368  0.0494
14038TIP3   OH263604   5.080   1.448   3.890 -0.3314 -0.0602  0.0283
14038TIP3    H163605   5.135   1.494   3.826  0.0097  0.6405  0.8114
14038TIP3    H263606   5.028   1.517   3.931  0.2294 -0.3469  1.2725
14039TIP3   OH263607   1.788   4.604   4.182  0.1358  0.5439  0.0487
14039TIP3    H163608   1.779   4.652   4.263  0.0161 -1.6194  1.3997
14039TIP3    H263609   1.699   4.598   4.147 -0.6300 -2.2154  2.1082
14040TIP3   OH263610   6.183   2.069  16.272  0.5507  0.2741  0.0569
14040TIP3    H163611   6.134   1.997  16.310  0.1933  1.5259  2.0951
14040TIP3    H263612   6.150   2.148  16.316  2.3618  1.4649 -0.5809
14041TIP3   OH263613   5.654   2.867  16.097 -0.2229  0.0868  0.0815
14041TIP3    H163614   5.656   2.864  16.193  1.5108 -0.6386  0.0578
14041TIP3    H263615   5.643   2.959  16.076 -2.2737  0.0985  0.9529
14042TIP3   OH263616   5.246   0.443  15.343 -0.0086  0.3437 -0.0273
14042TIP3    H163617   5.235   0.534  15.318 -0.9772  0.1964 -0.1963
14042TIP3    H263618   5.306   0.407  15.278 -0.8843  0.4719 -0.9324
14043TIP3   OH263619   3.789   2.010  16.276  0.3274  0.2370 -0.3507
14043TIP3    H163620   3.699   2.036  16.293  0.4728  0.1259  0.6594
14043TIP3    H263621   3.842   2.074  16.325  0.7667 -0.2156 -0.2289
14044TIP3   OH263622   4.906   2.914  13.753 -0.0823 -0.2824 -0.1263
14044TIP3    H163623   4.862   2.912  13.838  0.1150  0.7350  0.0050
14044TIP3    H263624   4.897   2.824  13.720 -3.3025  0.1287 -0.6678
14045TIP3   OH263625   2.728   2.437   1.015 -0.2834 -0.0158 -0.2155
14045TIP3    H163626   2.759   2.516   1.060  1.8495 -0.2366 -1.1751
14045TIP3    H263627   2.766   2.365   1.066 -0.5881 -0.3662 -0.4823
14046TIP3   OH263628   3.883   5.474   0.220  0.0533  0.1784  0.4628
14046TIP3    H163629   3.806   5.479   0.277 -1.6208 -1.2457 -1.4979
14046TIP3    H263630   3.863   5.535   0.148  1.6927  1.2624  0.8848
14047TIP3   OH263631   5.949   3.976   0.332 -0.4105  0.1496 -0.3400
14047TIP3    H163632   5.932   3.995   0.424  1.8539 -0.6312  0.3088
14047TIP3    H263633   5.998   4.052   0.301  2.2340 -1.2155  0.2399
14048TIP3   OH263634   6.245   5.984  14.220 -0.6455 -0.2244  0.1837
14048TIP3    H163635   6.171   5.925  14.232  1.3045 -2.5116  1.9471
14048TIP3    H263636   6.312   5.930  14.179  0.6537  1.2804  0.2167
14049TIP3   OH263637   4.956   0.406   3.878 -0.1477 -0.1422  0.5060
14049TIP3    H163638   4.864   0.419   3.857  0.1116  0.8178 -0.1172
14049TIP3    H263639   4.957   0.329   3.935 -1.0325 -2.0803 -1.9179
14050TIP3   OH263640   1.975   6.357   1.284  0.3538 -1.0362  0.1230
14050TIP3    H163641   1.919   6.298   1.232  0.0742  0.5864 -1.4925
14050TIP3    H263642   2.064   6.330   1.262  0.2350 -0.6238 -0.9434
14051TIP3   OH263643   2.773   2.782  11.789 -0.0160 -0.7433 -0.3091
14051TIP3    H163644   2.798   2.690  11.781  0.1209 -0.7227 -0.1003
14051TIP3    H263645   2.809   2.810  11.873 -0.4432 -0.6247 -0.1608
14052TIP3   OH263646   6.696   2.437   4.003 -0.0790 -0.1811 -0.7628
14052TIP3    H163647   6.637   2.382   3.952 -0.0739  0.1301 -1.1012
14052TIP3    H263648   6.763   2.376   4.035  0.5244 -0.2054 -2.0116
14053TIP3   OH263649   5.628   6.655   3.133  0.1709 -0.3464  0.6954
14053TIP3    H163650   5.592   6.663   3.044 -0.0587 -0.4858  0.7756
14053TIP3    H263651   5.605   6.566   3.160  0.3983 -0.3658  0.8252
14054TIP3   OH263652   0.243   0.160   1.985  0.3176 -0.3309 -0.2835
14054TIP3    H163653   0.212   0.214   1.912  1.4712 -1.3721 -1.6124
14054TIP3    H263654   0.337   0.149   1.969  0.9425  0.6599  2.2269
14055TIP3   OH263655   2.713   4.817   5.837  0.1723  0.2060  0.1363
14055TIP3    H163656   2.785   4.830   5.899  0.7557 -0.4639 -0.3981
14055TIP3    H263657   2.693   4.724   5.843 -1.8565  0.6502  1.5890
14056TIP3   OH263658   6.578   2.332  15.302  0.2585  0.3992  0.1135
14056TIP3    H163659   6.530   2.281  15.237 -0.5594  1.6155 -0.2760
14056TIP3    H263660   6.620   2.402  15.252  1.0603  0.3356  0.6799
14057TIP3   OH263661   3.350   0.505   0.216 -0.2862 -0.6876  0.1315
14057TIP3    H163662   3.307   0.423   0.241 -0.4943 -0.1063  1.8000
14057TIP3    H263663   3.433   0.477   0.176 -0.1619 -1.7288  1.0544
14058TIP3   OH263664   0.378   0.253   4.894  0.3176 -0.4477 -0.1016
14058TIP3    H163665   0.317   0.189   4.929 -1.1404  0.3742 -1.0373
14058TIP3    H263666   0.323   0.318   4.851  1.7648  1.1269  0.2881
14059TIP3   OH263667   4.678   3.341  17.188 -0.6923  0.6964 -0.0208
14059TIP3    H163668   4.710   3.254  17.164 -1.8521  0.3244 -0.2947
14059TIP3    H263669   4.670   3.339  17.283 -0.5475  0.5609 -0.0116
14060TIP3   OH263670   3.836   3.373   1.008  0.4463 -0.0966  0.2951
14060TIP3    H163671   3.880   3.430   0.945 -0.1709 -1.0229 -1.0440
14060TIP3    H263672   3.898   3.302   1.023  0.6853  0.2425  0.9220
14061TIP3   OH263673   1.129   0.829  13.075 -0.7248  0.2769  0.4165
14061TIP3    H163674   1.156   0.742  13.044  0.9898  0.8478  0.2050
14061TIP3    H263675   1.060   0.856  13.014 -0.3830 -0.4035 -0.2872
14062TIP3   OH263676   1.437   1.546  16.557 -0.1511 -0.1909  0.7941
14062TIP3    H163677   1.404   1.543  16.467  2.2531  0.0640 -0.1648
14062TIP3    H263678   1.517   1.598  16.552 -0.6196  0.9257  3.3535
14063TIP3   OH263679   0.674   5.297   5.314  0.0927 -0.2557  0.4019
14063TIP3    H163680   0.685   5.390   5.292 -0.6183 -0.3121 -0.2712
14063TIP3    H263681   0.763   5.264   5.324  0.3637  0.9459  2.7571
14064TIP3   OH263682   6.068   1.303   2.639 -0.1082  0.0321  0.1729
14064TIP3    H163683   6.083   1.383   2.689 -0.6112 -1.8374  3.6273
14064TIP3    H263684   6.155   1.266   2.626  0.0774  0.8222 -0.9651
14065TIP3   OH263685   4.257   2.553   3.566  0.0466  0.1470  0.2915
14065TIP3    H163686   4.331   2.586   3.618  0.5983  1.6449 -1.3468
14065TIP3    H263687   4.263   2.457   3.575  2.6038  0.1687 -0.2836
14066TIP3   OH263688   3.409   3.934   3.605 -0.0501 -0.3241  0.1193
14066TIP3    H163689   3.467   3.902   3.673 -1.8982 -0.6924  1.6039
14066TIP3    H263690   3.325   3.948   3.649 -0.5495  2.3459 -1.4208
14067TIP3   OH263691   5.289   0.504  13.111  0.6073 -0.8843 -0.6657
14067TIP3    H163692   5.233   0.448  13.165  0.5878  1.1895  1.6769
14067TIP3    H263693   5.358   0.533  13.171  0.3769  1.8715 -1.6012
14068TIP3   OH263694   5.881   3.554   4.073 -0.2733 -0.6627 -0.2817
14068TIP3    H163695   5.843   3.584   4.155  0.6351 -0.9807  0.2706
14068TIP3    H263696   5.823   3.485   4.043 -0.1237 -1.1604  0.5615
14069TIP3   OH263697   3.825   4.106  12.942 -0.3938  0.0317 -0.0081
14069TIP3    H163698   3.909   4.105  12.988 -0.5710 -0.8821  0.3134
14069TIP3    H263699   3.848   4.103  12.850 -0.0231  2.1262 -0.0430
14070TIP3   OH263700   0.837   3.773  16.267  0.4072 -0.6464  0.8928
14070TIP3    H163701   0.772   3.706  16.245  0.3264  0.1170 -1.4963
14070TIP3    H263702   0.819   3.795  16.358 -3.1222 -0.0303  0.1942
14071TIP3   OH263703   2.923   3.928   6.633  0.3195 -0.3197  0.9331
14071TIP3    H163704   2.828   3.938   6.628  0.0047 -2.4196  1.6068
14071TIP3    H263705   2.936   3.838   6.663  2.5303 -0.0012  1.1090
14072TIP3   OH263706   5.122   2.373   3.689  0.3471  0.1692 -0.3132
14072TIP3    H163707   5.195   2.364   3.750 -2.2976 -0.3538  3.0207
14072TIP3    H263708   5.118   2.467   3.670 -0.3970  0.8289  2.6686
14073TIP3   OH263709   3.534   5.137   0.974  0.6623 -0.6369 -0.3446
14073TIP3    H163710   3.583   5.219   0.985  0.3711 -0.6442  1.2074
14073TIP3    H263711   3.489   5.147   0.890  2.3446 -0.1272 -1.2282
14074TIP3   OH263712   5.554   0.073   2.901  0.4917  0.9143 -0.3723
14074TIP3    H163713   5.641   0.034   2.905  0.3489  0.2919 -2.2723
14074TIP3    H263714   5.513   0.032   2.824 -1.6504  0.8451  0.7363
14075TIP3   OH263715   5.603   6.646  12.501 -0.4739 -0.1154  0.0978
14075TIP3    H163716   5.558   6.585  12.443  0.4174 -0.4847 -0.2178
14075TIP3    H263717   5.589   6.732  12.461 -0.2037 -0.3221 -0.4507
14076TIP3   OH263718   1.434   3.103  15.966 -1.0185  0.5511 -0.3023
14076TIP3    H163719   1.367   3.037  15.983 -1.9328  1.0361 -1.8274
14076TIP3    H263720   1.466   3.084  15.878  0.7235  0.4663  0.3109
14077TIP3   OH263721   1.804   5.020  11.911 -0.1974 -0.3307 -0.3967
14077TIP3    H163722   1.803   5.084  11.839 -0.5842 -1.4560 -1.4244
14077TIP3    H263723   1.888   4.974  11.901  1.3778  1.7393  1.9849
14078TIP3   OH263724   2.047   2.548  14.862  0.0712 -0.3159 -0.1689
14078TIP3    H163725   1.994   2.472  14.884 -0.7508  0.3505  0.2093
14078TIP3    H263726   1.987   2.622  14.868  0.8970  0.3891 -0.3454
14079TIP3   OH263727   4.276   6.212   4.372  0.0645 -0.4784 -0.6273
14079TIP3    H163728   4.185   6.190   4.351  0.3156 -2.8135  0.4129
14079TIP3    H263729   4.282   6.307   4.358 -2.8425 -0.0489  0.3568
14080TIP3   OH263730   3.965   0.673  13.483  0.3367 -0.4590 -0.1805
14080TIP3    H163731   3.939   0.626  13.404 -0.5943 -0.0897 -0.1010
14080TIP3    H263732   4.060   0.681  13.476  0.4001 -1.4810 -0.6715
14081TIP3   OH263733   2.934   0.904  13.574 -0.1605 -0.5746  0.1122
14081TIP3    H163734   2.897   0.876  13.490 -0.5711  0.4454 -0.0653
14081TIP3    H263735   2.923   0.829  13.632 -2.9026 -0.2118  0.1882
14082TIP3   OH263736   1.731   3.561   6.513  0.2493  0.1294  0.6256
14082TIP3    H163737   1.636   3.564   6.498  0.5134  0.3861 -1.2304
14082TIP3    H263738   1.740   3.533   6.604 -1.6057 -2.4067  0.1597
14083TIP3   OH263739   5.869   5.424   3.108  0.5109  0.2006 -0.4052
14083TIP3    H163740   5.878   5.492   3.175 -2.4379  0.6482 -0.3320
14083TIP3    H263741   5.831   5.350   3.155 -0.5409  0.1257 -1.3392
14084TIP3   OH263742   4.567   5.912   5.043 -0.0861 -0.2868 -0.0324
14084TIP3    H163743   4.617   5.882   4.967  2.1389  0.6078  0.9981
14084TIP3    H263744   4.482   5.937   5.006  0.5487 -0.8732 -2.0479
14085TIP3   OH263745   0.798   5.721  12.399  0.3768  0.5069 -0.3944
14085TIP3    H163746   0.833   5.632  12.404 -0.3592  0.2025 -0.4987
14085TIP3    H263747   0.868   5.773  12.359  2.1461  0.7078  2.6619
14086TIP3   OH263748   0.257   0.144   5.684 -0.0851  0.6111  0.7674
14086TIP3    H163749   0.337   0.180   5.722  0.1297  0.2315  0.6779
14086TIP3    H263750   0.285   0.108   5.600 -0.0622 -0.8106  1.3595
14087TIP3   OH263751   0.450   4.270  11.212 -0.2006 -0.0995  0.5052
14087TIP3    H163752   0.516   4.284  11.144 -0.0170  0.7804  0.8456
14087TIP3    H263753   0.492   4.301  11.293 -1.1941  0.9682  0.6505
14088TIP3   OH263754   6.375   1.819  14.455  0.3872 -0.4355 -0.0372
14088TIP3    H163755   6.416   1.845  14.537  0.2150  0.5085 -0.2446
14088TIP3    H263756   6.282   1.837  14.467  0.7036  2.9671 -1.5797
14089TIP3   OH263757   3.843   3.740   1.352 -0.2398  0.8540 -0.7430
14089TIP3    H163758   3.785   3.679   1.399 -0.9327  1.3038 -0.9989
14089TIP3    H263759   3.859   3.810   1.415 -0.1200  0.8197 -0.7357
14090TIP3   OH263760   6.545   5.870   0.309  0.5573  0.0044 -0.5699
14090TIP3    H163761   6.582   5.949   0.349 -1.4199  0.1154  1.1629
14090TIP3    H263762   6.454   5.892   0.290  0.8008 -0.8239 -3.1483
14091TIP3   OH263763   3.326   6.768  11.029  0.3740  0.3492  0.4048
14091TIP3    H163764   3.332   6.697  10.965  0.5711 -1.2442  2.1094
14091TIP3    H263765   3.274   6.835  10.985  0.9274 -0.4448 -1.5965
14092TIP3   OH263766   1.896   6.233   1.531 -0.5623  0.0890  0.3577
14092TIP3    H163767   1.917   6.270   1.445 -0.8775  1.7533  0.9741
14092TIP3    H263768   1.893   6.138   1.516  0.3904  0.2852 -1.2398
14093TIP3   OH263769   4.730   2.105   5.007 -0.3669 -0.2329 -0.1489
14093TIP3    H163770   4.715   2.018   4.970  0.0104  0.6764 -2.5946
14093TIP3    H263771   4.656   2.157   4.978  0.5260  0.8064 -0.6218
14094TIP3   OH263772   5.429   0.285   2.711 -0.2102  0.6645 -0.2751
14094TIP3    H163773   5.456   0.376   2.696  2.5572 -0.1672 -1.0382
14094TIP3    H263774   5.472   0.236   2.641 -1.5892 -1.2667  0.1620
14095TIP3   OH263775   0.286   4.583  12.222 -0.0177 -1.0475  0.5607
14095TIP3    H163776   0.357   4.527  12.193  0.2817  0.9086 -3.1839
14095TIP3    H263777   0.214   4.564  12.161 -1.0442  0.2654  1.2960
14096TIP3   OH263778   4.574   1.874  13.840  0.0953 -0.1564  0.1421
14096TIP3    H163779   4.559   1.967  13.854 -2.2571 -0.0050 -2.4928
14096TIP3    H263780   4.509   1.830  13.896 -0.2996 -0.0830 -0.2481
14097TIP3   OH263781   3.356   5.821   1.917  0.3113 -0.0740 -0.1578
14097TIP3    H163782   3.376   5.754   1.982  2.0358 -1.8872 -2.3706
14097TIP3    H263783   3.262   5.810   1.899  0.2849 -0.9567  0.4727
14098TIP3   OH263784   0.468   3.644   0.981  0.0638  0.0617 -0.0929
14098TIP3    H163785   0.483   3.727   0.937  0.9798 -0.4950 -0.8456
14098TIP3    H263786   0.374   3.644   1.000  0.0572  1.2750 -0.0371
14099TIP3   OH263787   6.521   1.946   3.769 -0.0651  0.3425  0.3450
14099TIP3    H163788   6.534   1.865   3.720 -0.0708 -0.2343  1.2696
14099TIP3    H263789   6.506   2.012   3.702  0.3838 -0.3332 -0.4458
14100TIP3   OH263790   6.284   2.873  11.721  0.5065  0.4655 -0.3303
14100TIP3    H163791   6.315   2.783  11.708 -0.3689  0.2432 -0.9968
14100TIP3    H263792   6.233   2.870  11.802  0.3548  0.3273 -0.4304
14101TIP3   OH263793   6.035   1.716   3.289 -0.2861  0.4357  0.0910
14101TIP3    H163794   5.999   1.774   3.222 -0.0804  0.5422  0.0706
14101TIP3    H263795   6.118   1.757   3.313  1.4660 -1.5045 -2.2006
14102TIP3   OH263796   1.013   1.178   5.759 -0.4974 -0.1560 -0.3096
14102TIP3    H163797   1.027   1.245   5.826 -0.0978  0.0354 -0.5807
14102TIP3    H263798   0.956   1.113   5.801 -0.8063  0.3034 -0.0143
14103TIP3   OH263799   5.105   2.127  11.746  0.4921 -0.5519 -0.3258
14103TIP3    H163800   5.106   2.076  11.665  0.2395 -0.0290 -0.6626
14103TIP3    H263801   5.116   2.062  11.816 -1.2406 -1.2557 -0.6596
14104TIP3   OH263802   5.447   5.008  16.834  0.2100 -0.0553 -0.6382
14104TIP3    H163803   5.352   5.023  16.827 -0.2496 -1.2355  1.9288
14104TIP3    H263804   5.479   5.082  16.885  0.6873  0.2865 -1.4156
14105TIP3   OH263805   3.444   5.376  16.813 -0.1589 -0.1718 -0.2935
14105TIP3    H163806   3.532   5.339  16.812 -1.0563 -2.4712 -1.0603
14105TIP3    H263807   3.405   5.346  16.730 -2.0604 -0.3303  0.6093
14106TIP3   OH263808   1.730   1.673  11.816 -0.2985  0.0975 -0.2112
14106TIP3    H163809   1.657   1.648  11.760 -1.6641 -0.6732  1.8080
14106TIP3    H263810   1.768   1.590  11.845  0.3872  0.4764  0.0025
14107TIP3   OH263811   6.807   5.896  13.663 -0.4863 -0.8248  0.4464
14107TIP3    H163812   6.726   5.864  13.702 -0.2773 -0.2374  1.4088
14107TIP3    H263813   6.794   5.886  13.568 -1.4225 -1.3174  0.6125
14108TIP3   OH263814   1.266   3.752  13.660 -0.4371  0.0615 -0.5353
14108TIP3    H163815   1.252   3.720  13.749 -0.9829  1.0199 -0.2563
14108TIP3    H263816   1.185   3.732  13.614  0.0252 -0.8702 -0.9677
14109TIP3   OH263817   1.014   3.149   0.699 -0.2520  0.3866 -0.2954
14109TIP3    H163818   1.081   3.182   0.640  0.5726 -0.5424  0.0901
14109TIP3    H263819   0.953   3.102   0.642 -1.0442  1.8729 -0.7510
14110TIP3   OH263820   4.417   2.155   5.786 -0.3661 -0.6291  0.3778
14110TIP3    H163821   4.329   2.119   5.777  0.0749 -1.5081 -0.6033
14110TIP3    H263822   4.405   2.235   5.837 -1.8363 -0.2728 -0.4838
14111TIP3   OH263823   3.769   0.609   5.036 -0.2858 -0.2688 -0.5798
14111TIP3    H163824   3.796   0.536   5.092  0.8142 -1.0001 -2.0107
14111TIP3    H263825   3.750   0.569   4.951  1.2027  1.1895 -1.6655
14112TIP3   OH263826   6.754   5.216   5.250 -0.0894 -0.0045  0.8949
14112TIP3    H163827   6.675   5.269   5.258 -1.0833 -0.9088 -1.7213
14112TIP3    H263828   6.818   5.274   5.209 -1.1117 -0.5787 -1.7754
14113TIP3   OH263829   5.401   3.403  15.237 -1.2824  0.3423  0.1053
14113TIP3    H163830   5.368   3.407  15.327 -0.0602 -0.9696  0.6569
14113TIP3    H263831   5.479   3.347  15.243  0.0799  1.9606 -1.3868
14114TIP3   OH263832   0.201   6.601   4.938 -0.2795 -0.2503 -0.2850
14114TIP3    H163833   0.230   6.650   4.861  0.1784 -1.3080 -0.8101
14114TIP3    H263834   0.149   6.529   4.902  0.7033 -1.2963  0.3227
14115TIP3   OH263835   5.884   4.227   4.345  0.1516  0.0265 -0.0455
14115TIP3    H163836   5.920   4.147   4.383  0.0237 -1.5553 -2.9439
14115TIP3    H263837   5.823   4.196   4.277  0.5591  2.5412 -1.6941
14116TIP3   OH263838   2.534   5.354   0.846 -0.2162  0.5910  0.0473
14116TIP3    H163839   2.604   5.417   0.828  0.1090  0.6759  1.5171
14116TIP3    H263840   2.520   5.359   0.940 -1.3739 -0.3102 -0.0503
14117TIP3   OH263841   3.354   4.231  10.754  0.7347  0.1737 -0.2395
14117TIP3    H163842   3.338   4.320  10.786  1.1890  0.3093 -0.3832
14117TIP3    H263843   3.418   4.243  10.683  0.3726 -0.2075 -0.6332
14118TIP3   OH263844   2.315   2.589  14.328 -0.4166 -0.5123  0.4235
14118TIP3    H163845   2.326   2.533  14.251 -1.7235 -1.3019  0.8013
14118TIP3    H263846   2.404   2.598  14.363  0.1232 -0.5752 -0.8481
14119TIP3   OH263847   4.870   5.321   5.308 -0.4482 -0.7554 -0.3851
14119TIP3    H163848   4.939   5.261   5.280  0.8788  0.7149 -0.3774
14119TIP3    H263849   4.886   5.334   5.401 -1.0597 -0.7766 -0.2702
14120TIP3   OH263850   2.127   2.547  12.554 -0.2953 -0.4916  0.0298
14120TIP3    H163851   2.074   2.492  12.496  0.1932 -0.8815 -0.0529
14120TIP3    H263852   2.191   2.588  12.496 -0.2835 -0.2955  0.1801
14121TIP3   OH263853   2.959   0.170   4.019 -0.2112  0.1272  0.0071
14121TIP3    H163854   2.948   0.262   4.041 -0.5078  0.4103 -1.2821
14121TIP3    H263855   3.038   0.143   4.066  0.1339  1.1459  0.0281
14122TIP3   OH263856   4.361   2.511   2.245  0.2964 -0.0864  0.3671
14122TIP3    H163857   4.289   2.519   2.308 -0.3815  0.1189 -0.4264
14122TIP3    H263858   4.361   2.419   2.220  1.9026 -0.6561  2.1971
14123TIP3   OH263859   2.527   6.747   4.964  0.6727 -1.1820  0.0521
14123TIP3    H163860   2.528   6.762   5.059  0.3459  0.0097 -0.1140
14123TIP3    H263861   2.512   6.653   4.954  0.7399 -1.3206  1.1839
14124TIP3   OH263862   4.316   0.370  15.478 -0.3108  0.1299  0.5104
14124TIP3    H163863   4.276   0.299  15.529 -0.2092  0.2762  0.7988
14124TIP3    H263864   4.257   0.382  15.404 -1.2359  0.8513  1.3235
14125TIP3   OH263865   2.228   4.613   4.493 -0.1351 -0.4046 -0.1120
14125TIP3    H163866   2.291   4.654   4.434 -0.3097  0.5760  0.3710
14125TIP3    H263867   2.279   4.588   4.570 -0.1850 -0.3412 -0.0581
14126TIP3   OH263868   5.398   6.691   0.491  0.1377 -0.0570 -0.3893
14126TIP3    H163869   5.323   6.652   0.445  0.1200  0.7301 -1.0542
14126TIP3    H263870   5.361   6.723   0.573  0.4719 -2.9207  1.0144
14127TIP3   OH263871   3.295   2.313   2.270  0.0111 -0.0264  0.0460
14127TIP3    H163872   3.202   2.322   2.252 -0.1211 -0.6551  0.3701
14127TIP3    H263873   3.325   2.247   2.207 -0.3609 -1.8954  1.7382
14128TIP3   OH263874   3.458   0.571   6.053  0.0505  0.7059  0.2745
14128TIP3    H163875   3.553   0.573   6.045  0.0309  0.6118 -0.0205
14128TIP3    H263876   3.441   0.518   6.131  0.2321  0.3182  0.0543
14129TIP3   OH263877   5.969   1.198  16.431  0.3034 -1.2219  0.2457
14129TIP3    H163878   5.928   1.277  16.396 -1.3929 -1.6083  1.2473
14129TIP3    H263879   5.969   1.136  16.358  1.4795 -0.3882 -0.4907
14130TIP3   OH263880   5.585   2.636  13.591 -0.1953  0.7180 -0.0297
14130TIP3    H163881   5.632   2.712  13.626  0.5793  0.2032  0.0816
14130TIP3    H263882   5.652   2.587  13.542 -0.7146  0.1792 -0.2189
14131TIP3   OH263883   4.906   0.631  14.936 -0.0663 -0.7159  0.3933
14131TIP3    H163884   4.943   0.599  15.019  0.0281  1.1743  1.1339
14131TIP3    H263885   4.833   0.572  14.918 -1.0378 -0.3261  2.6416
14132TIP3   OH263886   3.598   4.148   4.577  0.0244 -0.7881  0.2530
14132TIP3    H163887   3.673   4.196   4.613  0.2949 -1.1731  0.2128
14132TIP3    H263888   3.598   4.065   4.624  0.5724 -1.4333 -0.8260
14133TIP3   OH263889   1.708   2.917   0.902 -0.4050  0.2351 -0.4086
14133TIP3    H163890   1.734   2.896   0.812  1.5964  1.7025 -0.2160
14133TIP3    H263891   1.721   2.836   0.950  1.4115  0.2096 -0.8726
14134TIP3   OH263892   0.287   2.568  12.590 -0.0897  0.3540 -0.3843
14134TIP3    H163893   0.347   2.513  12.641 -1.4184 -0.9136 -0.1067
14134TIP3    H263894   0.324   2.656  12.595  1.5977 -0.3460 -0.0334
14135TIP3   OH263895   2.425   4.127  14.712 -0.0391  0.3970  0.4469
14135TIP3    H163896   2.466   4.199  14.760  0.0304 -1.0510  2.6947
14135TIP3    H263897   2.331   4.138  14.729 -0.0959  0.3961  0.1368
14136TIP3   OH263898   4.147   4.566  13.973  0.2531  0.5355  0.3752
14136TIP3    H163899   4.153   4.625  13.898 -0.7894 -1.5227 -1.4043
14136TIP3    H263900   4.068   4.595  14.020 -1.6780 -0.8241 -1.8360
14137TIP3   OH263901   6.372   6.484   5.758  0.2958  0.5133  0.2295
14137TIP3    H163902   6.279   6.463   5.746  0.0433  0.9805  1.2534
14137TIP3    H263903   6.411   6.470   5.672 -0.7303  0.3296 -0.2209
14138TIP3   OH263904   1.644   6.068   1.258  0.1202  0.6790 -0.8963
14138TIP3    H163905   1.714   6.084   1.195  1.0835 -1.9780 -0.6359
14138TIP3    H263906   1.575   6.025   1.207 -0.6037  1.6660 -0.7860
14139TIP3   OH263907   6.182   4.780   2.802 -0.0292 -0.1781  0.2399
14139TIP3    H163908   6.130   4.714   2.848 -0.2142 -0.7970 -0.8157
14139TIP3    H263909   6.245   4.811   2.867  1.0946 -2.5086  0.3730
14140TIP3   OH263910   1.189   4.981  14.152  0.5716  0.4211  0.2048
14140TIP3    H163911   1.137   4.914  14.109  1.2315 -0.1507  0.2905
14140TIP3    H263912   1.228   4.937  14.227  1.9864  0.5660 -0.4162
14141TIP3   OH263913   6.396   6.207  10.412 -0.1673  0.3485  0.5706
14141TIP3    H163914   6.451   6.243  10.481 -0.9641  0.1832  1.3237
14141TIP3    H263915   6.455   6.153  10.359  0.7283  1.5444  0.3133
14142TIP3   OH263916   3.626   6.122   2.707  0.0174  0.4691  0.4702
14142TIP3    H163917   3.670   6.130   2.792  0.5933 -0.1770  0.2430
14142TIP3    H263918   3.534   6.111   2.728  0.3059 -0.9693  1.0691
14143TIP3   OH263919   6.489   5.418  12.613  0.2965 -0.0859  0.0047
14143TIP3    H163920   6.572   5.370  12.617  0.6605  0.5741  0.5281
14143TIP3    H263921   6.434   5.377  12.681  0.8196  0.6044  0.8733
14144TIP3   OH263922   5.225   0.598   1.556 -0.2074  0.0882  0.7509
14144TIP3    H163923   5.183   0.546   1.487 -1.2125  1.1506  0.5194
14144TIP3    H263924   5.301   0.547   1.583  1.8351  0.8406 -3.0053
14145TIP3   OH263925   3.412   1.472   3.610 -0.0150 -0.0769 -0.0295
14145TIP3    H163926   3.426   1.514   3.695  2.9213 -0.0733 -0.4090
14145TIP3    H263927   3.416   1.378   3.628 -0.3054 -0.0937 -0.0481
14146TIP3   OH263928   0.291   5.046   4.890 -0.1684 -0.5130  0.3806
14146TIP3    H163929   0.289   5.118   4.953  1.4005 -0.5766  0.5259
14146TIP3    H263930   0.261   4.970   4.940  0.0655 -0.3517  0.7709
14147TIP3   OH263931   5.637   0.891   1.168 -0.4381 -0.1287 -0.1482
14147TIP3    H163932   5.723   0.865   1.201  0.7938  1.6789 -1.7387
14147TIP3    H263933   5.652   0.914   1.077 -2.9071 -1.0238 -0.8706
14148TIP3   OH263934   6.562   3.657  13.321 -0.0821  0.3922  0.2231
14148TIP3    H163935   6.534   3.568  13.345 -0.3887  0.5715  0.5392
14148TIP3    H263936   6.592   3.649  13.231 -0.1858 -0.0165  0.2200
14149TIP3   OH263937   3.993   2.279   3.263 -0.1144 -0.0419  0.1330
14149TIP3    H163938   4.029   2.219   3.198 -0.9260 -0.1518 -0.2281
14149TIP3    H263939   4.045   2.263   3.342  2.1760  1.4555 -0.9797
14150TIP3   OH263940   3.933   6.491  14.585  0.0736  0.0704  0.1907
14150TIP3    H163941   4.020   6.455  14.602  0.2426  0.9577  1.3576
14150TIP3    H263942   3.894   6.500  14.671 -1.1093 -0.1100 -0.3084
14151TIP3   OH263943   0.470   1.672  16.726  0.6105 -0.0832  0.0719
14151TIP3    H163944   0.387   1.633  16.755  1.5638 -1.2741  1.3519
14151TIP3    H263945   0.445   1.739  16.662 -1.3509 -0.0913  0.7828
14152TIP3   OH263946   0.857   1.658  14.052  0.4573 -0.0921  0.7135
14152TIP3    H163947   0.761   1.658  14.053  0.4277  1.5599  0.6104
14152TIP3    H263948   0.882   1.715  14.125  1.3995 -1.1515  1.2527
14153TIP3   OH263949   1.797   3.240  15.054 -0.1750 -0.3140  0.4077
14153TIP3    H163950   1.831   3.327  15.077  1.4240 -0.8502  0.1848
14153TIP3    H263951   1.722   3.258  14.997  0.5888  0.9203 -0.2499
14154TIP3   OH263952   2.348   1.174   1.537  0.0063 -0.0117  0.2237
14154TIP3    H163953   2.285   1.184   1.607  0.9946  0.6320  1.0546
14154TIP3    H263954   2.433   1.181   1.580  0.6398 -0.0745 -0.9711
14155TIP3   OH263955   1.223   1.012  14.406  0.3875 -0.0288  0.2026
14155TIP3    H163956   1.232   0.958  14.484 -1.1088 -2.3089 -1.1065
14155TIP3    H263957   1.138   1.056  14.417  0.5034  0.2104  0.1602
14156TIP3   OH263958   3.826   4.304   2.033 -0.0334  0.5419  0.0429
14156TIP3    H163959   3.773   4.362   2.089  0.3893  0.3828  0.6191
14156TIP3    H263960   3.771   4.289   1.956 -0.2288  1.5669 -0.0388
14157TIP3   OH263961   1.994   0.106  11.634  0.1024 -0.1689 -0.1509
14157TIP3    H163962   2.062   0.145  11.579  0.1416 -1.0963 -0.7856
14157TIP3    H263963   1.943   0.181  11.666  0.5065  0.4351 -0.8822
14158TIP3   OH263964   6.685   2.601   1.751 -0.5959  0.2256 -0.5705
14158TIP3    H163965   6.697   2.673   1.813  1.3146 -1.3696  1.0586
14158TIP3    H263966   6.637   2.534   1.800 -1.7070  0.0765 -1.8194
14159TIP3   OH263967   0.605   4.874  12.605  0.5267 -0.0194 -0.2581
14159TIP3    H163968   0.616   4.926  12.684 -0.8324 -0.7503  0.4590
14159TIP3    H263969   0.648   4.791  12.625  0.5292 -0.0626 -0.4437
14160TIP3   OH263970   1.214   4.838   5.043 -0.2885  0.4501 -0.1386
14160TIP3    H163971   1.245   4.849   4.953 -1.9239 -0.2886 -0.8394
14160TIP3    H263972   1.255   4.758   5.074 -0.5789  0.1062 -0.6335
14161TIP3   OH263973   2.549   2.120   6.482  0.2587  0.4183  0.4078
14161TIP3    H163974   2.533   2.200   6.432  0.5012  0.2387  0.0397
14161TIP3    H263975   2.574   2.151   6.570  2.8573  0.8587 -0.3851
14162TIP3   OH263976   4.875   4.235  14.823  0.2014  0.0958  0.1379
14162TIP3    H163977   4.834   4.182  14.755 -0.7118 -1.5920  1.8890
14162TIP3    H263978   4.968   4.213  14.818 -0.0024 -0.8045  0.0576
14163TIP3   OH263979   4.149   5.101  12.734 -0.4962  0.2470 -0.5766
14163TIP3    H163980   4.185   5.183  12.767  0.5871 -0.2149 -0.5506
14163TIP3    H263981   4.116   5.056  12.812  0.1312  0.0842 -0.3956
14164TIP3   OH263982   5.611   3.059   2.932 -0.6246  0.5081  0.1206
14164TIP3    H163983   5.645   3.148   2.935  0.6377  0.0205  1.3172
14164TIP3    H263984   5.553   3.052   3.008 -0.4781  0.2152  0.2073
14165TIP3   OH263985   3.248   1.239  11.887 -0.2986 -0.4315 -0.1511
14165TIP3    H163986   3.265   1.308  11.951 -0.2180 -0.6839  0.1008
14165TIP3    H263987   3.307   1.168  11.912 -2.0039 -1.5160  1.0440
14166TIP3   OH263988   1.614   2.986   4.405 -0.4422  0.2860 -0.1529
14166TIP3    H163989   1.702   2.963   4.434 -0.4837  1.4816  1.0544
14166TIP3    H263990   1.562   2.908   4.420  0.3445 -0.3578 -0.6569
14167TIP3   OH263991   5.684   6.102  14.382  0.2757  0.0015 -0.5638
14167TIP3    H163992   5.670   6.195  14.396 -0.3619  0.1573 -2.0490
14167TIP3    H263993   5.734   6.097  14.301  0.6749 -0.9425 -0.2756
14168TIP3   OH263994   4.043   2.375   1.915 -0.2930 -0.0692  0.0595
14168TIP3    H163995   3.963   2.369   1.863 -0.5173  0.8526  0.2727
14168TIP3    H263996   4.095   2.299   1.889 -0.4832  0.2659 -1.3592
14169TIP3   OH263997   2.610   3.135  11.609 -0.2620 -0.0294 -0.0634
14169TIP3    H163998   2.699   3.135  11.643 -0.1660  0.8027 -0.2939
14169TIP3    H263999   2.564   3.201  11.662 -0.8117 -0.6289  0.2244
14170TIP3   OH264000   2.969   3.027   4.960  0.0565  0.2516  0.2560
14170TIP3    H164001   2.929   2.999   4.877 -0.9339  2.5231 -0.1010
14170TIP3    H264002   3.059   3.048   4.937  0.6508 -1.8773  0.4138
14171TIP3   OH264003   1.377   6.145  12.805  0.1773 -0.1155 -0.0054
14171TIP3    H164004   1.451   6.126  12.863  0.6490  0.4356 -0.4112
14171TIP3    H264005   1.300   6.117  12.854  0.5786  0.2296  0.8459
14172TIP3   OH264006   1.406   2.244  11.067  0.0562  0.4650 -0.2280
14172TIP3    H164007   1.401   2.319  11.126  0.3408  1.4818 -1.4497
14172TIP3    H264008   1.351   2.268  10.993  1.0006 -0.0458 -1.1312
14173TIP3   OH264009   0.949   2.251  10.916 -0.4105  0.2060 -0.0445
14173TIP3    H164010   0.941   2.170  10.865  3.9139 -0.4468 -0.1101
14173TIP3    H264011   0.924   2.321  10.855 -2.2327 -0.8951 -0.6477
14174TIP3   OH264012   3.954   0.904  15.713 -0.2185 -0.5189  0.0065
14174TIP3    H164013   3.978   0.977  15.655  1.3511  0.3123  1.6097
14174TIP3    H264014   3.885   0.858  15.665 -1.8446  2.4305 -0.7757
14175TIP3   OH264015   5.042   1.796  12.330  0.0375 -0.0200 -0.3430
14175TIP3    H164016   4.956   1.831  12.353  0.0622  0.3417 -0.8074
14175TIP3    H264017   5.033   1.765  12.240 -0.0754 -1.5034  0.1474
14176TIP3   OH264018   1.488   5.230  14.278 -0.0265 -0.0199  0.0733
14176TIP3    H164019   1.522   5.144  14.304  1.3782  0.3159 -0.5098
14176TIP3    H264020   1.441   5.213  14.196 -1.2070 -0.4814  0.8301
14177TIP3   OH264021   6.467   3.975   2.526 -0.2852 -0.2955  0.3753
14177TIP3    H164022   6.448   4.031   2.451 -0.8228  1.1045  1.5170
14177TIP3    H264023   6.454   4.031   2.602  1.3074 -1.3586  1.5052
14178TIP3   OH264024   3.225   0.560  13.126 -0.3709 -0.3555 -0.0218
14178TIP3    H164025   3.192   0.641  13.086 -0.8144 -0.5970 -0.1537
14178TIP3    H264026   3.232   0.579  13.219  1.9920  0.6725 -0.3442
14179TIP3   OH264027   2.897   1.960   5.014 -0.4559 -0.3498 -0.2259
14179TIP3    H164028   2.976   2.014   5.021  0.4536 -1.4954 -1.2138
14179TIP3    H264029   2.868   1.948   5.104 -0.2142  1.1013  0.0639
14180TIP3   OH264030   4.177   5.494   1.189  0.9290 -0.4010  0.4010
14180TIP3    H164031   4.193   5.468   1.098  0.1846 -3.5290  1.0478
14180TIP3    H264032   4.263   5.518   1.222  1.2965  0.2592 -0.9612
14181TIP3   OH264033   4.371   1.186   1.912 -0.7643 -0.2988 -0.1950
14181TIP3    H164034   4.459   1.150   1.923 -0.1885 -0.2525 -3.6752
14181TIP3    H264035   4.322   1.117   1.868 -1.7133  0.6240 -0.6266
14182TIP3   OH264036   4.734   0.509  15.475  0.3573 -0.3502 -0.0704
14182TIP3    H164037   4.692   0.427  15.449 -1.0290  0.1064  0.6662
14182TIP3    H264038   4.662   0.568  15.497  1.3289  1.0429 -0.4654
14183TIP3   OH264039   0.744   0.252  11.404 -0.0412 -0.5552 -0.2886
14183TIP3    H164040   0.795   0.232  11.483 -1.6899 -1.0305  0.6961
14183TIP3    H264041   0.796   0.215  11.332  0.8991 -1.1940  0.6900
14184TIP3   OH264042   0.167   2.184   1.510  0.3797 -0.0541 -0.2538
14184TIP3    H164043   0.157   2.089   1.508 -1.1703  0.0969 -1.1213
14184TIP3    H264044   0.222   2.203   1.433 -1.6844 -0.0602 -1.8154
14185TIP3   OH264045   6.290   3.198  15.517 -0.3334  0.0442  0.5262
14185TIP3    H164046   6.338   3.120  15.489 -0.4483  0.1684 -0.0199
14185TIP3    H264047   6.247   3.229  15.438  1.2715  1.7977  0.2779
14186TIP3   OH264048   1.945   4.851  14.940 -0.3477 -0.0763  0.0792
14186TIP3    H164049   1.923   4.759  14.922 -1.4992  0.0055  0.9065
14186TIP3    H264050   2.040   4.853  14.949 -0.4568 -1.6693  2.4344
14187TIP3   OH264051   4.199   1.369  14.988 -0.0875  0.1089 -0.4721
14187TIP3    H164052   4.234   1.356  14.900 -0.0279  1.1809 -0.6233
14187TIP3    H264053   4.215   1.462  15.007  0.6077 -0.2836  0.9870
14188TIP3   OH264054   0.729   4.521   5.277 -0.0137  0.2533  0.1138
14188TIP3    H164055   0.652   4.488   5.231  0.5933  0.2511 -0.9347
14188TIP3    H264056   0.700   4.535   5.367 -2.1307  3.3366 -0.9123
14189TIP3   OH264057   1.694   6.700  11.924 -0.5107  0.3910 -0.3355
14189TIP3    H164058   1.757   6.770  11.907  0.1328 -0.6371 -2.5548
14189TIP3    H264059   1.608   6.741  11.916 -0.3395  2.1271  3.9999
14190TIP3   OH264060   4.619   0.063   0.411 -0.3961  0.1282 -0.1136
14190TIP3    H164061   4.639   0.029   0.498 -2.8446 -0.6396  0.2162
14190TIP3    H264062   4.668   0.145   0.405  0.1269 -0.0120  1.8132
14191TIP3   OH264063   1.444   0.779  13.926 -0.0260  0.3188 -0.1442
14191TIP3    H164064   1.498   0.719  13.875 -0.7556  0.8815 -1.6484
14191TIP3    H264065   1.376   0.724  13.964  0.3418 -0.0671 -0.0395
14192TIP3   OH264066   6.647   3.456   1.876 -0.6337 -0.1426 -0.5365
14192TIP3    H164067   6.718   3.476   1.937 -2.3942 -0.1394  1.6318
14192TIP3    H264068   6.589   3.532   1.880 -1.3330 -0.6035 -1.4461
14193TIP3   OH264069   6.472   2.366   4.662 -0.0391  0.0172 -0.4534
14193TIP3    H164070   6.416   2.424   4.714 -0.6831 -0.2608 -0.8270
14193TIP3    H264071   6.411   2.310   4.615  0.5551 -0.2172 -0.9568
14194TIP3   OH264072   6.765   6.560  12.697  0.4372 -0.1804 -0.3608
14194TIP3    H164073   6.744   6.604  12.614  1.7717  0.1482 -0.5512
14194TIP3    H264074   6.699   6.492  12.706  0.7797 -0.8077 -2.1564
14195TIP3   OH264075   0.262   5.571   2.301 -0.3916 -0.0936 -0.2151
14195TIP3    H164076   0.241   5.594   2.391  0.6763 -1.3466  0.3965
14195TIP3    H264077   0.190   5.606   2.249  0.1676  2.8236  0.7978
14196TIP3   OH264078   4.560   4.220   5.429 -0.6130 -0.1228 -0.6993
14196TIP3    H164079   4.507   4.142   5.445  0.6833 -1.1975 -1.4605
14196TIP3    H264080   4.577   4.256   5.516  0.1047 -1.6060 -0.1971
14197TIP3   OH264081   3.242   6.043  12.135 -0.7420  0.2986  0.3485
14197TIP3    H164082   3.277   6.096  12.063 -2.4758 -0.8223 -1.4354
14197TIP3    H264083   3.209   6.108  12.198  0.0875  1.3156 -0.2315
14198TIP3   OH264084   0.703   4.418  13.051  0.1147 -0.5675 -0.0432
14198TIP3    H164085   0.785   4.375  13.029 -1.9032 -4.5777 -0.7312
14198TIP3    H264086   0.673   4.374  13.131 -1.6498  0.2476 -0.1976
14199TIP3   OH264087   6.109   5.385   0.840 -0.3500 -0.0202 -0.1286
14199TIP3    H164088   6.170   5.323   0.802 -0.4276 -0.1318 -0.0721
14199TIP3    H264089   6.164   5.453   0.880 -0.2187 -0.9918  1.4135
14200TIP3   OH264090   0.381   2.240  11.909  0.8035  0.6423  0.4545
14200TIP3    H164091   0.414   2.188  11.983  0.7199  0.1657  0.1630
14200TIP3    H264092   0.300   2.279  11.942 -0.0411 -0.7805  0.1510
14201TIP3   OH264093   5.905   0.585   5.999 -0.5969 -0.2967  0.9514
14201TIP3    H164094   5.819   0.623   6.018 -0.5406  0.0942  0.4555
14201TIP3    H264095   5.905   0.501   6.044 -0.7454  0.2636  2.0233
14202TIP3   OH264096   6.427   6.141   3.896 -0.1382  0.3138  0.5582
14202TIP3    H164097   6.404   6.079   3.966  0.4201  2.0304  2.3763
14202TIP3    H264098   6.521   6.156   3.908  0.0431  0.3489 -0.8341
14203TIP3   OH264099   5.527   6.551   2.442 -0.0706 -0.5181  0.1780
14203TIP3    H164100   5.532   6.620   2.509 -0.7690  0.6754 -0.9346
14203TIP3    H264101   5.565   6.592   2.364 -1.3792 -1.0323 -0.7707
14204TIP3   OH264102   2.850   2.738  12.372 -1.1650  0.1493  0.1309
14204TIP3    H164103   2.837   2.832  12.367 -2.8285 -0.1238 -2.4413
14204TIP3    H264104   2.800   2.702  12.299 -0.4258 -2.7357  0.8846
14205TIP3   OH264105   0.231   5.003   5.331  0.2826  0.5837 -0.1661
14205TIP3    H164106   0.189   4.969   5.252  1.5160  1.3176 -1.2001
14205TIP3    H264107   0.324   5.005   5.309  0.3670  4.8196 -0.4008
14206TIP3   OH264108   0.596   4.031  14.787 -0.2016 -0.6803  0.0056
14206TIP3    H164109   0.585   4.063  14.877  0.1186 -1.1633  0.2229
14206TIP3    H264110   0.688   4.006  14.782  0.2419  0.9910 -1.0118
14207TIP3   OH264111   1.502   2.183  16.371 -0.8372 -0.3171  0.2630
14207TIP3    H164112   1.536   2.121  16.306 -0.3499  1.8376 -1.6862
14207TIP3    H264113   1.534   2.150  16.455  1.3772 -1.4524 -0.9239
14208TIP3   OH264114   3.750   1.585   1.926  0.4648 -0.4358  0.3317
14208TIP3    H164115   3.817   1.534   1.881 -0.2202 -2.3718  1.3762
14208TIP3    H264116   3.688   1.520   1.958  0.0715  0.9627  2.6611
14209TIP3   OH264117   2.302   4.021   1.499  0.0452 -0.2818 -0.7948
14209TIP3    H164118   2.278   3.940   1.543  2.7770 -0.7115  0.1265
14209TIP3    H264119   2.374   4.056   1.551  0.6091  1.4273 -2.5825
14210TIP3   OH264120   6.052   3.332  13.180  0.0403 -0.3032 -0.0326
14210TIP3    H164121   5.964   3.366  13.194 -0.1652 -0.6366 -0.4997
14210TIP3    H264122   6.074   3.359  13.091  0.0174 -1.0815 -0.2754
14211TIP3   OH264123   3.701   0.336   0.584 -0.1272  0.4806 -0.4050
14211TIP3    H164124   3.670   0.252   0.618 -0.3976  0.3737 -0.9099
14211TIP3    H264125   3.639   0.358   0.514 -0.3737  1.3557  0.0696
14212TIP3   OH264126   1.188   5.250   5.473  0.1320  0.0133 -0.8805
14212TIP3    H164127   1.117   5.314   5.481 -0.9884 -1.0303 -1.9869
14212TIP3    H264128   1.152   5.170   5.512  0.4079 -0.7318 -2.1146
14213TIP3   OH264129   4.544   2.408   2.438  0.1178  0.1554 -0.5913
14213TIP3    H164130   4.520   2.479   2.379 -1.0825 -0.2328 -0.5892
14213TIP3    H264131   4.616   2.363   2.393 -0.0979  0.4824 -1.2697
14214TIP3   OH264132   3.300   4.892   0.907 -0.4368  0.3370  0.3498
14214TIP3    H164133   3.276   4.976   0.945  2.5839  0.8346  1.4085
14214TIP3    H264134   3.323   4.912   0.816 -0.6203  0.4751  0.3344
14215TIP3   OH264135   0.762   6.830  16.967 -0.3314 -0.2500  0.0173
14215TIP3    H164136   0.752   6.831  16.872  0.1858 -2.5818 -0.1181
14215TIP3    H264137   0.676   6.801  16.999 -0.8555  1.5861  0.3778
14216TIP3   OH264138   3.511   5.622  11.385 -0.1160 -0.8992  0.4165
14216TIP3    H164139   3.606   5.612  11.380 -0.1976 -2.3715  1.3111
14216TIP3    H264140   3.497   5.692  11.448  0.3721 -2.6523  2.5900
14217TIP3   OH264141   1.480   2.991   5.542  0.2571 -0.3926  0.6070
14217TIP3    H164142   1.537   3.064   5.517  0.4838 -0.4431  0.9665
14217TIP3    H264143   1.415   3.031   5.600 -0.1297 -0.3175  0.1192
14218TIP3   OH264144   4.655   4.435  13.308  0.3266 -0.4637  0.7546
14218TIP3    H164145   4.599   4.511  13.329 -1.3007 -1.6654  0.9584
14218TIP3    H264146   4.721   4.435  13.376  0.7713  1.1466  0.3804
14219TIP3   OH264147   2.637   0.294  14.933 -0.0388 -0.4877  0.2112
14219TIP3    H164148   2.547   0.302  14.903  0.6275 -0.9005 -2.0753
14219TIP3    H264149   2.685   0.362  14.886  0.8882 -0.3068  1.3492
14220TIP3   OH264150   4.475   4.977   1.777  0.8647 -0.3828 -0.4725
14220TIP3    H164151   4.521   4.900   1.809 -0.0149 -0.3507  0.9202
14220TIP3    H264152   4.465   5.033   1.853 -3.2226 -1.2712 -0.1525
14221TIP3   OH264153   2.996   4.702  14.237  0.8249 -0.4843 -0.5860
14221TIP3    H164154   2.922   4.705  14.177  2.7981  0.1852 -3.1549
14221TIP3    H264155   2.994   4.788  14.281 -0.0212 -0.5568 -0.4707
14222TIP3   OH264156   0.287   0.852   3.268  1.0576 -0.6677 -0.0369
14222TIP3    H164157   0.234   0.914   3.317  1.3229  0.2910 -0.9100
14222TIP3    H264158   0.289   0.773   3.322 -0.7643 -0.5386  0.2833
14223TIP3   OH264159   3.062   3.872   4.999  0.2746  0.6469  0.2179
14223TIP3    H164160   2.989   3.932   4.988  0.8973  1.1747 -1.1762
14223TIP3    H264161   3.139   3.922   4.975  0.8179 -0.6723 -0.9327
14224TIP3   OH264162   0.068   2.229  11.565  0.4206  0.0223  0.7039
14224TIP3    H164163   0.006   2.301  11.569 -1.6677 -1.5885 -0.2987
14224TIP3    H264164   0.080   2.213  11.471  0.4265 -1.2155  0.8898
14225TIP3   OH264165   4.181   2.952   2.693  0.1977  0.3982 -0.0228
14225TIP3    H164166   4.153   2.923   2.606  0.3107  1.2165 -0.3434
14225TIP3    H264167   4.176   2.873   2.748 -1.5471  0.2470 -0.3591
14226TIP3   OH264168   0.837   6.743  11.521 -0.1141 -0.2472 -0.1224
14226TIP3    H164169   0.910   6.775  11.573  0.9260 -0.9639 -1.0789
14226TIP3    H264170   0.761   6.791  11.554  1.0415  1.7800 -0.2099
14227TIP3   OH264171   4.179   6.441   0.878 -0.4661 -0.5299 -0.1968
14227TIP3    H164172   4.178   6.529   0.918  0.4770 -1.0864  1.1262
14227TIP3    H264173   4.269   6.410   0.892 -0.8777 -1.8361 -0.3719
14228TIP3   OH264174   3.491   6.490  12.035 -0.5121  0.3486  0.1449
14228TIP3    H164175   3.486   6.434  12.113  0.6020  0.4416  0.3040
14228TIP3    H264176   3.406   6.480  11.993 -0.4717 -1.1938  0.3659
14229TIP3   OH264177   3.384   0.936  14.222  0.5386  0.5839  0.2934
14229TIP3    H164178   3.405   1.025  14.250 -1.3453  1.5238 -1.0499
14229TIP3    H264179   3.331   0.947  14.143  3.4522 -1.8257 -2.2733
14230TIP3   OH264180   3.908   5.906   4.640 -0.0622 -0.3318 -0.5531
14230TIP3    H164181   3.924   5.899   4.734  1.6912 -1.4751 -0.8892
14230TIP3    H264182   3.813   5.894   4.631 -0.6620  2.2405  1.2260
14231TIP3   OH264183   0.298   5.175  13.175  0.6277  0.2318 -0.1863
14231TIP3    H164184   0.279   5.184  13.269 -0.2490  2.3956 -0.5253
14231TIP3    H264185   0.360   5.246  13.156  0.1986  0.2989 -1.3913
14232TIP3   OH264186   3.672   2.058   2.978 -0.3045  0.9002 -0.5027
14232TIP3    H164187   3.622   1.993   2.929  0.0415  1.6583 -1.9017
14232TIP3    H264188   3.658   2.034   3.070  0.5479 -1.7140 -0.9536
14233TIP3   OH264189   0.677   0.357  16.348 -0.0197 -0.1824  0.3878
14233TIP3    H164190   0.660   0.447  16.322  0.3278 -0.1295  0.3350
14233TIP3    H264191   0.666   0.305  16.268  0.6956 -0.0654  0.2060
14234TIP3   OH264192   1.543   1.983   4.136  0.7159 -0.1371 -0.0130
14234TIP3    H164193   1.634   1.967   4.110  0.8950 -0.4888  0.8132
14234TIP3    H264194   1.494   1.909   4.098  0.5250  0.7950 -1.6879
14235TIP3   OH264195   1.776   4.928  16.871 -0.1977 -0.2863  0.1317
14235TIP3    H164196   1.802   4.964  16.955  0.8541 -0.1781 -0.2208
14235TIP3    H264197   1.680   4.920  16.876 -0.2428  0.6225  0.9684
14236TIP3   OH264198   4.050   6.666  11.293  0.4851  0.1007 -0.8662
14236TIP3    H164199   4.116   6.704  11.350  0.7663 -2.7878  0.8935
14236TIP3    H264200   4.100   6.625  11.222  0.2061  2.3949 -2.4960
14237TIP3   OH264201   3.152   1.494   0.054 -0.0674  0.0886  0.6085
14237TIP3    H164202   3.184   1.435   0.122  0.5547 -0.0423  0.2143
14237TIP3    H264203   3.203   1.471  -0.024 -1.0135  0.0051  0.0014
14238TIP3   OH264204   3.919   3.415  11.173  0.0599  0.1766  0.5088
14238TIP3    H164205   4.005   3.376  11.158  0.0218  0.1235  0.4227
14238TIP3    H264206   3.858   3.353  11.132  0.1434  1.3650 -1.5786
14239TIP3   OH264207   5.145   0.265  14.457  0.5151 -0.0949 -0.7877
14239TIP3    H164208   5.162   0.211  14.380 -1.8121 -2.1182  0.0058
14239TIP3    H264209   5.164   0.208  14.531  1.7104  1.4875  0.2173
14240TIP3   OH264210   1.351   1.249   2.805  0.5245 -0.0483  0.0923
14240TIP3    H164211   1.393   1.322   2.850 -0.0486  0.9448 -0.9484
14240TIP3    H264212   1.279   1.223   2.863 -1.7812  2.8334 -1.2406
14241TIP3   OH264213   0.988   5.815  13.670  0.3377  0.2318  0.2017
14241TIP3    H164214   0.929   5.889  13.686 -1.2738 -1.2444  1.3685
14241TIP3    H264215   1.062   5.854  13.622 -0.0986  2.7333  1.3780
14242TIP3   OH264216   6.534   1.888  14.669 -0.8953  0.0626  0.2336
14242TIP3    H164217   6.513   1.981  14.670 -2.4198 -0.2388 -0.6476
14242TIP3    H264218   6.620   1.882  14.710  0.2827  2.1113 -1.7057
14243TIP3   OH264219   5.791   0.252  13.245  0.3824 -0.0435  0.9017
14243TIP3    H164220   5.711   0.211  13.213  0.1313  1.0789  0.0630
14243TIP3    H264221   5.847   0.178  13.270 -0.3688 -0.8702  0.1914
14244TIP3   OH264222   4.125   5.735  11.625  0.1067  0.7015  0.3434
14244TIP3    H164223   4.136   5.742  11.720  1.4395 -0.3909  0.3127
14244TIP3    H264224   4.071   5.810  11.601  1.9759  2.5801  1.6296
14245TIP3   OH264225   4.164   0.466   0.724 -0.0146  0.3123  0.6395
14245TIP3    H164226   4.164   0.395   0.789  0.3419 -1.5749 -1.3141
14245TIP3    H264227   4.072   0.478   0.702  0.0753 -1.8174 -1.2668
14246TIP3   OH264228   0.201   3.080   6.308 -0.0475  0.5831 -0.3199
14246TIP3    H164229   0.150   3.134   6.369 -0.5235 -2.6115  2.4116
14246TIP3    H264230   0.137   3.020   6.270  0.8150  0.2787 -1.3343
14247TIP3   OH264231   2.816   3.507   5.245  0.1659  0.8935  0.3964
14247TIP3    H164232   2.892   3.535   5.296  0.0783  2.8541 -0.4410
14247TIP3    H264233   2.749   3.487   5.310  0.9504  0.5286  1.1078
14248TIP3   OH264234   5.900   1.649  12.409 -0.0158  0.1285 -0.2380
14248TIP3    H164235   5.971   1.605  12.362 -1.2154 -0.1804 -1.8728
14248TIP3    H264236   5.933   1.659  12.498  0.5457 -3.6797  0.1484
14249TIP3   OH264237   6.387   5.280   4.156  0.3533  0.2823  0.4356
14249TIP3    H164238   6.396   5.194   4.115 -1.9034  1.1777 -2.2764
14249TIP3    H264239   6.360   5.261   4.246 -0.3447 -1.8651 -0.1633
14250TIP3   OH264240   3.964   4.209   2.554 -0.4577 -0.2568  0.4660
14250TIP3    H164241   3.879   4.219   2.597 -0.2114  0.2290  0.8503
14250TIP3    H264242   4.028   4.224   2.624 -0.0522  0.4569 -0.0385
14251TIP3   OH264243   3.671   6.257   4.556 -0.0762 -0.0156 -0.3884
14251TIP3    H164244   3.740   6.277   4.494  1.0592  0.2365  0.9011
14251TIP3    H264245   3.618   6.337   4.560  0.4748  0.3473 -0.2438
14252TIP3   OH264246   4.443   1.508  15.433  0.0475 -0.1949 -0.0722
14252TIP3    H164247   4.461   1.539  15.521  0.4097  0.7257 -0.4643
14252TIP3    H264248   4.441   1.587  15.379 -0.9476 -0.6680 -0.7629
14253TIP3   OH264249   1.210   3.648  12.897  0.3884  0.4787 -0.2767
14253TIP3    H164250   1.204   3.563  12.939  2.0507  0.0342 -0.8277
14253TIP3    H264251   1.193   3.631  12.804  0.3260  0.8192 -0.3318
14254TIP3   OH264252   2.362   2.283   3.594  0.4650 -0.1799 -0.1434
14254TIP3    H164253   2.305   2.352   3.560 -1.3385 -2.0261 -1.0440
14254TIP3    H264254   2.451   2.316   3.579 -0.3141  2.0864 -0.1825
14255TIP3   OH264255   1.972   4.520  16.608  0.7922  0.7572 -0.2375
14255TIP3    H164256   1.889   4.563  16.586 -0.6457 -0.7959  1.7156
14255TIP3    H264257   1.968   4.509  16.703  1.7510 -2.1734 -0.4502
14256TIP3   OH264258   4.467   5.951  12.868 -0.2038  0.1387  0.0391
14256TIP3    H164259   4.525   5.878  12.847 -0.6559 -1.2231  2.9906
14256TIP3    H264260   4.525   6.027  12.873  0.7398 -0.5342 -0.3450
14257TIP3   OH264261   1.828   2.230  12.339  0.0438 -0.0156 -0.5114
14257TIP3    H164262   1.888   2.162  12.368 -0.2009 -0.3972 -0.8896
14257TIP3    H264263   1.873   2.312  12.361 -1.2375 -0.1860  3.3471
14258TIP3   OH264264   3.248   5.547  16.419  0.0238  0.0142  0.6121
14258TIP3    H164265   3.206   5.584  16.497  0.4314 -0.6532  1.1480
14258TIP3    H264266   3.290   5.622  16.376 -0.5905  0.4589  0.7825
14259TIP3   OH264267   6.408   4.657  16.618 -0.6949  0.3885 -0.0666
14259TIP3    H164268   6.470   4.696  16.680 -1.8333  1.9404  0.1357
14259TIP3    H264269   6.323   4.691  16.645 -1.3564  0.1274 -1.7552
14260TIP3   OH264270   3.214   2.697   4.286 -0.1017  0.0130 -0.3695
14260TIP3    H164271   3.202   2.791   4.303 -1.7461 -0.0039 -1.2441
14260TIP3    H264272   3.294   2.692   4.234  1.5734  0.6230  1.9731
14261TIP3   OH264273   2.086   4.026   1.839  0.2319  0.8140  0.2309
14261TIP3    H164274   2.036   4.081   1.899  0.6306 -1.0829  2.4653
14261TIP3    H264275   2.046   3.939   1.848  1.5602  0.0638 -0.7950
14262TIP3   OH264276   5.755   0.330  11.854 -0.0269  0.2194 -0.3752
14262TIP3    H164277   5.758   0.325  11.759 -0.7286 -0.6793 -0.3610
14262TIP3    H264278   5.673   0.287  11.878  0.8468 -0.9122  0.7137
14263TIP3   OH264279   0.058   2.657  16.232 -0.2837  0.5036  0.5361
14263TIP3    H164280   0.067   2.745  16.197 -0.2507  1.3539  2.5502
14263TIP3    H264281   0.120   2.604  16.182 -0.0363  1.7030 -0.4509
14264TIP3   OH264282   1.216   2.278  12.851  0.2720 -0.0592 -0.4036
14264TIP3    H164283   1.221   2.263  12.756  0.3526 -0.4727 -0.3365
14264TIP3    H264284   1.304   2.306  12.875  0.5323 -0.9459 -0.2901
14265TIP3   OH264285   0.070   3.113  12.087 -0.0769  0.4549 -0.3233
14265TIP3    H164286   0.010   3.176  12.046  0.0045  0.7459 -0.0020
14265TIP3    H264287   0.013   3.045  12.122 -0.1057 -0.1966 -1.5678
14266TIP3   OH264288   0.943   5.315   0.911 -0.0159 -0.7218  0.0785
14266TIP3    H164289   0.918   5.365   0.989  0.4157 -0.0673 -0.1999
14266TIP3    H264290   0.986   5.378   0.854  1.2332 -1.5524  0.0442
14267TIP3   OH264291   2.511   6.152   5.176  0.2975 -0.1874  0.4099
14267TIP3    H164292   2.421   6.142   5.208 -1.1746  3.4168 -2.0036
14267TIP3    H264293   2.523   6.079   5.115 -1.1199 -0.5111  0.4765
14268TIP3   OH264294   3.861   1.774   5.231 -0.5667 -0.0176 -0.3281
14268TIP3    H164295   3.800   1.781   5.159 -0.0465  0.5175 -0.7244
14268TIP3    H264296   3.837   1.845   5.291  1.0172  1.6185 -1.5353
14269TIP3   OH264297   4.680   0.529   0.333 -0.2314  0.4242 -0.5876
14269TIP3    H164298   4.743   0.595   0.362  0.4427 -1.0642  1.6413
14269TIP3    H264299   4.734   0.458   0.298 -0.8264  0.1746 -1.0257
14270TIP3   OH264300   4.888   3.316  14.088  0.4378  0.2326  0.8071
14270TIP3    H164301   4.803   3.338  14.049  1.1241  0.6598 -0.5224
14270TIP3    H264302   4.911   3.393  14.139  0.6762  0.7068 -0.0031
14271TIP3   OH264303   3.739   4.947   3.740  0.3040 -0.2364  0.2287
14271TIP3    H164304   3.791   5.028   3.744  3.2866 -1.9477 -0.6777
14271TIP3    H264305   3.659   4.972   3.696  0.1293  2.6464  1.9204
14272TIP3   OH264306   6.449   5.235  10.501 -0.1718 -0.1733  0.3547
14272TIP3    H164307   6.362   5.229  10.463  0.4894  0.6371 -1.4151
14272TIP3    H264308   6.499   5.165  10.460  0.7896  1.2546 -1.0184
14273TIP3   OH264309   5.360   4.227   3.464  0.0355  0.1688 -0.1261
14273TIP3    H164310   5.317   4.216   3.549  2.2939  3.5293  1.7107
14273TIP3    H264311   5.308   4.294   3.420  0.7932  0.9459  0.1438
14274TIP3   OH264312   2.525   3.510  15.140  0.1203  0.4405 -0.4276
14274TIP3    H164313   2.531   3.414  15.137  0.8378  0.4906 -0.8641
14274TIP3    H264314   2.603   3.538  15.187 -0.3413  0.7963  0.1409
14275TIP3   OH264315   3.626   4.650   4.596 -0.2602  0.0049  0.1871
14275TIP3    H164316   3.589   4.571   4.636  1.0646 -0.5976  0.2509
14275TIP3    H264317   3.710   4.623   4.561  1.3735  1.8867  2.3065
14276TIP3   OH264318   4.624   4.073  13.023 -0.7202 -0.0262 -0.4806
14276TIP3    H164319   4.637   4.040  13.111 -1.9686 -0.5551 -0.4690
14276TIP3    H264320   4.612   4.167  13.034  1.7535  0.3429 -0.3977
14277TIP3   OH264321   4.683   6.607  16.721 -0.4042  0.3407  0.2569
14277TIP3    H164322   4.665   6.700  16.730  1.4756  0.7188  0.6310
14277TIP3    H264323   4.732   6.599  16.639 -0.1139 -0.2428  0.4764
14278TIP3   OH264324   4.191   2.609   5.916  0.0373  0.3492  0.1772
14278TIP3    H164325   4.126   2.672   5.885 -0.3643  0.7310  1.6935
14278TIP3    H264326   4.244   2.658   5.979  0.9909 -0.3005 -0.0941
14279TIP3   OH264327   3.200   5.602  11.353  0.1917 -0.3449 -0.0117
14279TIP3    H164328   3.173   5.513  11.379  1.3316 -0.2903  1.5233
14279TIP3    H264329   3.118   5.650  11.345 -0.4607 -1.5697 -1.0867
14280TIP3   OH264330   6.501   3.538  11.245  0.1999 -0.6817  0.2779
14280TIP3    H164331   6.407   3.532  11.226 -0.2208  1.8453  1.1637
14280TIP3    H264332   6.540   3.565  11.162 -0.7389  3.8066  1.0368
14281TIP3   OH264333   1.663   3.420  11.334  0.1160  0.3752 -0.1064
14281TIP3    H164334   1.568   3.426  11.330 -0.0212 -1.4437 -0.2771
14281TIP3    H264335   1.687   3.362  11.263  1.2822  0.1050  0.4828
14282TIP3   OH264336   6.140   0.338   2.183  0.4234 -0.0706 -0.4202
14282TIP3    H164337   6.092   0.360   2.263 -0.0363 -0.0308 -0.7072
14282TIP3    H264338   6.228   0.374   2.198 -0.3581  2.2740 -1.0017
14283TIP3   OH264339   1.366   4.334   0.185 -0.3809 -0.4898  0.5965
14283TIP3    H164340   1.275   4.325   0.156 -0.0586  1.1778 -1.1409
14283TIP3    H264341   1.417   4.307   0.109  0.5316  1.3001  0.5285
14284TIP3   OH264342   1.884   4.533   5.265 -0.5031  0.0559  0.1009
14284TIP3    H164343   1.830   4.590   5.320  0.5174  1.3434 -0.1762
14284TIP3    H264344   1.941   4.593   5.218  1.2185 -1.2630  0.4183
14285TIP3   OH264345   6.621   1.845  16.208  0.1688  0.1451  0.0233
14285TIP3    H164346   6.582   1.925  16.243  1.3054  0.4088  0.7133
14285TIP3    H264347   6.553   1.808  16.151 -1.6902 -0.1706  2.2858
14286TIP3   OH264348   3.386   1.471  15.580  0.2535  0.3139  0.0246
14286TIP3    H164349   3.440   1.523  15.640  1.7738  0.3398 -1.2882
14286TIP3    H264350   3.449   1.419  15.531 -0.8091  1.1482 -2.3514
14287TIP3   OH264351   1.403   0.928  16.623  0.1145 -0.1935  0.2599
14287TIP3    H164352   1.482   0.873  16.624  0.9067  0.5653 -3.5594
14287TIP3    H264353   1.332   0.868  16.600  0.3927 -0.2302 -0.5568
14288TIP3   OH264354   5.147   6.801  15.340 -0.0248 -0.2263  0.9683
14288TIP3    H164355   5.219   6.847  15.296 -1.8600  0.9784 -0.9915
14288TIP3    H264356   5.161   6.709  15.320  0.3055  0.1162 -0.4899
14289TIP3   OH264357   6.484   2.655  13.478 -0.1288  0.2764 -0.1359
14289TIP3    H164358   6.478   2.736  13.529  0.0642  0.5667 -0.5659
14289TIP3    H264359   6.408   2.604  13.505 -1.0393  1.2020 -0.8995
14290TIP3   OH264360   2.644   0.637  16.510 -0.3021  0.2385  0.5274
14290TIP3    H164361   2.683   0.592  16.435  0.9875 -1.0360  1.9012
14290TIP3    H264362   2.570   0.582  16.536 -0.8514  0.7660  0.1235
14291TIP3   OH264363   3.456   4.659   2.066  0.1130 -0.0503  0.7760
14291TIP3    H164364   3.398   4.617   2.129 -1.3272 -0.6501 -0.8909
14291TIP3    H264365   3.400   4.684   1.993  1.7680  0.3606 -0.4303
14292TIP3   OH264366   2.209   4.308  14.297 -0.2092  0.3187  0.1029
14292TIP3    H164367   2.216   4.368  14.223 -1.1128 -0.0629 -0.3097
14292TIP3    H264368   2.280   4.333  14.355 -0.8587  2.1098  0.1730
14293TIP3   OH264369   6.138   3.416  12.936  0.2550 -0.6006 -0.1366
14293TIP3    H164370   6.221   3.463  12.950  0.3904 -1.5328  2.7516
14293TIP3    H264371   6.120   3.428  12.843  2.7091  1.1404 -0.4970
14294TIP3   OH264372   6.679   6.583  11.323  0.3002 -0.3012  0.1322
14294TIP3    H164373   6.661   6.509  11.266 -0.0092  0.1329 -0.3408
14294TIP3    H264374   6.747   6.552  11.382  0.5650 -0.7830 -0.4187
14295TIP3   OH264375   2.079   4.242   3.289 -0.1051 -0.1252  0.1705
14295TIP3    H164376   2.060   4.335   3.281 -1.9576 -0.5620 -1.5406
14295TIP3    H264377   2.170   4.233   3.260 -0.0479  1.0886 -0.0679
14296TIP3   OH264378   4.960   1.999  16.460 -0.3074 -0.2571  0.3872
14296TIP3    H164379   4.985   1.926  16.518  0.4558  0.2952  0.7722
14296TIP3    H264380   4.984   2.077  16.510 -0.8608  0.2527 -0.1431
14297TIP3   OH264381   2.351   0.827   5.988 -0.0091 -0.7256  0.1452
14297TIP3    H164382   2.344   0.922   5.996  1.1261 -0.6148  0.0567
14297TIP3    H264383   2.419   0.803   6.051 -0.5593 -1.5301  0.4447
14298TIP3   OH264384   1.417   2.316   0.014 -0.0518 -0.7806  0.5315
14298TIP3    H164385   1.400   2.224  -0.008 -1.9536 -0.3753  0.1687
14298TIP3    H264386   1.351   2.337   0.081  2.3510 -0.5241  2.9941
14299TIP3   OH264387   4.351   5.930  11.340  0.6468  0.6310  0.2785
14299TIP3    H164388   4.273   5.950  11.392  0.6974  1.0213  0.2065
14299TIP3    H264389   4.318   5.882  11.265  0.2863  2.0433 -0.5064
14300TIP3   OH264390   5.761   0.794   3.653 -0.0278  0.0522 -0.1238
14300TIP3    H164391   5.667   0.782   3.647 -0.1029  0.6716 -0.2350
14300TIP3    H264392   5.775   0.834   3.739  0.3358 -1.8639  0.7734
14301TIP3   OH264393   2.867   2.515  13.314 -0.1632  0.0865 -0.1799
14301TIP3    H164394   2.841   2.575  13.245 -0.9840  0.7167  0.6507
14301TIP3    H264395   2.785   2.487  13.354  0.1557 -1.8653 -0.7319
14302TIP3   OH264396   2.416   5.594  14.133 -0.1340  0.5373 -0.1156
14302TIP3    H164397   2.321   5.596  14.144  0.0602  0.3805  1.9258
14302TIP3    H264398   2.432   5.646  14.054 -1.8687  1.0084 -0.1944
14303TIP3   OH264399   6.381   2.689  14.422  0.1868 -0.0205  0.4342
14303TIP3    H164400   6.408   2.604  14.389 -0.1803  0.7446 -1.9803
14303TIP3    H264401   6.397   2.750  14.350 -0.5539  1.7855  1.7146
14304TIP3   OH264402   1.846   5.157   2.599 -0.3877  0.3953 -0.5194
14304TIP3    H164403   1.826   5.172   2.506  0.6853  0.6767 -0.7149
14304TIP3    H264404   1.941   5.145   2.602 -0.0756  2.6520  0.8279
14305TIP3   OH264405   0.013   0.518   4.838  0.0296 -0.0581  0.3644
14305TIP3    H164406   0.024   0.474   4.923  0.1157  0.7725  0.7896
14305TIP3    H264407  -0.080   0.541   4.835 -0.0442 -0.3782  0.0781
14306TIP3   OH264408   4.176   6.654  16.413 -0.3299  0.0116  0.0357
14306TIP3    H164409   4.108   6.621  16.354 -0.1695  0.4527 -0.3977
14306TIP3    H264410   4.159   6.748  16.419 -0.1190  0.0268  0.3992
14307TIP3   OH264411   4.830   4.712   4.529 -0.3449  0.1200  0.2527
14307TIP3    H164412   4.840   4.772   4.455  3.2757  1.5633  1.6976
14307TIP3    H264413   4.805   4.767   4.602 -1.3130 -0.8921  0.7238
14308TIP3   OH264414   6.450   3.210   3.627 -0.8064 -0.0042 -0.3977
14308TIP3    H164415   6.487   3.146   3.688 -0.0432  0.4444 -0.3715
14308TIP3    H264416   6.526   3.257   3.593 -1.2323 -0.1282 -1.5700
14309TIP3   OH264417   2.634   1.469   3.744  0.0911  0.2372  0.3167
14309TIP3    H164418   2.550   1.424   3.737 -0.6004  0.8278  3.3933
14309TIP3    H264419   2.619   1.539   3.807  2.5823  1.1917 -0.0293
14310TIP3   OH264420   2.387   4.074  12.334  0.1742 -0.1669  0.1505
14310TIP3    H164421   2.375   4.022  12.254 -0.8189  0.5150 -0.1572
14310TIP3    H264422   2.307   4.060  12.384 -0.6367  1.9694 -0.4736
14311TIP3   OH264423   1.175   1.962  15.756  0.2212 -0.3819  0.5512
14311TIP3    H164424   1.161   1.875  15.719  0.0431 -0.5774  1.0766
14311TIP3    H264425   1.215   2.012  15.684  0.8763 -1.0623  0.4291
14312TIP3   OH264426   5.152   5.542   2.408 -0.4583 -0.4736  0.1023
14312TIP3    H164427   5.201   5.597   2.348  0.4529 -0.6358  0.6838
14312TIP3    H264428   5.075   5.514   2.358  0.6635 -1.2382 -1.2562
14313TIP3   OH264429   6.200   3.014   4.113  0.2237  0.3752 -0.4541
14313TIP3    H164430   6.221   2.940   4.170  2.4197 -0.3023 -1.9991
14313TIP3    H264431   6.268   3.079   4.132  0.7377  0.3084 -1.9331
14314TIP3   OH264432   1.827   1.268  13.887 -0.3538  0.2986  0.3106
14314TIP3    H164433   1.831   1.267  13.791 -0.2807 -0.2182  0.3157
14314TIP3    H264434   1.808   1.359  13.909  0.3979  0.5761 -0.1629
14315TIP3   OH264435   1.963   0.297   2.892 -0.3067 -0.4146  0.4270
14315TIP3    H164436   2.049   0.255   2.891  0.8021  1.7122 -0.6208
14315TIP3    H264437   1.909   0.242   2.835  0.5034 -1.4809  0.6512
14316TIP3   OH264438   4.965   5.570  15.772  0.0950 -0.0933  0.0698
14316TIP3    H164439   4.997   5.485  15.742 -1.3107 -0.3206 -0.8588
14316TIP3    H264440   5.043   5.613  15.809  1.4156 -0.7687 -1.7651
14317TIP3   OH264441   5.148   4.218   3.130  0.8402 -0.0659  0.1759
14317TIP3    H164442   5.096   4.170   3.065  0.2783  2.4819 -1.4197
14317TIP3    H264443   5.180   4.294   3.082 -0.0068  2.2079  2.9800
14318TIP3   OH264444   5.245   1.969  13.450 -0.0466 -0.5610 -0.3567
14318TIP3    H164445   5.228   2.049  13.400  0.6649  0.9494  1.7060
14318TIP3    H264446   5.335   1.945  13.426 -0.2101 -0.6606 -0.8733
14319TIP3   OH264447   3.051   3.139  13.254 -0.0168  0.2240  0.2618
14319TIP3    H164448   2.981   3.157  13.191 -0.3482 -0.4878  0.4258
14319TIP3    H264449   3.044   3.209  13.319 -2.3885 -1.3574  1.8474
14320TIP3   OH264450   4.226   2.601  11.934 -0.2032  0.0898 -0.0877
14320TIP3    H164451   4.150   2.564  11.888  0.9238 -0.5172 -1.5233
14320TIP3    H264452   4.205   2.694  11.944 -0.4526  0.2689 -1.9473
14321TIP3   OH264453   1.433   5.011  16.385  0.4151  0.5926  0.0411
14321TIP3    H164454   1.364   4.989  16.322  1.4038 -1.3300 -0.4582
14321TIP3    H264455   1.514   5.002  16.335  1.0952  2.0059  0.8403
14322TIP3   OH264456   0.438   2.493   3.500  0.2301  0.1551  0.3464
14322TIP3    H164457   0.370   2.433   3.468 -1.2503  1.9837 -0.1289
14322TIP3    H264458   0.436   2.482   3.595  1.7302 -2.2762  0.1833
14323TIP3   OH264459   1.959   5.357   6.278  0.0249  0.5072 -0.4134
14323TIP3    H164460   2.020   5.293   6.316 -1.3936 -1.4870 -1.3494
14323TIP3    H264461   2.000   5.383   6.195 -0.9551 -1.8917 -1.7278
14324TIP3   OH264462   1.637   5.841  11.727 -0.2050 -0.3416  0.2185
14324TIP3    H164463   1.609   5.931  11.739 -0.1606 -0.2004 -0.6854
14324TIP3    H264464   1.569   5.802  11.672  0.1254 -0.6700  0.0403
14325TIP3   OH264465   5.772   2.128  15.746  0.1161  0.0747 -0.2476
14325TIP3    H164466   5.797   2.072  15.819 -0.2354  2.1502  1.5939
14325TIP3    H264467   5.692   2.088  15.712  0.3382 -1.0094  0.4460
14326TIP3   OH264468   5.635   4.239  15.212  0.6982 -0.0157 -0.5258
14326TIP3    H164469   5.647   4.279  15.127  1.3904  2.5851  0.7042
14326TIP3    H264470   5.723   4.224  15.245  0.4921  1.0886  0.6097
14327TIP3   OH264471   4.493   4.374  15.152 -0.0173  0.2760 -0.8042
14327TIP3    H164472   4.416   4.335  15.192  0.4338 -0.2864 -0.4788
14327TIP3    H264473   4.567   4.324  15.187  0.7926  2.8047  1.4455
14328TIP3   OH264474   6.197   4.749  12.071  0.0312 -0.8378  0.3712
14328TIP3    H164475   6.181   4.686  12.141 -2.8219 -0.3939  0.2457
14328TIP3    H264476   6.175   4.834  12.110  2.2254 -0.0790  0.0573
14329TIP3   OH264477   1.015   0.426   0.891  0.5244 -0.2399 -0.3357
14329TIP3    H164478   1.088   0.385   0.937 -0.0347 -0.7433  0.1138
14329TIP3    H264479   0.989   0.498   0.948  0.1637 -0.5462 -0.1111
14330TIP3   OH264480   5.796   3.798  12.894 -0.7177  0.4174  0.1946
14330TIP3    H164481   5.809   3.714  12.851 -3.2339 -0.1496  0.4171
14330TIP3    H264482   5.877   3.846  12.878  0.2763 -1.5597 -1.0214
14331TIP3   OH264483   1.903   4.047  13.298  0.4975 -0.0001  0.2241
14331TIP3    H164484   1.830   3.988  13.317  1.1375 -0.4734  1.3125
14331TIP3    H264485   1.862   4.127  13.266 -0.3789 -1.1370 -1.6652
14332TIP3   OH264486   3.786   4.777  16.537 -0.1230  0.1089  0.0212
14332TIP3    H164487   3.705   4.826  16.520  0.6273  1.2912 -0.2477
14332TIP3    H264488   3.827   4.823  16.610 -0.5792 -1.6085  1.4463
14333TIP3   OH264489   4.159   5.041  12.067 -0.0703  1.0003 -0.2494
14333TIP3    H164490   4.168   4.951  12.100  2.0172  0.6707 -1.5077
14333TIP3    H264491   4.067   5.048  12.043 -0.1681 -1.0515 -0.6894
14334TIP3   OH264492   2.434   5.039  16.001  0.1211 -0.1504 -0.3908
14334TIP3    H164493   2.455   4.953  15.964  0.3658 -0.2096 -0.1212
14334TIP3    H264494   2.356   5.067  15.954  0.0209 -0.5373 -0.4569
14335TIP3   OH264495   3.280   4.672  15.389  0.2626 -0.0073  0.7320
14335TIP3    H164496   3.216   4.657  15.458  1.2238 -3.2890  1.0402
14335TIP3    H264497   3.322   4.755  15.413 -1.9684  0.8593  1.9515
14336TIP3   OH264498   5.173   3.787   2.346  0.5399  0.2969  0.5478
14336TIP3    H164499   5.254   3.795   2.294  2.1526 -2.2093  2.4220
14336TIP3    H264500   5.200   3.807   2.435 -1.3484  1.0712  0.9724
14337TIP3   OH264501   4.565   0.294  15.383 -0.5998  0.2531  0.2794
14337TIP3    H164502   4.552   0.222  15.445 -1.7616 -0.5916 -0.8893
14337TIP3    H264503   4.481   0.338  15.379 -0.1968  1.0307  0.1875
14338TIP3   OH264504   4.318   6.007   4.953  0.4132  0.6290 -0.1448
14338TIP3    H164505   4.313   6.101   4.937  1.5703  0.6753 -0.3257
14338TIP3    H264506   4.312   5.967   4.866  1.8363  0.6409 -0.2633
14339TIP3   OH264507   0.459   5.975  16.244 -0.3059  0.0217  0.0928
14339TIP3    H164508   0.396   5.904  16.257 -1.3737  0.6358 -1.3879
14339TIP3    H264509   0.511   5.976  16.324 -1.2451 -1.4417  0.7706
14340TIP3   OH264510   3.835   2.586   1.255  0.1862 -0.0315  0.0551
14340TIP3    H164511   3.786   2.523   1.201  0.4505 -1.6571  1.6289
14340TIP3    H264512   3.829   2.551   1.344  3.2134  0.3361  0.4925
14341TIP3   OH264513   4.260   3.953  12.078  0.3527  0.0706  0.1411
14341TIP3    H164514   4.225   4.032  12.120  0.5894  0.6068 -0.6595
14341TIP3    H264515   4.316   3.913  12.145 -0.9424 -0.2387  1.0819
14342TIP3   OH264516   4.339   4.999  12.561 -0.2845  0.5206 -0.3848
14342TIP3    H164517   4.413   4.994  12.622  0.0341 -0.8680 -0.8477
14342TIP3    H264518   4.264   5.024  12.615  0.1948  0.2975  0.3992
14343TIP3   OH264519   6.416   5.461  14.477 -0.0639 -0.6222  0.1542
14343TIP3    H164520   6.459   5.399  14.418 -0.4899 -0.6492 -0.1299
14343TIP3    H264521   6.346   5.500  14.425 -0.8948 -1.1534  0.8546
14344TIP3   OH264522   1.677   3.320  11.865 -0.1619 -0.0818 -0.0506
14344TIP3    H164523   1.684   3.368  11.783  1.2450 -0.0311  0.0796
14344TIP3    H264524   1.687   3.386  11.933  0.7972 -0.4003  0.1355
14345TIP3   OH264525   6.304   0.589  13.226  0.1495 -0.1725  0.7397
14345TIP3    H164526   6.286   0.615  13.316 -2.3699 -0.3080  0.3394
14345TIP3    H264527   6.396   0.562  13.227  0.4466  0.7123  3.0355
14346TIP3   OH264528   2.700   4.896   6.195  0.6790  0.0954  0.0958
14346TIP3    H164529   2.682   4.897   6.289  0.2331  0.0742  0.0164
14346TIP3    H264530   2.636   4.958   6.159 -0.9457 -1.7991 -0.4859
14347TIP3   OH264531   5.378   4.533  12.871  0.4286 -0.3703  0.7882
14347TIP3    H164532   5.463   4.545  12.828 -0.9973  4.0074 -1.3609
14347TIP3    H264533   5.374   4.604  12.935 -2.2061  0.6926 -0.4139
14348TIP3   OH264534   0.993   1.354   5.991 -0.2033 -0.1725 -0.3612
14348TIP3    H164535   1.065   1.417   5.998  0.9306 -1.5229  0.9304
14348TIP3    H264536   0.997   1.305   6.073 -2.2273 -0.7143 -0.5440
14349TIP3   OH264537   6.462   3.178  12.676 -0.2927 -0.1109 -0.4314
14349TIP3    H164538   6.530   3.110  12.674 -0.3922 -0.1959 -1.5825
14349TIP3    H264539   6.435   3.187  12.585 -1.3276  0.4349 -0.0819
14350TIP3   OH264540   3.132   0.491  11.214 -0.8010  0.7194 -0.0502
14350TIP3    H164541   3.173   0.574  11.238 -2.8713  2.2001 -1.3239
14350TIP3    H264542   3.199   0.444  11.164  0.9495  0.8355  1.9902
14351TIP3   OH264543   6.520   5.485  11.025  0.4293  0.2675  0.4864
14351TIP3    H164544   6.548   5.536  10.948  1.1629  1.4315  1.4877
14351TIP3    H264545   6.429   5.510  11.038  0.3467  0.1831  0.0869
14352TIP3   OH264546   1.399   5.756  17.040  0.0214  0.2465  0.7529
14352TIP3    H164547   1.479   5.764  16.987 -0.6960  0.6635 -0.2984
14352TIP3    H264548   1.342   5.699  16.988  0.2573 -1.5244  2.2905
14353TIP3   OH264549   1.617   1.081  16.032  0.2984 -0.9385  0.1998
14353TIP3    H164550   1.567   1.066  16.112 -0.6450  0.1951 -0.1500
14353TIP3    H264551   1.580   1.161  15.995  1.4201 -0.8671 -0.8315
14354TIP3   OH264552   5.521   5.397  16.178 -0.4987 -0.2820  0.3179
14354TIP3    H164553   5.442   5.448  16.191  0.3097  1.1665 -0.1524
14354TIP3    H264554   5.591   5.451  16.214  0.1454 -2.1942  2.1525
14355TIP3   OH264555   1.607   2.039   3.370  0.3341  0.7725  0.5166
14355TIP3    H164556   1.696   2.018   3.343 -0.1978 -0.0717 -0.6730
14355TIP3    H264557   1.588   1.979   3.441  0.2608  0.0225 -0.1240
14356TIP3   OH264558   6.159   3.458   3.097 -0.3184  0.0431 -0.0171
14356TIP3    H164559   6.197   3.477   3.011 -1.8772  0.6167 -0.6195
14356TIP3    H264560   6.223   3.493   3.160  1.1036 -0.8719 -0.9035
14357TIP3   OH264561   6.185   1.691  10.836  0.6421  0.0849  0.2693
14357TIP3    H164562   6.222   1.696  10.748  0.1199 -4.6170 -0.4658
14357TIP3    H264563   6.259   1.667  10.891  0.4420  0.3099  0.6397
14358TIP3   OH264564   5.207   2.748  12.976 -0.7544 -0.4171 -0.5517
14358TIP3    H164565   5.206   2.700  12.894  0.6622 -0.9740 -0.2818
14358TIP3    H264566   5.163   2.690  13.038  0.2441 -1.0483 -0.4088
14359TIP3   OH264567   5.123   6.775   4.478 -0.1892 -0.1050 -0.2987
14359TIP3    H164568   5.175   6.801   4.402 -1.7218  1.7928 -0.7735
14359TIP3    H264569   5.061   6.711   4.444 -0.7467  0.5986 -0.6344
14360TIP3   OH264570   3.438   2.057   3.731  0.6607  0.0094  0.2295
14360TIP3    H164571   3.377   2.011   3.788 -0.4084 -2.3963 -2.5970
14360TIP3    H264572   3.515   2.000   3.727  0.3806 -0.2949 -1.3201
14361TIP3   OH264573   2.507   4.491   0.337  0.0028 -0.3723  0.1863
14361TIP3    H164574   2.552   4.575   0.345  1.9597 -1.3471 -0.0139
14361TIP3    H264575   2.445   4.490   0.411 -2.4068  2.5098 -1.5924
14362TIP3   OH264576   2.535   1.147  16.657  0.3755 -0.3243  0.9651
14362TIP3    H164577   2.499   1.060  16.674 -1.6131  0.3683  0.5650
14362TIP3    H264578   2.566   1.177  16.743  0.4633 -1.1660  1.2331
14363TIP3   OH264579   3.534   6.562   5.657 -0.3239  0.4423 -0.5698
14363TIP3    H164580   3.596   6.612   5.710 -0.5370  0.7521 -0.6111
14363TIP3    H264581   3.448   6.599   5.679 -0.6193 -0.7497  0.3579
14364TIP3   OH264582   2.115   0.015  12.414  0.1814  0.2753 -0.0878
14364TIP3    H164583   2.084   0.102  12.442 -0.3933 -0.1316  0.5689
14364TIP3    H264584   2.066  -0.002  12.333 -2.5568 -0.9927  1.6905
14365TIP3   OH264585   4.507   5.840   0.745 -0.4007 -0.2263 -0.4725
14365TIP3    H164586   4.458   5.878   0.672 -2.5344 -1.6541  0.1071
14365TIP3    H264587   4.535   5.754   0.712 -0.1132 -0.2843 -0.0834
14366TIP3   OH264588   6.283   3.420   2.354  0.2244  0.3546 -0.7862
14366TIP3    H164589   6.316   3.499   2.312  1.2480  0.5434  0.3242
14366TIP3    H264590   6.357   3.359   2.350 -0.1642 -0.1343 -0.5781
14367TIP3   OH264591   1.510   4.862   1.646 -0.1294  0.2355 -0.2013
14367TIP3    H164592   1.595   4.836   1.610 -0.0614  0.2183 -0.0258
14367TIP3    H264593   1.516   4.957   1.654 -0.0640  0.2169 -0.0270
14368TIP3   OH264594   4.974   2.553  11.109 -0.1154  0.0069 -0.6454
14368TIP3    H164595   5.022   2.573  11.029  0.0729  1.9372 -0.1108
14368TIP3    H264596   4.892   2.602  11.101 -0.5969 -0.7051 -0.1586
14369TIP3   OH264597   5.265   4.005   3.285  0.1295  0.0302  0.1194
14369TIP3    H164598   5.265   3.999   3.190  3.4686  0.0926 -0.0178
14369TIP3    H264599   5.276   4.098   3.304  1.3396 -0.1703  0.4744
14370TIP3   OH264600   0.496   0.315   5.234  0.0474  0.5146 -0.5082
14370TIP3    H164601   0.435   0.261   5.285  0.7812 -0.5904 -0.7639
14370TIP3    H264602   0.442   0.353   5.165 -0.7202  1.0773  0.3804
14371TIP3   OH264603   3.138   5.020  11.792  0.0464  0.5107  0.1690
14371TIP3    H164604   3.059   4.974  11.763  0.9130 -0.6430 -0.3999
14371TIP3    H264605   3.105   5.101  11.832 -1.4664 -0.3281  0.6766
14372TIP3   OH264606   0.535   3.062  15.782  0.1254  0.3304  0.0691
14372TIP3    H164607   0.563   2.980  15.823 -0.7739  1.0867  2.3365
14372TIP3    H264608   0.541   3.044  15.688  1.9524 -1.6266  0.4543
14373TIP3   OH264609   4.326   3.851   0.830  0.2658  0.5850 -0.0174
14373TIP3    H164610   4.277   3.840   0.748  1.1820  1.4559 -0.7053
14373TIP3    H264611   4.300   3.776   0.883 -0.1995 -0.1094 -1.1772
14374TIP3   OH264612   0.751   3.994  10.956 -0.6679 -0.2027  0.1260
14374TIP3    H164613   0.816   3.924  10.950 -1.1318 -0.5668 -0.9300
14374TIP3    H264614   0.669   3.952  10.930 -1.0380  0.6281 -0.0662
14375TIP3   OH264615   1.136   0.504   2.459  0.3044 -0.0262 -0.2541
14375TIP3    H164616   1.067   0.447   2.425  0.3615 -1.5612  1.9570
14375TIP3    H264617   1.208   0.493   2.398 -1.0517  0.9008 -2.1060
14376TIP3   OH264618   0.323   0.655  13.664 -0.5241 -0.0400  0.1284
14376TIP3    H164619   0.330   0.591  13.593  0.1266 -0.5024  0.5917
14376TIP3    H264620   0.411   0.693  13.670 -0.7857  0.5791  0.1585
14377TIP3   OH264621   3.674   2.042   5.111  0.0215  0.4330 -0.0312
14377TIP3    H164622   3.625   2.019   5.032 -0.8821  0.2108  0.5710
14377TIP3    H264623   3.754   2.083   5.079 -0.7296  1.1671 -1.0437
14378TIP3   OH264624   2.866   1.974   1.327  0.4925 -0.1406 -0.2908
14378TIP3    H164625   2.944   1.927   1.295  0.0534 -1.0928 -0.0227
14378TIP3    H264626   2.865   2.056   1.278  1.8169  0.0144 -0.1130
14379TIP3   OH264627   0.440   3.513   4.544 -0.2974  0.3142 -0.0482
14379TIP3    H164628   0.392   3.565   4.609  0.9129  0.6030  0.6533
14379TIP3    H264629   0.408   3.545   4.460 -0.6745  1.1298  0.3899
14380TIP3   OH264630   2.357   2.246  15.430  0.2716  0.1677  0.3752
14380TIP3    H164631   2.300   2.207  15.364  0.9454 -2.0204  0.9939
14380TIP3    H264632   2.311   2.232  15.513  1.3000 -0.9766  0.7985
14381TIP3   OH264633   6.045   6.408  13.255 -0.1979 -0.5263 -0.1315
14381TIP3    H164634   6.024   6.491  13.298 -0.3245 -0.8685  0.4912
14381TIP3    H264635   6.087   6.356  13.324  0.2793 -0.8176 -0.6366
14382TIP3   OH264636   3.893   4.042  14.599 -0.4065  0.2954  0.1092
14382TIP3    H164637   3.982   4.077  14.585  0.3889 -1.0587  1.5542
14382TIP3    H264638   3.892   3.960  14.549 -0.3862 -0.3411  1.1340
14383TIP3   OH264639   2.194   4.176  12.530 -0.4379 -0.5441 -0.0532
14383TIP3    H164640   2.102   4.150  12.542 -0.8042  0.9889  0.6488
14383TIP3    H264641   2.235   4.159  12.615 -0.6990  1.1339  0.4378
14384TIP3   OH264642   3.886   0.821   0.608  0.1906  0.0528  0.3705
14384TIP3    H164643   3.821   0.860   0.665 -0.5944  2.1182 -1.7480
14384TIP3    H264644   3.970   0.856   0.638 -0.4145  2.9265 -0.9252
14385TIP3   OH264645   1.781   3.117  16.699  0.6110  0.0824  0.9412
14385TIP3    H164646   1.713   3.116  16.766  1.2336 -0.3038  1.5744
14385TIP3    H264647   1.838   3.190  16.724  0.6846  0.1231  0.6611
14386TIP3   OH264648   0.710   5.240  14.870  0.3911 -1.0019 -0.0215
14386TIP3    H164649   0.639   5.286  14.916 -1.6684 -1.2238 -2.6648
14386TIP3    H264650   0.790   5.274  14.908 -1.0542  2.9220 -0.0315
14387TIP3   OH264651   3.536   0.376   4.914  0.1491 -0.1803  0.4781
14387TIP3    H164652   3.565   0.295   4.955 -0.8198 -0.8040 -0.0284
14387TIP3    H264653   3.485   0.348   4.838  0.1379  0.9084  0.0616
14388TIP3   OH264654   6.465   6.559  16.059 -0.7525  0.0175  0.3355
14388TIP3    H164655   6.425   6.525  16.139 -0.4984 -2.3231 -0.4530
14388TIP3    H264656   6.544   6.506  16.047  0.3630  1.7506 -0.3770
14389TIP3   OH264657   5.586   1.445   2.224  0.1135  0.3334 -0.0846
14389TIP3    H164658   5.543   1.420   2.142  1.3006  1.8189 -1.2273
14389TIP3    H264659   5.546   1.528   2.248 -1.0121 -0.6163  1.5064
14390TIP3   OH264660   1.163   5.133  11.876 -0.2902  0.0863  0.6106
14390TIP3    H164661   1.126   5.066  11.819  0.8042  0.8355 -1.0604
14390TIP3    H264662   1.133   5.216  11.838 -0.0249  0.5965  1.4784
14391TIP3   OH264663   1.309   2.655  11.881  0.2819  0.0577  0.4868
14391TIP3    H164664   1.231   2.613  11.917 -0.8097  1.5420 -0.0577
14391TIP3    H264665   1.335   2.599  11.809 -2.5428  1.3797 -1.7556
14392TIP3   OH264666   4.439   5.779  13.607  0.0809 -0.0214  0.2068
14392TIP3    H164667   4.359   5.729  13.592  0.2030 -0.6081  1.3438
14392TIP3    H264668   4.488   5.772  13.525 -1.0085  0.3361 -0.4952
14393TIP3   OH264669   3.497   6.184  16.419 -0.1292  0.3690  0.5931
14393TIP3    H164670   3.406   6.173  16.450 -0.7925  2.5007 -0.4053
14393TIP3    H264671   3.537   6.242  16.484 -0.2881  1.5183 -0.3079
14394TIP3   OH264672   0.804   5.956  15.518  0.1062  0.1431 -0.2613
14394TIP3    H164673   0.876   6.009  15.553 -0.7802  0.2713  1.4863
14394TIP3    H264674   0.732   5.970  15.580  0.0905 -3.7880  0.8421
14395TIP3   OH264675   3.036   3.522   5.398 -0.7611 -0.3313  0.1131
14395TIP3    H164676   3.001   3.522   5.487  0.5788  0.1515  0.6765
14395TIP3    H264677   3.131   3.516   5.410 -0.4505  1.1042 -1.2210
14396TIP3   OH264678   5.854   1.401  16.278 -0.5323 -0.2865  0.5394
14396TIP3    H164679   5.763   1.418  16.304 -0.0233  1.5878  1.2487
14396TIP3    H264680   5.851   1.399  16.182 -1.2780  0.0212  0.5486
14397TIP3   OH264681   2.141   6.732   4.260  0.2278 -0.1064 -0.5615
14397TIP3    H164682   2.171   6.677   4.187 -2.1101  0.9709 -2.4783
14397TIP3    H264683   2.130   6.670   4.333 -1.0439 -2.0154 -2.2563
14398TIP3   OH264684   1.336   6.726   4.910  0.1523 -0.2204  0.0087
14398TIP3    H164685   1.405   6.663   4.890  0.7290  0.2986  0.3559
14398TIP3    H264686   1.300   6.696   4.993  1.4158  0.7280  0.9293
14399TIP3   OH264687   4.581   0.839   3.480 -0.1643 -0.8345  1.1752
14399TIP3    H164688   4.592   0.796   3.395 -0.1321  1.9547 -0.3510
14399TIP3    H264689   4.527   0.778   3.531  1.7463 -3.6584  0.0579
14400TIP3   OH264690   6.586   6.015  12.986 -0.5701  0.5184  0.3933
14400TIP3    H164691   6.538   6.092  13.017 -1.8328  0.4412 -1.2425
14400TIP3    H264692   6.557   5.944  13.044 -0.8487  0.8791  0.7034
14401TIP3   OH264693   2.904   1.076   3.063  0.2785  0.4402 -0.4297
14401TIP3    H164694   2.882   0.998   3.113  0.1187  0.0330 -1.1157
14401TIP3    H264695   2.951   1.132   3.125 -0.1108  0.0492  0.2260
14402TIP3   OH264696   2.104   6.777  14.273  0.8367 -0.2745  0.0135
14402TIP3    H164697   2.141   6.818  14.351 -2.1462  0.2770  1.2918
14402TIP3    H264698   2.056   6.701  14.306 -1.0305  0.3232 -1.1216
14403TIP3   OH264699   2.918   3.356   5.830  0.2650 -0.3676 -0.0103
14403TIP3    H164700   2.968   3.292   5.881  1.5945 -0.5507 -1.4647
14403TIP3    H264701   2.848   3.305   5.790  0.9084 -0.7856 -0.6150
14404TIP3   OH264702   0.095   2.600   2.128  0.4720 -0.1134  0.7519
14404TIP3    H164703   0.045   2.613   2.209  0.3920 -1.0691  0.8650
14404TIP3    H264704   0.066   2.515   2.096 -1.8982  1.5323 -1.9806
14405TIP3   OH264705   3.524   6.337  13.681 -0.3670  0.2325  0.2051
14405TIP3    H164706   3.499   6.268  13.620  0.1707 -0.2412  0.5104
14405TIP3    H264707   3.613   6.361  13.655 -0.3316  0.3920  0.4724
14406TIP3   OH264708   5.807   4.068   6.000  0.4476  0.2194 -0.3514
14406TIP3    H164709   5.800   4.157   6.036 -0.9419  0.5780 -1.4515
14406TIP3    H264710   5.758   4.013   6.061  0.1638  0.4290 -0.3917
14407TIP3   OH264711   0.420   2.291   3.795 -0.5067 -0.5526  0.4287
14407TIP3    H164712   0.408   2.196   3.801 -0.2158 -0.6548 -0.5417
14407TIP3    H264713   0.337   2.323   3.761 -0.6273 -0.4428  0.8162
14408TIP3   OH264714   5.423   1.069   1.248 -0.5409 -0.0986  0.6692
14408TIP3    H164715   5.498   1.009   1.258 -1.3182 -0.7944  2.8380
14408TIP3    H264716   5.444   1.142   1.306 -0.8317  0.4437  0.0869
14409TIP3   OH264717   1.581   3.139  10.719 -0.3450  0.0403 -0.4768
14409TIP3    H164718   1.566   3.186  10.637 -2.1351  0.0918 -0.1630
14409TIP3    H264719   1.503   3.158  10.771  1.1746  0.7962  1.6433
14410TIP3   OH264720   0.060   0.435  16.884  0.6654  0.2931  0.4469
14410TIP3    H164721   0.122   0.496  16.922 -0.3198  1.0961  0.8292
14410TIP3    H264722   0.073   0.353  16.932  1.1779  0.5551  0.7589
14411TIP3   OH264723   1.720   3.563  13.255 -0.2523  0.4891  0.2642
14411TIP3    H164724   1.686   3.495  13.313  1.1559 -0.4839 -0.0023
14411TIP3    H264725   1.645   3.620  13.239 -0.6882  0.9011  3.1363
14412TIP3   OH264726   1.824   5.971   1.471  0.0358  0.0437  0.5684
14412TIP3    H164727   1.757   5.948   1.536 -1.1329  1.9910  0.1315
14412TIP3    H264728   1.781   5.956   1.386  0.5623  0.2256  0.2633
14413TIP3   OH264729   6.446   4.421  12.763 -0.4864  0.0110  0.2140
14413TIP3    H164730   6.536   4.426  12.797 -0.4692 -1.5914  0.5130
14413TIP3    H264731   6.395   4.386  12.836 -1.1459 -0.1118 -0.2992
14414TIP3   OH264732   2.342   3.221  14.805 -0.3365  0.1431  0.0822
14414TIP3    H164733   2.415   3.283  14.817  0.3582 -0.8820  1.5610
14414TIP3    H264734   2.265   3.269  14.835  0.3709 -0.0290  2.4038
14415TIP3   OH264735   5.671   1.464   5.952 -0.0222 -0.4272  0.4440
14415TIP3    H164736   5.730   1.487   6.024 -1.4060 -0.2919  1.5835
14415TIP3    H264737   5.593   1.428   5.995 -1.5210  1.0086 -0.8857
14416TIP3   OH264738   0.565   0.436   4.158 -0.0734 -0.1439  0.1972
14416TIP3    H164739   0.495   0.435   4.223  0.1361  1.5851  0.5127
14416TIP3    H264740   0.543   0.510   4.101  0.5093 -0.7459 -0.8385
14417TIP3   OH264741   5.851   1.078  12.316  0.1858  0.0508  0.1696
14417TIP3    H164742   5.861   1.003  12.257  1.0778 -0.5790  1.0916
14417TIP3    H264743   5.769   1.120  12.288 -0.4618 -1.4041 -0.2150
14418TIP3   OH264744   3.026   6.701   4.402 -0.1773 -0.0255 -0.2666
14418TIP3    H164745   3.014   6.610   4.376  1.7603  0.0080 -1.5474
14418TIP3    H264746   3.079   6.697   4.481 -0.7492 -0.0147  0.1204
14419TIP3   OH264747   0.802   4.679  16.071  0.5735 -0.5125 -0.1116
14419TIP3    H164748   0.801   4.630  15.988  2.0498 -0.4088 -0.2276
14419TIP3    H264749   0.803   4.771  16.045  1.1721 -0.4809  0.0080
14420TIP3   OH264750   1.117   1.114  15.027 -0.4918  0.0231  0.5140
14420TIP3    H164751   1.186   1.155  15.078 -0.3928 -1.2728  1.4878
14420TIP3    H264752   1.070   1.187  14.986  1.6211  0.9196 -0.4435
14421TIP3   OH264753   0.203   2.877   2.912  0.1419 -0.1543  0.8841
14421TIP3    H164754   0.255   2.801   2.884  0.1703  0.1033  0.2299
14421TIP3    H264755   0.184   2.924   2.831 -1.3263 -0.3779  1.0807
14422TIP3   OH264756   6.604   5.815   2.901 -0.1682  0.2322  0.1337
14422TIP3    H164757   6.539   5.768   2.953 -0.1468 -1.1561 -0.9993
14422TIP3    H264758   6.553   5.874   2.846 -0.3044  0.5990  0.6508
14423TIP3   OH264759   3.981   0.023   2.570 -0.6705  0.6348  0.7761
14423TIP3    H164760   3.915   0.069   2.621 -1.6784 -1.3708  1.4108
14423TIP3    H264761   4.057   0.016   2.628 -1.1673 -0.0400  1.3760
14424TIP3   OH264762   2.837   2.058   1.950  0.3486  0.2057  0.1636
14424TIP3    H164763   2.851   2.073   2.043  0.7366 -0.5225  0.2323
14424TIP3    H264764   2.886   1.978   1.931 -0.0985  0.0960 -0.5691
14425TIP3   OH264765   2.058   5.393   2.242 -0.2595  0.1846  0.2576
14425TIP3    H164766   1.991   5.450   2.280  0.5115  1.4973 -0.3022
14425TIP3    H264767   2.133   5.402   2.301 -0.4073 -0.9531  0.6465
14426TIP3   OH264768   4.483   4.782  11.408  0.4714  0.4388 -0.2458
14426TIP3    H164769   4.411   4.759  11.350  0.3002  0.5097 -0.0618
14426TIP3    H264770   4.464   4.872  11.435 -0.0737  0.0132  0.8509
14427TIP3   OH264771   0.712   4.324  17.186 -0.1940 -0.3413  0.5736
14427TIP3    H164772   0.675   4.387  17.248 -0.9220 -0.3864  0.1902
14427TIP3    H264773   0.798   4.361  17.163 -0.8460  0.8178 -0.0960
14428TIP3   OH264774   5.556   0.638   4.451  0.5973  0.1592 -0.2650
14428TIP3    H164775   5.560   0.597   4.365 -0.8619 -0.3873 -0.1005
14428TIP3    H264776   5.642   0.621   4.489  1.3213  0.5326 -1.6510
14429TIP3   OH264777   4.469   3.874  14.296  0.0489 -0.5999  0.1120
14429TIP3    H164778   4.503   3.952  14.340 -1.3512  0.9465 -1.3911
14429TIP3    H264779   4.432   3.821  14.366  2.9048 -1.0205  1.4396
14430TIP3   OH264780   3.623   1.416   3.413 -0.1660  0.2199  0.2302
14430TIP3    H164781   3.553   1.396   3.475 -2.2707  0.5193 -1.9030
14430TIP3    H264782   3.657   1.501   3.442  1.3362 -1.1487  2.9069
14431TIP3   OH264783   1.282   0.025  14.340  0.1522 -0.5531  0.4977
14431TIP3    H164784   1.366   0.018  14.296 -0.6068 -0.8490 -0.9483
14431TIP3    H264785   1.249  -0.064  14.346  0.7071 -0.6698  2.6911
14432TIP3   OH264786   2.525   2.496   3.261 -0.3660 -0.2957 -0.1918
14432TIP3    H164787   2.594   2.485   3.196 -0.5320  2.2838 -0.9172
14432TIP3    H264788   2.447   2.456   3.222 -0.4487  1.1771 -1.6418
14433TIP3   OH264789   5.762   3.203   5.649  0.4413 -0.3333 -0.0170
14433TIP3    H164790   5.823   3.265   5.689 -2.0308  1.6318  1.0150
14433TIP3    H264791   5.750   3.235   5.560 -0.4046  0.3978  0.3421
14434TIP3   OH264792   5.396   2.942   3.094 -0.5835 -0.3093  0.6713
14434TIP3    H164793   5.356   2.875   3.149 -0.4331 -0.8720  0.0964
14434TIP3    H264794   5.356   3.024   3.123 -1.4106 -0.7475  0.7758
14435TIP3   OH264795   5.087   3.669  17.127 -0.1736 -0.0567  0.2243
14435TIP3    H164796   5.000   3.644  17.093 -0.8028  1.0445  0.9622
14435TIP3    H264797   5.090   3.764  17.116  1.2988 -0.1567 -0.5543
14436TIP3   OH264798   2.712   0.741   5.161  0.2615  0.3324 -0.6263
14436TIP3    H164799   2.681   0.665   5.210  0.3419  0.7894  0.1540
14436TIP3    H264800   2.686   0.816   5.214  1.3398  0.7939 -0.7240
14437TIP3   OH264801   2.555   3.297   4.440 -0.1188 -0.3188  0.0164
14437TIP3    H164802   2.562   3.325   4.531  0.6688 -0.7615  0.1087
14437TIP3    H264803   2.474   3.336   4.408 -1.6434 -2.0447  1.5656
14438TIP3   OH264804   5.221   6.233   1.985  0.4066 -0.3244  0.1628
14438TIP3    H164805   5.287   6.223   1.916  0.6373 -0.0758  0.3444
14438TIP3    H264806   5.152   6.172   1.961  0.4292 -0.1532 -0.3552
14439TIP3   OH264807   1.271   1.187   2.109  0.5892  0.0440 -0.5498
14439TIP3    H164808   1.314   1.221   2.187 -1.5299  1.2828  0.1667
14439TIP3    H264809   1.198   1.247   2.094  1.5536  0.5691 -4.2038
14440TIP3   OH264810   0.808   3.675   4.977  0.0888  0.4253  0.2778
14440TIP3    H164811   0.893   3.637   4.954 -0.9060 -0.7898 -1.5911
14440TIP3    H264812   0.812   3.765   4.943  0.1734 -0.0472 -1.0319
14441TIP3   OH264813   3.765   0.412   0.843 -0.2407 -0.6285  0.6085
14441TIP3    H164814   3.804   0.334   0.883 -0.6983 -0.6875  0.9575
14441TIP3    H264815   3.756   0.390   0.751 -1.2507 -1.3762  0.8621
14442TIP3   OH264816   1.931   6.459   3.805 -0.1709  0.5892  0.1255
14442TIP3    H164817   1.904   6.541   3.847 -0.1358  0.4557  0.4110
14442TIP3    H264818   1.863   6.397   3.831 -0.8146  0.7863 -1.0012
14443TIP3   OH264819   4.364   1.824  15.731  0.4264 -0.0914  0.4210
14443TIP3    H164820   4.430   1.767  15.692  0.5418  1.1586 -1.3673
14443TIP3    H264821   4.382   1.910  15.693 -2.2621  0.2913 -0.2231
14444TIP3   OH264822   6.391   4.699  13.216  0.3890 -0.4575  0.1802
14444TIP3    H164823   6.482   4.701  13.246  0.5168 -1.3742 -0.0826
14444TIP3    H264824   6.374   4.787  13.182  1.0621 -0.1740  0.5690
14445TIP3   OH264825   3.739   5.773  14.105  0.1146  0.1684  0.2580
14445TIP3    H164826   3.758   5.789  14.198 -2.4460  1.7015  0.6196
14445TIP3    H264827   3.653   5.731  14.106 -0.0671  0.4574 -1.4263
14446TIP3   OH264828   3.454   3.919   1.517 -0.1452 -0.2375  0.1419
14446TIP3    H164829   3.547   3.936   1.501  0.0612 -0.9645  0.5382
14446TIP3    H264830   3.438   3.834   1.477 -0.9642  0.4648 -1.0694
14447TIP3   OH264831   4.382   4.540  11.484 -0.5589  0.1205  0.0376
14447TIP3    H164832   4.412   4.628  11.460 -0.0476 -0.0212  0.1357
14447TIP3    H264833   4.347   4.503  11.403  1.3281 -0.4322 -0.5760
14448TIP3   OH264834   1.912   4.568  12.335  0.4334  0.5170 -0.0706
14448TIP3    H164835   1.829   4.590  12.292 -0.4109  0.2096  1.2966
14448TIP3    H264836   1.911   4.473  12.341  0.8809  0.5123 -0.0380
14449TIP3   OH264837   0.601   5.822  14.142  0.3230  0.0787 -0.0978
14449TIP3    H164838   0.596   5.917  14.130 -1.2344  0.0323  0.0359
14449TIP3    H264839   0.665   5.793  14.076  0.0405  1.0983 -0.8430
14450TIP3   OH264840   6.488   1.803   5.357 -0.2225 -0.2133  0.0431
14450TIP3    H164841   6.558   1.751   5.397 -0.1839  1.5593  2.4303
14450TIP3    H264842   6.412   1.744   5.358  0.5528 -1.2532 -0.1416
14451TIP3   OH264843   1.197   3.075  13.045  0.7618 -0.4337  0.2358
14451TIP3    H164844   1.119   3.116  13.080  0.2827 -0.9540 -0.1912
14451TIP3    H264845   1.164   3.000  12.995  1.5760 -1.0573  0.6087
14452TIP3   OH264846   1.841   6.791  12.649  0.3487  0.0801 -0.2193
14452TIP3    H164847   1.816   6.777  12.558 -0.9458 -0.5001  0.1990
14452TIP3    H264848   1.762   6.828  12.691  1.3482  1.6598  0.3771
14453TIP3   OH264849   3.348   3.168   0.352 -0.0496 -0.1851  0.0155
14453TIP3    H164850   3.310   3.104   0.412  0.7468 -1.8311 -1.1522
14453TIP3    H264851   3.315   3.252   0.383 -0.0581 -0.9938  2.4388
14454TIP3   OH264852   0.453   2.355   0.168 -0.1128 -0.1048 -0.0798
14454TIP3    H164853   0.500   2.273   0.155 -1.9496 -1.0891 -0.9523
14454TIP3    H264854   0.380   2.333   0.226 -2.0763  0.2572 -2.2659
14455TIP3   OH264855   2.470   1.911   4.039 -0.6238  0.0482 -0.0170
14455TIP3    H164856   2.440   1.953   3.958 -0.8066  0.3848  0.2262
14455TIP3    H264857   2.401   1.929   4.103  0.1832  1.0164  0.6073
14456TIP3   OH264858   0.643   6.715  15.190 -0.3139  0.0879  0.0739
14456TIP3    H164859   0.573   6.650  15.179  0.0066  0.0893 -2.6749
14456TIP3    H264860   0.645   6.762  15.106  2.0884  1.0008  0.5672
14457TIP3   OH264861   1.742   1.765   4.625  0.2461 -0.4020  0.0337
14457TIP3    H164862   1.735   1.726   4.538  1.9197 -0.5332 -0.0697
14457TIP3    H264863   1.768   1.693   4.682  0.4343 -0.0604  0.3921
14458TIP3   OH264864   3.041   6.454  15.674  0.2653 -0.3092 -0.7779
14458TIP3    H164865   2.993   6.505  15.739  1.2350 -0.9604  0.4765
14458TIP3    H264866   2.976   6.434  15.607 -0.9657 -0.3293  0.3854
14459TIP3   OH264867   0.046   3.432  15.544  0.4264 -0.0861 -0.2007
14459TIP3    H164868  -0.006   3.424  15.624  0.8307  0.8355  0.1700
14459TIP3    H264869   0.082   3.521  15.547 -1.0615  0.6558 -2.3577
14460TIP3   OH264870   0.374   0.204  13.523  0.0152 -0.1976  0.2338
14460TIP3    H164871   0.419   0.183  13.441 -0.8917 -1.0967 -0.0548
14460TIP3    H264872   0.418   0.283  13.554  1.4250 -0.7210 -0.3040
14461TIP3   OH264873   3.929   6.532   4.586  0.0585  0.2211 -0.2319
14461TIP3    H164874   3.937   6.484   4.669  0.3618 -1.1427 -1.0169
14461TIP3    H264875   3.835   6.542   4.572 -0.0712 -1.4727 -0.7638
14462TIP3   OH264876   3.890   1.285   1.528  0.1548 -0.1637 -0.5130
14462TIP3    H164877   3.824   1.309   1.593 -0.2017 -0.8297 -0.6219
14462TIP3    H264878   3.966   1.338   1.552 -0.3172  0.3930 -0.2076
14463TIP3   OH264879   2.418   1.691   0.643 -0.1736  0.3845 -0.5081
14463TIP3    H164880   2.403   1.786   0.644 -0.6465  0.3524 -2.0494
14463TIP3    H264881   2.455   1.672   0.729 -0.2025  1.9455 -0.1165
14464TIP3   OH264882   2.039   6.712   5.048  0.7994  0.1850 -0.2903
14464TIP3    H164883   2.085   6.749   5.123  0.4411 -2.2408  1.2245
14464TIP3    H264884   2.086   6.630   5.029 -1.2459 -1.0408 -0.3672
14465TIP3   OH264885   3.820   6.684   2.338 -0.0380  0.0977 -0.2044
14465TIP3    H164886   3.838   6.762   2.390 -0.4500  0.4696 -0.6161
14465TIP3    H264887   3.734   6.654   2.367 -0.4457  0.5291 -0.9225
14466TIP3   OH264888   5.603   6.077  16.387  0.7721  0.3428  0.2953
14466TIP3    H164889   5.600   5.982  16.395  0.4540  0.2329 -0.9285
14466TIP3    H264890   5.524   6.108  16.431  0.1285 -0.0726 -0.5408
14467TIP3   OH264891   6.270   4.402   1.373 -0.3824  0.9598  0.4967
14467TIP3    H164892   6.322   4.324   1.359 -0.1483  1.0734  0.7158
14467TIP3    H264893   6.329   4.475   1.355 -1.3491  1.1365 -2.5436
14468TIP3   OH264894   1.530   6.330  15.038  0.1116  0.2578 -0.1015
14468TIP3    H164895   1.549   6.286  14.955  0.7583 -0.0674  0.2126
14468TIP3    H264896   1.605   6.309  15.094 -0.6863 -0.1766  0.8318
14469TIP3   OH264897   3.355   4.932   1.776 -0.3099 -0.2429 -0.1530
14469TIP3    H164898   3.447   4.917   1.754 -0.5061 -1.5904 -0.1546
14469TIP3    H264899   3.307   4.905   1.698 -0.6818  1.2881 -0.4824
14470TIP3   OH264900   4.797   2.047  16.228 -0.7590  0.0175  0.9409
14470TIP3    H164901   4.757   2.126  16.193  0.5041  0.4616  0.4500
14470TIP3    H264902   4.852   2.077  16.301  2.0516  0.0810 -1.0417
14471TIP3   OH264903   5.133   3.743   3.215  0.2749  0.1058  0.2026
14471TIP3    H164904   5.175   3.829   3.224 -0.1600  0.5100 -1.3437
14471TIP3    H264905   5.201   3.681   3.242  0.8864  0.8969  0.5227
14472TIP3   OH264906   0.129   6.379  12.646  0.0970 -0.7538  0.1764
14472TIP3    H164907   0.062   6.441  12.675  0.0657 -0.4194 -0.5931
14472TIP3    H264908   0.201   6.392  12.708 -0.3847 -0.8324  0.7655
14473TIP3   OH264909   0.337   4.171  12.555  0.5114  0.3045  0.4323
14473TIP3    H164910   0.260   4.227  12.550  1.1326  1.2391  0.9884
14473TIP3    H264911   0.320   4.101  12.492  0.7806  2.4655 -2.2107
14474TIP3   OH264912   6.681   5.228  12.697 -0.4788  0.0678  0.4057
14474TIP3    H164913   6.713   5.161  12.758 -2.1018  0.7130  2.0887
14474TIP3    H264914   6.729   5.307  12.721  0.2728 -0.1104 -0.4860
14475TIP3   OH264915   2.163   6.183   2.537  0.2415 -0.4519  0.0967
14475TIP3    H164916   2.221   6.209   2.467  0.9269  0.6283  1.0246
14475TIP3    H264917   2.134   6.266   2.576 -0.7115 -1.0087  0.6121
14476TIP3   OH264918   5.477   0.495  15.597  0.0233 -0.6178  0.2869
14476TIP3    H164919   5.426   0.421  15.631 -2.4639 -0.6142 -2.9939
14476TIP3    H264920   5.529   0.457  15.527  1.1465  0.2386  0.6377
14477TIP3   OH264921   1.706   4.681   0.854 -0.6422  0.0901 -0.6273
14477TIP3    H164922   1.627   4.673   0.801  0.3523 -1.0697 -2.0202
14477TIP3    H264923   1.772   4.632   0.806  0.3673 -0.9318  1.6453
14478TIP3   OH264924   6.399   1.760   5.755  0.2450  0.9464  0.1037
14478TIP3    H164925   6.386   1.742   5.848  0.0364 -1.2188 -0.2860
14478TIP3    H264926   6.493   1.748   5.741 -0.0963 -1.6910 -0.4456
14479TIP3   OH264927   2.227   6.610  15.905  0.2606 -0.0390 -0.6651
14479TIP3    H164928   2.318   6.625  15.930 -0.0265 -1.0573  1.1682
14479TIP3    H264929   2.176   6.663  15.966 -0.4228 -1.1048 -0.2757
14480TIP3   OH264930   4.239   3.165  14.071 -0.0535 -0.1856 -0.2698
14480TIP3    H164931   4.279   3.225  14.134  0.2958 -0.0226 -0.6414
14480TIP3    H264932   4.298   3.166  13.996  0.2520 -1.4232 -0.0750
14481TIP3   OH264933   4.116   5.689   5.352 -0.3072 -0.1348 -0.5727
14481TIP3    H164934   4.201   5.688   5.309  0.4683 -0.2691  0.9157
14481TIP3    H264935   4.053   5.675   5.281  0.8259  0.8935 -1.8346
14482TIP3   OH264936   0.492   3.239   5.641 -1.0194  0.0177 -0.4453
14482TIP3    H164937   0.520   3.166   5.585 -0.4662 -1.0632  1.1800
14482TIP3    H264938   0.562   3.248   5.706 -1.8517  0.9393  0.3554
14483TIP3   OH264939   4.545   5.029  15.998 -0.2367  0.3791  0.1653
14483TIP3    H164940   4.532   5.037  15.904 -1.5078 -0.1186  0.2739
14483TIP3    H264941   4.483   5.092  16.036 -1.6325 -1.2206  0.6963
14484TIP3   OH264942   4.894   3.150   3.697  0.0299  0.4939 -0.3485
14484TIP3    H164943   4.912   3.230   3.649  0.5175  1.1789  0.9085
14484TIP3    H264944   4.920   3.170   3.787 -0.1211 -0.9793  0.0544
14485TIP3   OH264945   1.912   2.926  12.956  0.4655  0.1284  0.3759
14485TIP3    H164946   1.961   3.002  12.987  2.6540 -1.0383  0.0267
14485TIP3    H264947   1.937   2.918  12.864 -0.3836 -0.5179  0.1970
14486TIP3   OH264948   0.128   0.832  13.514  0.2551  0.0308  0.1065
14486TIP3    H164949   0.139   0.911  13.568 -1.4959 -0.6384  1.5084
14486TIP3    H264950   0.198   0.774  13.543  0.6073  0.4579  0.1387
14487TIP3   OH264951   1.022   6.811  12.196 -0.3504 -0.1291 -0.2341
14487TIP3    H164952   1.019   6.894  12.244 -2.0970 -0.3963  0.1662
14487TIP3    H264953   1.005   6.744  12.261  1.0887 -0.8546 -0.5508
14488TIP3   OH264954   6.735   4.167  13.573 -0.4540  0.6992 -0.2413
14488TIP3    H164955   6.763   4.099  13.634  1.3673  0.0371 -1.7032
14488TIP3    H264956   6.735   4.247  13.624  2.3306  0.3844  0.3694
14489TIP3   OH264957   3.531   4.437  11.969 -0.1611  0.3874 -0.4297
14489TIP3    H164958   3.486   4.468  12.047  1.1786  1.0623  0.1106
14489TIP3    H264959   3.623   4.435  11.993  0.1343 -0.9026 -1.5137
14490TIP3   OH264960   2.144   2.612   5.318 -0.1632 -0.1366  0.0984
14490TIP3    H164961   2.188   2.695   5.339 -1.5109  0.7412 -0.4257
14490TIP3    H264962   2.074   2.637   5.258 -0.7702 -1.6304  0.1569
14491TIP3   OH264963   0.935   2.187  14.816 -0.6311 -0.2592 -0.5781
14491TIP3    H164964   0.981   2.237  14.884 -0.4058  0.0891 -0.9892
14491TIP3    H264965   0.844   2.185  14.846 -0.3886 -0.8156  0.1602
14492TIP3   OH264966   3.549   3.579   4.540 -0.0911  0.3322  0.5976
14492TIP3    H164967   3.589   3.598   4.624 -0.5138 -0.8739  1.0863
14492TIP3    H264968   3.595   3.637   4.478  1.4254  0.0042  1.3630
14493TIP3   OH264969   4.021   6.787  12.379  0.0714 -0.1030  0.2293
14493TIP3    H164970   4.109   6.808  12.348  0.0093 -0.2237 -0.0312
14493TIP3    H264971   4.006   6.698  12.350 -0.7632  0.4539 -1.1628
14494TIP3   OH264972   6.708   3.331  16.031 -0.2538 -0.1994 -0.7856
14494TIP3    H164973   6.635   3.313  16.091  0.2819  1.0282  0.2737
14494TIP3    H264974   6.786   3.330  16.087  0.2073  1.4356 -1.3372
14495TIP3   OH264975   3.502   1.195   0.356  0.0648 -0.5231 -0.4160
14495TIP3    H164976   3.560   1.270   0.373  0.4732 -0.6119 -1.3667
14495TIP3    H264977   3.526   1.165   0.269  1.7164 -3.4085  0.8815
14496TIP3   OH264978   1.210   4.292  12.197 -0.2079  0.5870  0.3638
14496TIP3    H164979   1.153   4.330  12.130 -0.1088  0.7423  0.3648
14496TIP3    H264980   1.298   4.306  12.163 -0.1361  1.1216  0.7578
14497TIP3   OH264981   0.827   2.640   3.691  0.1414 -0.6367 -0.0712
14497TIP3    H164982   0.790   2.656   3.778  0.6297 -0.9368  0.1950
14497TIP3    H264983   0.789   2.556   3.664 -0.4876 -0.2499 -0.4138
14498TIP3   OH264984   3.726   2.454  13.609 -0.6239  0.1067  0.5072
14498TIP3    H164985   3.787   2.388  13.576 -0.8958 -0.0403  0.3051
14498TIP3    H264986   3.640   2.426  13.579 -0.8677  0.0169  1.2611
14499TIP3   OH264987   5.334   2.305   1.381 -0.5188  0.3946  0.6816
14499TIP3    H164988   5.304   2.292   1.291 -1.2687  2.2602  0.6206
14499TIP3    H264989   5.372   2.221   1.405 -1.6852 -0.6484 -0.8430
14500TIP3   OH264990   2.414   6.396  16.834  0.5536  1.1858  0.1437
14500TIP3    H164991   2.373   6.409  16.920 -1.0301 -1.2595 -0.1335
14500TIP3    H264992   2.472   6.320  16.847 -0.2082  0.3702 -1.0592
14501TIP3   OH264993   0.697   1.289   0.006  0.3316  0.3959 -0.0772
14501TIP3    H164994   0.616   1.262  -0.037  1.1599  0.7183 -1.9742
14501TIP3    H264995   0.673   1.366   0.057 -0.7176  0.0144  0.0138
14502TIP3   OH264996   0.934   1.768  15.750 -0.1286 -0.1261 -0.3903
14502TIP3    H164997   0.870   1.709  15.709 -2.2649  1.5090  0.3748
14502TIP3    H264998   0.939   1.842  15.690  0.6328  0.0323 -0.1392
14503TIP3   OH264999   4.176   6.164  11.269  0.0364  1.1192 -0.3123
14503TIP3    H165000   4.247   6.228  11.266  1.9812 -0.8383  0.8671
14503TIP3    H265001   4.198   6.099  11.202  0.0700 -0.1544  0.8767
14504TIP3   OH265002   3.775   4.870  11.607  0.1866  0.0543  0.3080
14504TIP3    H165003   3.683   4.870  11.581  0.0216  1.8636  0.7546
14504TIP3    H265004   3.773   4.857  11.702  0.2262  1.8395  0.5978
14505TIP3   OH265005   3.656   5.046   0.609  0.0712  0.4027 -0.1867
14505TIP3    H165006   3.606   5.055   0.690  0.2400 -0.0815 -0.0286
14505TIP3    H265007   3.718   4.975   0.626  0.0259  0.2161 -0.7792
14506TIP3   OH265008   6.684   5.628  16.710 -0.4017  0.5440 -0.0544
14506TIP3    H165009   6.700   5.684  16.786 -0.3244  2.0451 -1.1250
14506TIP3    H265010   6.594   5.598  16.722 -0.7381  1.5738  0.1546
14507TIP3   OH265011   5.798   4.413   0.169  0.1122  0.8066 -0.0843
14507TIP3    H165012   5.863   4.459   0.117 -0.3546  0.6328 -0.8376
14507TIP3    H265013   5.817   4.320   0.156 -0.3417  0.7527 -0.3942
14508TIP3   OH265014   5.988   5.705  13.105 -0.7554 -0.3332 -0.3554
14508TIP3    H165015   5.902   5.668  13.086 -1.8066  0.6864  1.9607
14508TIP3    H265016   5.986   5.792  13.066 -0.2605 -0.7686 -1.3822
14509TIP3   OH265017   0.788   5.589  14.294  0.3044 -0.3583  0.4460
14509TIP3    H165018   0.739   5.561  14.217  0.3180  0.6562  0.0544
14509TIP3    H265019   0.722   5.612  14.359  0.2468  0.9857 -0.0735
14510TIP3   OH265020   4.408   3.367   3.055  0.1119  0.1941  0.0349
14510TIP3    H165021   4.435   3.441   3.109  0.3052  0.5171 -0.5032
14510TIP3    H265022   4.322   3.391   3.021  0.4021  0.4052 -0.5646
14511TIP3   OH265023   6.147   4.708  13.603 -0.2731 -0.1289 -0.2119
14511TIP3    H165024   6.091   4.734  13.676  0.8087  1.0295  0.2385
14511TIP3    H265025   6.159   4.614  13.614  1.0912  0.2453  2.0173
14512TIP3   OH265026   5.191   2.099  13.709 -0.0028 -0.1706 -0.0989
14512TIP3    H165027   5.217   2.035  13.643  0.1690  0.0446 -0.2426
14512TIP3    H265028   5.096   2.101  13.704 -0.0509 -0.9331  0.4003
14513TIP3   OH265029   6.501   1.162  11.050 -0.1185 -0.3651  0.2537
14513TIP3    H165030   6.426   1.134  10.998  0.5976 -0.6940 -0.6252
14513TIP3    H265031   6.481   1.252  11.075 -0.2520 -0.0139 -1.0401
14514TIP3   OH265032   0.357   1.576  13.320 -0.1663 -0.2594 -0.2609
14514TIP3    H165033   0.266   1.552  13.298 -0.3304 -1.9437  1.9165
14514TIP3    H265034   0.350   1.623  13.403  0.7157  2.8286 -1.7872
14515TIP3   OH265035   4.878   0.366   2.432 -0.2531  0.4926 -0.4096
14515TIP3    H165036   4.971   0.391   2.423 -0.3541  0.7262 -0.8702
14515TIP3    H265037   4.875   0.311   2.509  0.8463 -2.1520 -2.1122
14516TIP3   OH265038   2.983   3.629  16.839  0.0475 -0.6300 -0.6709
14516TIP3    H165039   3.044   3.685  16.886 -0.0420 -0.3164 -0.9228
14516TIP3    H265040   2.982   3.547  16.888  0.2379 -0.4373 -0.3447
14517TIP3   OH265041   2.162   1.057  11.524  0.9154  0.1476  0.3849
14517TIP3    H165042   2.251   1.058  11.489  0.6081  1.9319 -0.4699
14517TIP3    H265043   2.106   1.052  11.447  0.2667  0.6885  0.8105
14518TIP3   OH265044   4.214   3.562   4.999 -0.5832  0.4979  0.2092
14518TIP3    H165045   4.221   3.593   5.089 -1.0559 -3.0815  1.6281
14518TIP3    H265046   4.304   3.556   4.968 -0.4566  2.7878 -0.0671
14519TIP3   OH265047   4.502   6.052  11.960 -0.0997  0.4930 -0.2107
14519TIP3    H165048   4.470   6.026  11.874 -1.4461 -0.6885  0.6127
14519TIP3    H265049   4.529   6.143  11.949 -0.5940  0.4767 -1.7823
14520TIP3   OH265050   1.021   3.560   1.825 -0.0578  0.1059 -0.7283
14520TIP3    H165051   1.030   3.480   1.878 -1.5568  0.7595  0.5732
14520TIP3    H265052   0.957   3.537   1.758 -1.5911  0.5746  0.5070
14521TIP3   OH265053   3.603   2.234  16.913  0.4431 -0.4561 -0.1568
14521TIP3    H165054   3.694   2.242  16.884  0.0641 -0.2409 -1.3710
14521TIP3    H265055   3.564   2.175  16.849 -0.6535  0.7421 -0.6383
14522TIP3   OH265056   4.530   0.632   2.977  0.3288 -0.3392  0.0629
14522TIP3    H165057   4.528   0.612   2.883 -0.2649  0.9918 -0.2333
14522TIP3    H265058   4.542   0.547   3.019 -2.1615 -1.3921 -1.0925
14523TIP3   OH265059   1.999   4.340   4.696 -0.1037  0.1059 -0.3116
14523TIP3    H165060   1.978   4.400   4.624  0.7594 -0.1904 -0.8402
14523TIP3    H265061   2.073   4.289   4.662 -1.7320 -2.3028 -0.4685
14524TIP3   OH265062   4.286   4.159   5.759 -0.1985 -0.1014 -0.3995
14524TIP3    H165063   4.323   4.133   5.675  0.5976  0.4245 -0.2209
14524TIP3    H265064   4.198   4.123   5.759  0.7016 -2.5016 -0.3393
14525TIP3   OH265065   4.314   1.326  14.759  0.1456  0.4448  0.2021
14525TIP3    H165066   4.299   1.415  14.727  0.3286  0.2053 -0.5774
14525TIP3    H265067   4.283   1.270  14.688 -1.4257 -0.1481  1.3218
14526TIP3   OH265068   4.042   2.774  12.504  0.2498 -0.6055  0.6517
14526TIP3    H165069   4.019   2.782  12.411  1.3458 -0.6463  0.3737
14526TIP3    H265070   4.003   2.691  12.531  1.3297 -1.4161 -0.2028
14527TIP3   OH265071   4.576   5.554  14.913  0.7207  0.2782  0.1791
14527TIP3    H165072   4.521   5.550  14.991 -2.2306 -2.5804 -1.7820
14527TIP3    H265073   4.548   5.633  14.867  0.1177  0.2187  0.4407
14528TIP3   OH265074   3.739   6.621   6.509 -0.3502  0.6400  0.0384
14528TIP3    H165075   3.676   6.576   6.567 -1.0230  0.5212 -0.7639
14528TIP3    H265076   3.821   6.575   6.523 -1.0121 -0.8685 -0.7315
14529TIP3   OH265077   2.299   3.548   4.766 -0.4571  0.1631 -0.0542
14529TIP3    H165078   2.310   3.458   4.796  0.4611  0.2224 -0.1794
14529TIP3    H265079   2.205   3.562   4.767 -0.7162 -1.2121 -1.2276
14530TIP3   OH265080   2.705   5.203  11.814  0.4999  0.0632 -0.2656
14530TIP3    H165081   2.644   5.164  11.877  1.2386 -1.1994 -0.3063
14530TIP3    H265082   2.791   5.196  11.855  0.9798 -0.6799 -1.3388
14531TIP3   OH265083   0.189   1.666   3.458  0.4318 -0.4799  0.2169
14531TIP3    H165084   0.130   1.669   3.534 -0.5708 -1.3896 -0.4856
14531TIP3    H265085   0.150   1.600   3.401  0.8255  0.5970 -1.3695
14532TIP3   OH265086   1.687   5.266   5.161  0.0711  0.0454 -0.2887
14532TIP3    H165087   1.658   5.353   5.188 -0.7009  0.3825 -2.0643
14532TIP3    H265088   1.702   5.220   5.243  2.8371  2.5362  0.7822
14533TIP3   OH265089   0.757   4.562  14.926  0.1194  0.2332  0.0918
14533TIP3    H165090   0.682   4.622  14.924 -1.5793 -1.6903  1.5136
14533TIP3    H265091   0.826   4.610  14.972 -1.2725  1.0470  1.4207
14534TIP3   OH265092   2.573   5.834   3.063  0.4046 -0.2983 -0.0777
14534TIP3    H165093   2.489   5.840   3.018 -0.1198 -2.1027  0.5910
14534TIP3    H265094   2.624   5.908   3.030 -1.3302  0.6454 -0.7195
14535TIP3   OH265095   3.969   5.944  11.520 -0.5355 -0.1185  0.2972
14535TIP3    H165096   3.944   5.973  11.608 -0.1903  1.3490 -0.0681
14535TIP3    H265097   3.915   5.997  11.461  0.2611 -0.0756 -0.4048
14536TIP3   OH265098   2.281   3.360   0.890 -0.4516 -0.3315  0.1655
14536TIP3    H165099   2.321   3.413   0.959  0.0191 -0.3477 -0.0854
14536TIP3    H265100   2.323   3.274   0.899 -1.5946 -0.8313  0.9074
14537TIP3   OH265101   3.071   6.390   2.097  0.5265 -0.2338  0.3823
14537TIP3    H165102   3.160   6.384   2.062  0.1025  0.1329 -0.7698
14537TIP3    H265103   3.061   6.482   2.121  1.0726 -0.6000  2.2489
14538TIP3   OH265104   3.706   0.594   1.046  0.3238 -0.2749  0.3961
14538TIP3    H165105   3.679   0.671   0.995  1.0423 -0.7065 -0.6718
14538TIP3    H265106   3.749   0.537   0.982  0.8848 -1.0267  1.4189
14539TIP3   OH265107   6.321   5.692  15.975  0.3724 -0.4879  0.2848
14539TIP3    H165108   6.330   5.706  16.070 -1.4953 -1.1872  0.5985
14539TIP3    H265109   6.270   5.768  15.945  1.3710 -0.0199 -0.2598
14540TIP3   OH265110   1.633   6.007  15.318 -0.5031 -0.2647  0.5954
14540TIP3    H165111   1.598   6.012  15.229 -1.8556  0.7071  1.1475
14540TIP3    H265112   1.718   6.050  15.313 -0.9934  0.6742 -0.0465
14541TIP3   OH265113   2.094   1.229  12.615  0.2131 -0.4906  0.7967
14541TIP3    H165114   2.188   1.224  12.601  0.2748  0.5122  0.7481
14541TIP3    H265115   2.078   1.174  12.692  0.8439 -0.6261  0.8362
14542TIP3   OH265116   2.486   6.620   2.791  0.2194  0.2648 -0.4774
14542TIP3    H165117   2.535   6.544   2.759 -0.8795 -0.4986 -0.4187
14542TIP3    H265118   2.395   6.590   2.793  0.1001  0.5937  2.4199
14543TIP3   OH265119   1.523   0.587   3.858  0.2524  0.6899  0.6758
14543TIP3    H165120   1.527   0.500   3.899  0.2366  0.3618 -0.0102
14543TIP3    H265121   1.597   0.634   3.896  0.5092  0.2405  0.7512
14544TIP3   OH265122   5.613   2.415  11.501 -0.0562  0.0232  0.2892
14544TIP3    H165123   5.594   2.508  11.489  0.1716  0.2989  1.8114
14544TIP3    H265124   5.708   2.410  11.504 -0.0601 -0.3013 -0.0051
14545TIP3   OH265125   1.843   3.358   5.599  0.1882 -0.2487  0.6828
14545TIP3    H165126   1.835   3.265   5.618 -0.5398 -0.1493  0.8751
14545TIP3    H265127   1.886   3.361   5.513 -2.2724 -0.8361 -0.6473
14546TIP3   OH265128   3.254   5.955   0.787 -0.3931  0.0957  0.1446
14546TIP3    H165129   3.310   6.009   0.731  0.0126 -0.9839 -0.5183
14546TIP3    H265130   3.167   5.994   0.779 -0.1926  0.3918 -0.6763
14547TIP3   OH265131   0.007   1.495  16.206  0.4371  0.6748  0.0018
14547TIP3    H165132   0.036   1.576  16.247  0.0329  0.8686 -0.0896
14547TIP3    H265133  -0.057   1.522  16.141 -1.4370  0.1347  1.5183
14548TIP3   OH265134   4.169   5.540   3.348  0.0142 -0.0229 -0.8078
14548TIP3    H165135   4.256   5.502   3.347  1.0692  2.2193 -2.0495
14548TIP3    H265136   4.147   5.548   3.441  1.0094 -0.8545 -0.4875
14549TIP3   OH265137   4.036   6.749   0.114 -0.5137  0.2069  0.4094
14549TIP3    H165138   4.054   6.750   0.020  2.8415 -0.3807  0.9089
14549TIP3    H265139   4.060   6.836   0.144  1.1720 -0.4280  1.0445
14550TIP3   OH265140   1.248   5.721   5.323  0.5146  0.2696  0.3123
14550TIP3    H165141   1.192   5.715   5.400  1.0118 -0.1385  0.6538
14550TIP3    H265142   1.230   5.807   5.286 -2.4240 -0.8930 -1.2359
14551TIP3   OH265143   2.573   3.098  11.033 -0.0944  0.2320 -0.3823
14551TIP3    H165144   2.639   3.125  11.096  0.2695  1.0504 -1.0911
14551TIP3    H265145   2.539   3.015  11.067  1.3121 -0.2164 -0.0339
14552TIP3   OH265146   5.356   0.130  13.920  0.0050 -0.3560  0.2199
14552TIP3    H165147   5.293   0.200  13.900 -0.5872 -1.0791 -0.5317
14552TIP3    H265148   5.435   0.154  13.871 -0.7867 -1.0976 -1.4945
14553TIP3   OH265149   4.417   3.018  13.706 -0.3272 -0.4702 -0.2134
14553TIP3    H165150   4.487   3.057  13.653  0.3727  1.5408  1.9980
14553TIP3    H265151   4.459   2.945  13.751 -0.7169 -1.6806 -1.7491
14554TIP3   OH265152   0.208   5.485   0.522 -0.2368 -0.0665  0.3760
14554TIP3    H165153   0.267   5.497   0.448 -1.7605 -1.2241 -1.0956
14554TIP3    H265154   0.127   5.530   0.496 -0.0574  1.5407  2.3621
14555TIP3   OH265155   6.580   1.177   4.030 -0.0065 -0.1285 -0.0619
14555TIP3    H165156   6.650   1.233   4.064 -0.2825  0.1718  0.0121
14555TIP3    H265157   6.532   1.150   4.108 -1.2922  1.4202 -0.2666
14556TIP3   OH265158   4.999   4.700   4.151 -0.9381 -0.1598  0.5298
14556TIP3    H165159   4.987   4.636   4.221 -0.7323  1.4437  2.1167
14556TIP3    H265160   5.091   4.690   4.125 -1.1861 -1.2002  0.0194
14557TIP3   OH265161   5.051   6.066   5.083 -0.1833  0.3445  0.3892
14557TIP3    H165162   5.031   6.073   4.990 -0.5232  1.1301  0.5137
14557TIP3    H265163   5.057   6.157   5.113 -0.4725  0.0978  1.2087
14558TIP3   OH265164   0.963   1.200  13.150  0.3369 -0.2180 -0.2159
14558TIP3    H165165   0.965   1.122  13.205 -0.1600 -0.8470 -1.0678
14558TIP3    H265166   1.043   1.196  13.099  0.9599  0.5386  0.6719
14559TIP3   OH265167   3.481   0.484  13.955  0.0949  0.3483 -0.0542
14559TIP3    H165168   3.468   0.504  13.863 -2.2254 -0.0340  0.1360
14559TIP3    H265169   3.520   0.397  13.957  1.5396  0.9619 -0.6788
14560TIP3   OH265170   3.185   5.349   2.958 -0.1002  0.2796  1.1083
14560TIP3    H165171   3.159   5.420   2.899  0.5051  0.3463  0.9204
14560TIP3    H265172   3.201   5.392   3.042  1.4320  0.5606  0.6976
14561TIP3   OH265173   2.446   4.444   5.914 -0.6768  0.2261  0.1794
14561TIP3    H165174   2.403   4.467   5.831 -1.0193  0.5193  0.4376
14561TIP3    H265175   2.461   4.349   5.908 -0.1557  0.3395 -0.4720
14562TIP3   OH265176   3.254   3.268   1.770  0.3964  0.1806 -0.0587
14562TIP3    H165177   3.219   3.293   1.684  0.0732  0.7473  0.2390
14562TIP3    H265178   3.297   3.183   1.754  1.2108  0.7452 -0.9894
14563TIP3   OH265179   0.769   6.257   4.725  0.2834  0.4799 -0.7195
14563TIP3    H165180   0.769   6.335   4.669 -0.5588 -0.2724 -1.7892
14563TIP3    H265181   0.861   6.236   4.737  0.4892  1.0920 -1.1996
14564TIP3   OH265182   5.683   5.309  10.828  0.4570  0.0553  0.6490
14564TIP3    H165183   5.777   5.317  10.813  1.0030 -1.2876  2.8232
14564TIP3    H265184   5.650   5.263  10.751  1.1380  2.4218 -1.1545
14565TIP3   OH265185   2.566   2.665  15.019 -0.2681  0.1151 -0.5180
14565TIP3    H165186   2.628   2.734  14.995  2.1109 -1.9397 -0.6853
14565TIP3    H265187   2.498   2.670  14.952  0.1533  1.8477 -0.8873
14566TIP3   OH265188   4.917   6.716   0.696  0.1240 -0.0806 -0.0249
14566TIP3    H165189   4.956   6.783   0.640 -0.3385  0.3912  0.2157
14566TIP3    H265190   4.992   6.670   0.733  0.4894  1.2453  0.9596
14567TIP3   OH265191   6.229   4.093   0.756 -0.3203  0.0030  0.3084
14567TIP3    H165192   6.297   4.160   0.759 -0.5829  0.3708 -1.0548
14567TIP3    H265193   6.202   4.090   0.664 -0.5503 -1.7435  0.3901
14568TIP3   OH265194   6.748   0.061  13.180  0.4869 -0.4063 -0.5794
14568TIP3    H165195   6.712   0.141  13.218  0.8287  0.5405 -2.1752
14568TIP3    H265196   6.826   0.042  13.232  0.0704 -0.0443  0.1861
14569TIP3   OH265197   3.246   3.593  16.036  0.5352  0.6651  0.4009
14569TIP3    H165198   3.194   3.601  15.956 -1.9599 -0.4350  1.7918
14569TIP3    H265199   3.334   3.573  16.005 -0.0587  1.4553 -2.0717
14570TIP3   OH265200   1.336   6.452  14.361  0.0194 -0.2012 -0.2276
14570TIP3    H165201   1.351   6.365  14.399  0.3049  0.2916  0.8069
14570TIP3    H265202   1.424   6.483  14.338  0.3266  1.1452  2.4205
14571TIP3   OH265203   0.004   4.683  10.635  0.4264  0.0157  0.4521
14571TIP3    H165204  -0.043   4.600  10.629  1.8726 -0.8065 -0.0063
14571TIP3    H265205   0.094   4.658  10.655  0.6275  1.5615  1.6468
14572TIP3   OH265206   2.803   1.229   6.299 -0.2288 -0.2065  0.0679
14572TIP3    H165207   2.822   1.322   6.302  0.2562 -0.1288 -2.7438
14572TIP3    H265208   2.842   1.193   6.379 -1.7589  2.1247  2.0081
14573TIP3   OH265209   6.565   6.591   0.788  0.2624 -0.4686 -0.0056
14573TIP3    H165210   6.571   6.534   0.865  0.6684  0.8007  0.9378
14573TIP3    H265211   6.653   6.588   0.750  0.0658 -1.0836 -0.4324
14574TIP3   OH265212   3.764   5.516   1.778 -0.0508  0.3773 -0.3217
14574TIP3    H165213   3.817   5.534   1.700  0.0591  1.2417 -0.0669
14574TIP3    H265214   3.679   5.490   1.744 -0.0928  1.0277 -0.7470
14575TIP3   OH265215   5.275   2.720   1.647  0.1589 -0.1715  1.6016
14575TIP3    H165216   5.284   2.809   1.613 -1.7677  0.4577  2.5685
14575TIP3    H265217   5.242   2.669   1.573 -0.8977  0.4624  1.5992
14576TIP3   OH265218   4.244   3.960   0.036  0.6811  0.0666 -0.3572
14576TIP3    H165219   4.299   4.028   0.075  1.1023 -0.9833  0.9608
14576TIP3    H265220   4.260   3.882   0.090  0.1485 -1.0616 -1.7652
14577TIP3   OH265221   0.200   1.560   5.226 -0.3209 -0.0352  0.5125
14577TIP3    H165222   0.180   1.592   5.138  0.1413 -0.4615  0.2500
14577TIP3    H265223   0.117   1.525   5.258 -1.3532  2.9908  1.5176
14578TIP3   OH265224   2.138   1.081   0.555 -0.3362  0.0788 -0.4719
14578TIP3    H165225   2.107   1.171   0.563 -1.8146 -0.5198  1.1269
14578TIP3    H265226   2.205   1.073   0.623 -0.6793 -0.1915 -0.1583
14579TIP3   OH265227   5.840   0.090   2.897 -0.5111 -0.0484  0.2531
14579TIP3    H165228   5.909   0.130   2.843  0.8713  0.3725  2.2374
14579TIP3    H265229   5.884   0.065   2.978 -2.3917 -1.2233  0.9797
14580TIP3   OH265230   0.500   3.482   6.638 -0.5388  0.0608  0.2719
14580TIP3    H165231   0.501   3.493   6.733 -0.1569  2.0005  0.0753
14580TIP3    H265232   0.428   3.538   6.608 -0.7414 -0.6340 -0.5816
14581TIP3   OH265233   3.555   1.156  10.522 -0.1570 -0.4458 -0.5668
14581TIP3    H165234   3.598   1.086  10.572  0.1241 -0.6806 -1.1303
14581TIP3    H265235   3.618   1.227  10.521 -0.3123 -0.2986 -0.2769
14582TIP3   OH265236   6.395   6.563  11.388 -0.4719  0.2302 -0.0782
14582TIP3    H165237   6.415   6.570  11.482  0.7632 -1.9137 -0.1131
14582TIP3    H265238   6.477   6.588  11.345  0.1865 -2.2567 -0.4244
14583TIP3   OH265239   5.763   1.389   2.658 -0.1358  0.0678  0.1888
14583TIP3    H165240   5.683   1.391   2.605 -0.6476 -1.5067  0.8364
14583TIP3    H265241   5.831   1.362   2.596 -0.6561 -1.3788  0.1995
14584TIP3   OH265242   0.764   3.027  16.720  0.1524  0.5132  0.6560
14584TIP3    H165243   0.705   3.062  16.786 -1.5150  0.6110 -0.8125
14584TIP3    H265244   0.753   3.085  16.644  1.7524  0.2130  0.1497
14585TIP3   OH265245   5.224   2.357   4.077  0.6257 -0.0809 -0.0917
14585TIP3    H165246   5.137   2.396   4.084  0.6176 -0.2721  1.3575
14585TIP3    H265247   5.269   2.408   4.009  0.2368  1.7277  0.9307
14586TIP3   OH265248   5.565   2.693  11.521 -0.2850 -0.6673  0.0037
14586TIP3    H165249   5.564   2.764  11.458 -1.3647 -0.8718 -0.2235
14586TIP3    H265250   5.615   2.727  11.595 -1.2103  0.5136  0.1031
14587TIP3   OH265251   3.263   2.204   3.014 -0.0294  0.5594 -0.0637
14587TIP3    H165252   3.204   2.136   2.981 -0.6073  0.4597  1.1232
14587TIP3    H265253   3.206   2.274   3.044  0.5229  1.1278 -0.3122
14588TIP3   OH265254   1.033   1.415  15.171  0.2246 -0.1297  0.3651
14588TIP3    H165255   1.017   1.509  15.162  2.2088  0.2250  0.2427
14588TIP3    H265256   1.014   1.379  15.085  1.2771  0.4496 -0.1115
14589TIP3   OH265257   0.252   1.597  12.458 -0.1028 -0.3163 -0.0777
14589TIP3    H165258   0.215   1.684  12.447 -1.3436 -0.6048  1.4764
14589TIP3    H265259   0.346   1.611  12.466 -0.2022  0.7752 -0.6797
14590TIP3   OH265260   6.383   2.217   0.776  0.3970 -0.6993  0.5521
14590TIP3    H165261   6.426   2.140   0.815  0.0035 -0.4863  1.4308
14590TIP3    H265262   6.454   2.279   0.760  0.4389 -0.3233  2.0582
14591TIP3   OH265263   3.558   4.230   0.438 -0.1807  0.4967  0.8767
14591TIP3    H165264   3.542   4.218   0.532  0.8513 -2.5687  0.7625
14591TIP3    H265265   3.473   4.217   0.398 -0.0682 -1.6477  1.2175
14592TIP3   OH265266   2.900   1.623   5.004 -0.0521  0.1079  0.6194
14592TIP3    H165267   2.893   1.715   4.980  2.7620 -0.0481 -1.3021
14592TIP3    H265268   2.844   1.577   4.942  0.9009  0.3536 -0.4659
14593TIP3   OH265269   3.225   1.123   4.431 -0.1925  0.7514  0.1600
14593TIP3    H165270   3.314   1.109   4.464 -0.1118  0.5478 -0.1379
14593TIP3    H265271   3.172   1.058   4.475  0.1587 -0.4521 -1.1244
14594TIP3   OH265272   3.402   2.584  14.680 -0.8858 -0.3370 -0.5203
14594TIP3    H165273   3.343   2.638  14.628  0.4888  1.9742  0.1813
14594TIP3    H265274   3.417   2.635  14.759 -0.2262 -2.2043  0.6135
14595TIP3   OH265275   1.183   2.493   5.233 -0.1604 -0.5785  0.2712
14595TIP3    H165276   1.117   2.465   5.296  1.0417 -0.8806  1.4445
14595TIP3    H265277   1.266   2.483   5.279  0.8439 -1.5907 -1.6190
14596TIP3   OH265278   3.162   1.675   3.966  0.0719  0.3516 -0.1610
14596TIP3    H165279   3.240   1.680   3.912 -0.9093 -0.0369 -1.6865
14596TIP3    H265280   3.108   1.749   3.937 -1.3369 -1.0241 -1.2060
14597TIP3   OH265281   1.141   5.095   3.719 -1.0339  0.4006 -0.0338
14597TIP3    H165282   1.140   5.138   3.634 -0.9758  1.4866  0.4987
14597TIP3    H265283   1.054   5.114   3.756 -0.5294  1.2476  0.7701
14598TIP3   OH265284   6.774   3.923   5.181  0.5977  0.5927  0.2583
14598TIP3    H165285   6.685   3.902   5.209  0.9388  0.0806  0.9773
14598TIP3    H265286   6.829   3.857   5.222  1.3016  0.8040 -0.3087
14599TIP3   OH265287   4.915   3.873  15.695  0.1637 -0.0719 -0.1405
14599TIP3    H165288   4.888   3.865  15.604  1.5535 -1.1994 -0.4959
14599TIP3    H265289   4.950   3.786  15.717 -0.0029  0.2232  1.4229
14600TIP3   OH265290   6.814   6.179  13.623  0.4853 -0.0927  0.4421
14600TIP3    H165291   6.845   6.095  13.655  3.4289  0.1003 -1.4394
14600TIP3    H265292   6.839   6.241  13.692  2.5574 -0.2564 -0.0769
14601TIP3   OH265293   1.289   3.047   0.819 -0.0247 -0.0075 -0.0754
14601TIP3    H165294   1.212   3.002   0.853 -0.0572  1.8105  2.6923
14601TIP3    H265295   1.254   3.125   0.777  0.1967  1.2728  1.9451
14602TIP3   OH265296   3.734   0.918  14.321  0.0900 -0.0368  0.3393
14602TIP3    H165297   3.682   0.992  14.290  0.7237 -0.8451 -3.1001
14602TIP3    H265298   3.674   0.844  14.317  0.3774 -0.2774  0.4594
14603TIP3   OH265299   1.475   6.655   2.384  0.6194 -0.1583 -0.4818
14603TIP3    H165300   1.506   6.729   2.331 -0.3493  0.3649 -0.3479
14603TIP3    H265301   1.390   6.684   2.418  0.5336 -1.0789  0.1246
14604TIP3   OH265302   5.903   0.567  12.330 -0.1143  0.2397 -0.0969
14604TIP3    H165303   5.883   0.508  12.257  1.6369 -2.2499  1.3139
14604TIP3    H265304   5.931   0.648  12.288 -0.5507 -0.6033 -2.1461
14605TIP3   OH265305   5.921   5.695   5.114 -0.1497  0.3985 -0.3146
14605TIP3    H165306   5.908   5.787   5.089  1.3999  0.5712 -0.6190
14605TIP3    H265307   5.863   5.646   5.057 -1.5599  1.2095  0.3492
14606TIP3   OH265308   5.121   0.120  14.682 -0.0622 -0.1358  0.5114
14606TIP3    H165309   5.054   0.186  14.699  1.0113  0.8279  1.2375
14606TIP3    H265310   5.124   0.068  14.762  1.1141  0.8343  1.1353
14607TIP3   OH265311   2.422   3.202   3.400  0.5200 -0.3059  0.5889
14607TIP3    H165312   2.361   3.203   3.474  1.4379 -0.4364  1.3705
14607TIP3    H265313   2.491   3.263   3.426  0.5813  0.0747 -0.4166
14608TIP3   OH265314   4.769   2.300   0.483 -0.1430  0.0562 -0.0341
14608TIP3    H165315   4.814   2.232   0.433  0.6577  0.1179  0.5832
14608TIP3    H265316   4.676   2.277   0.476  0.0054 -0.2897 -1.0016
14609TIP3   OH265317   3.026   0.405   1.083 -0.4602 -0.0521 -0.1365
14609TIP3    H165318   2.949   0.379   1.033  1.3396 -1.9786 -2.1632
14609TIP3    H265319   3.042   0.496   1.057 -1.7806  0.2442  0.0125
14610TIP3   OH265320   1.856   6.111  12.306 -0.5158  0.3454 -0.1802
14610TIP3    H165321   1.909   6.041  12.343 -0.1372  0.5144 -0.3938
14610TIP3    H265322   1.914   6.188  12.307 -0.1658  0.1486 -1.9498
14611TIP3   OH265323   5.509   6.806   4.974 -0.4354 -0.0788  0.1261
14611TIP3    H165324   5.572   6.754   5.022 -0.3865 -0.8539 -0.7427
14611TIP3    H265325   5.524   6.783   4.882 -1.2197  0.5680 -0.1784
14612TIP3   OH265326   0.401   0.884   0.490 -0.2361  0.7081  0.2837
14612TIP3    H165327   0.449   0.870   0.408  0.3171 -1.8907  0.9614
14612TIP3    H265328   0.315   0.916   0.461 -0.1537 -0.4167 -1.3790
14613TIP3   OH265329   4.903   1.670   2.382  0.4981 -0.4383 -0.1321
14613TIP3    H165330   4.914   1.578   2.408 -1.5098 -1.2724 -1.9373
14613TIP3    H265331   4.809   1.681   2.374  0.5800  2.2854  1.5120
14614TIP3   OH265332   2.772   3.327  15.106  0.9377  0.4770  0.0584
14614TIP3    H165333   2.770   3.380  15.186 -0.9715  1.6406 -0.6834
14614TIP3    H265334   2.861   3.338  15.073  0.8939  2.5197  0.4548
14615TIP3   OH265335   1.910   1.098  13.279 -0.0577 -0.5558 -0.1619
14615TIP3    H165336   1.819   1.092  13.308 -0.2817  0.8685 -0.5169
14615TIP3    H265337   1.962   1.084  13.358 -0.6457  2.2769  0.8320
14616TIP3   OH265338   2.608   5.593  11.460  0.0768 -0.6092  0.1626
14616TIP3    H165339   2.648   5.508  11.475  0.1319 -0.4517  0.9257
14616TIP3    H265340   2.584   5.625  11.547 -1.0386 -0.3651 -0.2176
14617TIP3   OH265341   4.113   2.861  14.205  0.0181  0.7811  0.3438
14617TIP3    H165342   4.053   2.885  14.134 -0.0452 -1.0945 -0.2854
14617TIP3    H265343   4.162   2.941  14.224  0.3111  1.2295 -2.0914
14618TIP3   OH265344   1.312   4.507  17.041  0.1712  0.4555 -0.4208
14618TIP3    H165345   1.233   4.462  17.010 -0.1862 -0.0021  1.0778
14618TIP3    H265346   1.372   4.436  17.063 -0.4640  0.6241  2.1457
14619TIP3   OH265347   4.957   0.095  15.817  0.4221 -0.0298  0.4083
14619TIP3    H165348   4.906   0.017  15.794  0.5520 -0.2332  0.8072
14619TIP3    H265349   4.934   0.159  15.750 -1.1408  0.2413  1.1790
14620TIP3   OH265350   5.989   3.632  15.204 -0.2112  0.3658  0.1319
14620TIP3    H165351   5.992   3.566  15.136 -2.0033 -0.1188  0.4894
14620TIP3    H265352   6.025   3.589  15.281 -0.1522  0.2445  0.0369
14621TIP3   OH265353   3.515   0.185  16.928  0.5845  0.2784  0.0727
14621TIP3    H165354   3.588   0.238  16.959 -0.3091  0.6399  1.6651
14621TIP3    H265355   3.464   0.244  16.874 -0.1023  0.9393  1.3835
14622TIP3   OH265356   1.872   3.764  12.981 -0.1258 -0.1621 -0.2476
14622TIP3    H165357   1.914   3.690  13.024  0.9631 -0.7368 -2.1532
14622TIP3    H265358   1.842   3.729  12.897 -0.1639  1.4096 -0.9285
14623TIP3   OH265359   6.687   0.550  15.164  0.2236 -0.6779 -0.5106
14623TIP3    H165360   6.688   0.464  15.121  2.5380 -0.3948 -1.1734
14623TIP3    H265361   6.766   0.593  15.132  0.7863  0.4911  2.1884
14624TIP3   OH265362   3.901   3.235   5.986  0.1219 -0.5538  0.1443
14624TIP3    H165363   3.818   3.194   6.010  0.6300 -0.8028  1.5506
14624TIP3    H265364   3.934   3.273   6.067  2.2393 -1.9802  0.0250
14625TIP3   OH265365   5.656   4.002  15.966 -0.2603 -0.2955 -0.2405
14625TIP3    H165366   5.590   3.959  15.911 -0.2793 -0.5948  0.0118
14625TIP3    H265367   5.730   4.016  15.908 -0.9482  1.0643 -0.8369
14626TIP3   OH265368   0.085   1.310   0.356 -0.2298 -0.4645  0.4502
14626TIP3    H165369   0.108   1.329   0.447  1.4038 -0.4824  0.0862
14626TIP3    H265370   0.042   1.225   0.359 -0.7207 -0.1978  1.2631
14627TIP3   OH265371   5.295   4.749  13.015  0.2411  0.0832 -0.5331
14627TIP3    H165372   5.319   4.807  13.087 -0.0128  0.7239 -0.9582
14627TIP3    H265373   5.202   4.731  13.028  0.1171  0.4639 -0.8848
14628TIP3   OH265374   4.029   4.801  11.970 -0.2490  0.8408 -0.1613
14628TIP3    H165375   3.936   4.800  11.950 -0.4693  2.4787  0.5531
14628TIP3    H265376   4.068   4.855  11.902  0.4281 -0.9372 -1.2402
14629TIP3   OH265377   3.895   3.206  13.497 -0.7810 -0.3547  0.8910
14629TIP3    H165378   3.816   3.155  13.480  1.1522 -2.9971 -1.1063
14629TIP3    H265379   3.901   3.269  13.425 -0.7612 -0.6025  0.6748
14630TIP3   OH265380   6.011   3.715   6.103 -0.6914  0.5451 -0.6370
14630TIP3    H165381   6.092   3.691   6.148 -0.2933 -0.5537 -1.8845
14630TIP3    H265382   5.944   3.709   6.170  0.0465  0.0606  0.0801
14631TIP3   OH265383   1.817   1.934  12.590 -0.4974  0.2714  0.6920
14631TIP3    H165384   1.852   1.891  12.511 -0.1230 -0.3171  1.1684
14631TIP3    H265385   1.832   2.027  12.576 -0.8568  0.2140 -0.1399
14632TIP3   OH265386   5.778   2.975  14.671 -0.3551 -0.5215 -0.5041
14632TIP3    H165387   5.738   2.952  14.587  1.1055  0.1912 -1.4423
14632TIP3    H265388   5.790   3.070  14.666  0.6519 -0.6022  0.0804
14633TIP3   OH265389   3.558   2.349  11.483  0.1181  0.1871 -0.0301
14633TIP3    H165390   3.506   2.405  11.425  1.9460  2.1085  0.0759
14633TIP3    H265391   3.606   2.291  11.424 -1.5906 -1.1878 -0.1535
14634TIP3   OH265392   6.230   5.778  12.480 -0.1891  0.0666  0.3566
14634TIP3    H165393   6.282   5.814  12.409  0.3917  0.8658  1.1558
14634TIP3    H265394   6.163   5.845  12.497 -0.9668 -0.5782 -0.1069
14635TIP3   OH265395   2.853   4.188  13.695  1.0966 -0.3870 -0.2090
14635TIP3    H165396   2.834   4.217  13.784 -0.0733 -0.0853 -0.5473
14635TIP3    H265397   2.877   4.269  13.649 -1.1637 -0.0503 -0.8927
14636TIP3   OH265398   1.909   3.791  12.607  0.3542  0.1010  0.5857
14636TIP3    H165399   1.861   3.749  12.678 -2.7313 -0.3700 -1.5450
14636TIP3    H265400   1.883   3.742  12.528  1.4449  2.2142 -1.2008
14637TIP3   OH265401   4.642   4.341  12.955  0.2637  0.4050 -0.2501
14637TIP3    H165402   4.547   4.339  12.943  0.2246  1.7529 -0.3117
14637TIP3    H265403   4.664   4.434  12.956  1.4500  0.1335  0.8941
14638TIP3   OH265404   2.425   0.422  14.033  0.0440  0.1228 -1.0207
14638TIP3    H165405   2.397   0.408  13.943 -0.4938  1.3085 -1.0562
14638TIP3    H265406   2.352   0.469  14.074  0.9380  1.0238 -0.4206
14639TIP3   OH265407   1.249   5.075   4.721 -0.1217 -0.3427  0.6478
14639TIP3    H165408   1.333   5.084   4.676 -1.4111  0.1206 -1.8679
14639TIP3    H265409   1.260   5.123   4.803  2.0787 -0.3778  0.4219
14640TIP3   OH265410   3.507   5.627  12.955 -0.1577 -0.7509  0.4729
14640TIP3    H165411   3.578   5.604  13.014 -0.6540 -1.4885  0.7929
14640TIP3    H265412   3.487   5.719  12.976  0.5573 -0.5960  0.5103
14641TIP3   OH265413   3.337   6.308   0.767  0.1674  0.1729 -0.1319
14641TIP3    H165414   3.318   6.299   0.860 -0.0458 -0.0077 -0.1908
14641TIP3    H265415   3.377   6.394   0.759  0.2084  0.1799  0.1296
14642TIP3   OH265416   3.275   4.305  11.843 -0.2834 -0.6331 -0.2855
14642TIP3    H165417   3.301   4.395  11.829 -2.7555  0.1043 -0.6445
14642TIP3    H265418   3.292   4.289  11.936  0.7527 -0.0424 -0.3605
14643TIP3   OH265419   5.380   4.969   3.383  0.3197 -0.0532  0.0058
14643TIP3    H165420   5.305   4.992   3.436  0.7595 -0.7019  0.9433
14643TIP3    H265421   5.361   4.881   3.351  1.2572 -0.8080  1.4034
14644TIP3   OH265422   3.964   5.481  11.546 -0.1641  0.2705  0.1502
14644TIP3    H165423   4.022   5.537  11.598 -1.8843  0.4995  1.9649
14644TIP3    H265424   3.916   5.430  11.612 -0.6165 -1.3436 -1.3575
14645TIP3   OH265425   6.681   3.218  14.981  0.2533  0.0941  0.0632
14645TIP3    H165426   6.648   3.232  15.070 -0.1488  0.8552 -0.1955
14645TIP3    H265427   6.774   3.198  14.993  0.2818  0.5371  0.6363
14646TIP3   OH265428   2.316   5.512   1.343  0.3576 -0.4945  0.1497
14646TIP3    H165429   2.397   5.563   1.349 -0.3102  0.7414 -0.8000
14646TIP3    H265430   2.265   5.540   1.418  0.5487 -0.7958  0.3928
14647TIP3   OH265431   4.626   0.276  16.353  0.2906  0.2531  0.3039
14647TIP3    H165432   4.675   0.291  16.434 -0.8310 -0.5853  1.1596
14647TIP3    H265433   4.587   0.189  16.363 -0.7251  0.5609 -0.6824
14648TIP3   OH265434   3.449   6.094  14.148 -0.1379  0.0253  0.5102
14648TIP3    H165435   3.424   6.038  14.222 -2.0832 -1.1376 -0.9155
14648TIP3    H265436   3.488   6.034  14.084 -0.0945  0.6958 -0.1100
14649TIP3   OH265437   4.357   3.288   2.114  0.2615  0.0995 -0.1642
14649TIP3    H165438   4.420   3.242   2.058 -0.2992 -0.1100 -0.6299
14649TIP3    H265439   4.315   3.351   2.055  0.1332  0.3392  0.1817
14650TIP3   OH265440   2.991   0.850   4.819 -0.0673  0.1900 -0.0423
14650TIP3    H165441   3.084   0.867   4.831  0.2289 -1.4738  0.2274
14650TIP3    H265442   2.947   0.926   4.857  1.1392  0.2016  1.3867
14651TIP3   OH265443   3.384   4.175   5.806 -0.3122  0.4265  0.6179
14651TIP3    H165444   3.418   4.265   5.804  2.7363 -0.5972 -0.7759
14651TIP3    H265445   3.293   4.182   5.778 -0.8284  3.2481  2.6126
14652TIP3   OH265446   0.399   3.228   0.895 -1.0325  0.1586  0.5359
14652TIP3    H165447   0.359   3.292   0.837 -0.6705  1.0789  1.2769
14652TIP3    H265448   0.455   3.280   0.953 -0.0146 -0.9271  0.5615
14653TIP3   OH265449   4.312   1.783  16.000 -0.2290 -0.2474  0.1415
14653TIP3    H165450   4.351   1.783  15.913  1.1162  1.8021  0.6706
14653TIP3    H265451   4.226   1.744  15.987  0.1828 -0.6079 -1.9655
14654TIP3   OH265452   5.838   3.079   4.031  0.1601 -0.0934 -0.5239
14654TIP3    H165453   5.889   3.108   4.107 -0.3811 -0.0126 -0.1865
14654TIP3    H265454   5.756   3.048   4.068 -0.2124  0.1869 -1.1079
14655TIP3   OH265455   5.987   3.328  11.665 -0.3314 -0.4138  0.3655
14655TIP3    H165456   5.983   3.354  11.573  0.9813 -1.1199  0.0766
14655TIP3    H265457   5.899   3.346  11.699 -0.4553  1.1304 -0.6588
14656TIP3   OH265458   4.560   0.641   0.865  0.4924 -0.1492 -0.2556
14656TIP3    H165459   4.524   0.680   0.944 -0.1169  0.6445 -0.9026
14656TIP3    H265460   4.511   0.560   0.852  0.4962 -0.2064  0.1001
14657TIP3   OH265461   0.504   3.763  14.280  0.5428  0.2545 -0.2259
14657TIP3    H165462   0.528   3.670  14.281  0.4788  0.1295  3.7707
14657TIP3    H265463   0.418   3.765  14.237 -0.1152 -1.7752  0.8742
14658TIP3   OH265464   3.769   1.219  14.604 -0.5909  0.1064  0.1985
14658TIP3    H165465   3.819   1.226  14.522 -0.7322  1.7918  0.2325
14658TIP3    H265466   3.766   1.125  14.621  2.6081 -0.1293  0.2211
14659TIP3   OH265467   4.807   6.057  16.071  0.2372  0.3046  0.2208
14659TIP3    H165468   4.730   6.061  16.015 -0.8023  0.0516  1.5687
14659TIP3    H265469   4.852   6.140  16.056 -0.6496  0.7339 -0.1338
14660TIP3   OH265470   3.220   2.341  16.504  0.0269 -0.8394  0.4113
14660TIP3    H165471   3.213   2.357  16.599  2.8879 -1.7684  0.8658
14660TIP3    H265472   3.313   2.343  16.486 -0.4098 -1.3035 -2.3356
14661TIP3   OH265473   1.586   2.829  15.991 -0.4989  0.2060 -0.4245
14661TIP3    H165474   1.532   2.841  16.069  0.5121 -0.2430  0.3709
14661TIP3    H265475   1.591   2.734  15.980 -0.6179  0.2632 -1.0429
14662TIP3   OH265476   1.776   4.203   2.726  0.6650  0.6274  0.1900
14662TIP3    H165477   1.822   4.154   2.657  2.1873  2.3106 -0.0657
14662TIP3    H265478   1.809   4.166   2.808  0.8671  0.4063  0.0088
14663TIP3   OH265479   2.924   1.443  16.165 -0.4008 -0.2589  0.1618
14663TIP3    H165480   2.927   1.533  16.197 -0.4994 -0.3942  0.5504
14663TIP3    H265481   2.985   1.395  16.220  0.2549 -0.2734 -0.5556
14664TIP3   OH265482   2.243   6.059   4.803 -0.1738 -0.6734  0.5872
14664TIP3    H165483   2.246   5.968   4.775  1.2664 -0.7828  1.0350
14664TIP3    H265484   2.330   6.076   4.839 -0.8169  0.5183  1.6450
14665TIP3   OH265485   1.979   4.379   1.003  0.0470  0.3121  0.5205
14665TIP3    H165486   1.887   4.357   1.022  0.6215 -2.3197  0.6689
14665TIP3    H265487   2.002   4.322   0.930  1.9279 -0.0534  1.3532
14666TIP3   OH265488   2.853   4.128   4.765 -0.0658 -0.1817  0.3651
14666TIP3    H165489   2.930   4.177   4.735 -0.4526  0.1170 -0.1774
14666TIP3    H265490   2.788   4.195   4.786 -0.3495 -0.4356  0.3240
14667TIP3   OH265491   5.595   2.643   0.560 -0.2291 -0.1768 -0.6932
14667TIP3    H165492   5.688   2.622   0.549 -0.2941 -0.4724 -0.6794
14667TIP3    H265493   5.587   2.733   0.528  0.1566  0.0227 -0.2492
14668TIP3   OH265494   1.132   4.062   1.045  0.1302 -0.4803 -0.5129
14668TIP3    H165495   1.189   4.104   0.981  1.1783  0.6123  1.0559
14668TIP3    H265496   1.053   4.117   1.046  0.0706 -0.5562 -0.9206
14669TIP3   OH265497   5.901   5.418   0.637  0.0890  0.7893 -0.3977
14669TIP3    H165498   5.892   5.470   0.557 -0.8590  1.7691  0.3177
14669TIP3    H265499   5.956   5.471   0.694  0.4996  0.2378 -0.2789
14670TIP3   OH265500   2.680   2.770   4.547 -0.2394  0.3718 -0.1778
14670TIP3    H165501   2.730   2.850   4.530 -0.5487  0.5222 -0.3806
14670TIP3    H265502   2.632   2.788   4.628 -0.6834  0.5728 -0.4827
14671TIP3   OH265503   1.009   4.189  14.855  0.4106 -0.0283 -0.0599
14671TIP3    H165504   0.973   4.277  14.839  0.9919  0.3453  0.6394
14671TIP3    H265505   1.036   4.158  14.769  1.1920  0.9244 -0.1698
14672TIP3   OH265506   6.073   5.604  14.516 -0.1088  0.0100 -0.5131
14672TIP3    H165507   5.984   5.626  14.491 -0.1876  0.5711  0.2226
14672TIP3    H265508   6.065   5.568  14.604  0.4642  0.7972 -0.1270
14673TIP3   OH265509   1.060   3.674  16.103  0.2424  0.2861 -0.0992
14673TIP3    H165510   1.148   3.695  16.134 -0.6224 -0.4667  3.2180
14673TIP3    H265511   1.002   3.701  16.175 -2.3771  1.4864 -2.4703
14674TIP3   OH265512   2.614   0.440  15.189  0.2757 -0.0330  0.3575
14674TIP3    H165513   2.557   0.499  15.140 -0.4153 -0.4961  0.5861
14674TIP3    H265514   2.605   0.356  15.144  1.9993  0.2276 -0.5651
14675TIP3   OH265515   3.192   3.102  17.084 -0.1648  0.1842 -0.4250
14675TIP3    H165516   3.257   3.088  17.153  0.5656  0.4285 -1.0522
14675TIP3    H265517   3.111   3.121  17.132  0.1549 -0.3997  0.3704
14676TIP3   OH265518   6.430   3.874  13.466  0.0772 -0.0245 -0.0074
14676TIP3    H165519   6.437   3.867  13.562  1.2395 -0.7115 -0.1163
14676TIP3    H265520   6.481   3.799  13.434 -0.8487 -0.1792 -1.1653
14677TIP3   OH265521   0.844   1.694  12.640 -0.3068  0.6409 -1.0320
14677TIP3    H165522   0.886   1.768  12.598  1.0815  0.3695 -0.1927
14677TIP3    H265523   0.903   1.620  12.623  0.3382  0.5359  1.3580
14678TIP3   OH265524   6.696   6.057  15.954  0.2104 -0.3511  0.0034
14678TIP3    H165525   6.702   6.090  15.864  0.8984 -0.5850 -0.0457
14678TIP3    H265526   6.623   5.995  15.952  0.2884 -0.4362 -0.4240
14679TIP3   OH265527   0.399   5.712   0.722 -0.4396 -0.2451  0.2663
14679TIP3    H165528   0.381   5.730   0.814 -0.8945  0.1734  0.1005
14679TIP3    H265529   0.492   5.732   0.711 -0.6210  0.7163  0.4011
14680TIP3   OH265530   6.019   3.200   1.310 -0.0192 -0.1148  0.2103
14680TIP3    H165531   5.960   3.258   1.358  0.5350  0.8806 -0.2780
14680TIP3    H265532   6.101   3.249   1.303  0.1317 -0.5061 -1.1416
14681TIP3   OH265533   4.850   5.097  13.382  0.7182 -0.1490  1.0719
14681TIP3    H165534   4.858   5.190  13.404 -0.2877  0.3151 -0.3887
14681TIP3    H265535   4.866   5.094  13.288  0.0724 -1.3685  0.9914
14682TIP3   OH265536   6.753   0.860   0.508  0.7236 -0.2036 -0.6821
14682TIP3    H165537   6.773   0.784   0.562 -1.3885  0.2787  0.9047
14682TIP3    H265538   6.743   0.825   0.419  0.3498 -1.7016 -0.0694
14683TIP3   OH265539   0.429   5.562  15.125  0.5943  0.6453  0.1744
14683TIP3    H165540   0.376   5.552  15.204 -0.1406  0.1614 -0.3678
14683TIP3    H265541   0.367   5.591  15.058  0.8835 -0.5436 -0.6281
14684TIP3   OH265542   1.867   5.153  15.001  0.0934 -0.5688  0.4179
14684TIP3    H165543   1.929   5.095  14.956 -1.3745 -1.5400 -0.4439
14684TIP3    H265544   1.865   5.120  15.091  0.6450 -0.6794  0.3942
14685TIP3   OH265545   1.504   3.238   0.630 -0.3941 -0.0392 -0.2239
14685TIP3    H165546   1.516   3.164   0.570 -0.6992  1.1308 -1.7791
14685TIP3    H265547   1.551   3.212   0.709 -1.6477 -2.4785 -0.1979
14686TIP3   OH265548   2.170   4.440   5.401 -0.6571 -0.8705  0.4529
14686TIP3    H165549   2.237   4.421   5.336  0.7397 -2.3693  2.2084
14686TIP3    H265550   2.087   4.425   5.355  0.0784  1.5589 -1.9261
14687TIP3   OH265551   6.251   3.744  13.110 -0.1415  0.1301 -0.4032
14687TIP3    H165552   6.251   3.729  13.204  0.6133  0.5493 -0.3258
14687TIP3    H265553   6.213   3.831  13.100  0.9250  0.6121 -0.3778
14688TIP3   OH265554   3.252   3.844  14.188  0.5507 -0.0104 -0.7209
14688TIP3    H165555   3.175   3.821  14.136  0.5069  0.5090 -0.8901
14688TIP3    H265556   3.275   3.763  14.234  0.3204 -0.3530 -1.2014
14689TIP3   OH265557   4.669   6.573   3.751 -0.1578 -0.1945 -0.1118
14689TIP3    H165558   4.659   6.509   3.822  0.0467  0.1395  0.2171
14689TIP3    H265559   4.652   6.522   3.671 -1.8846 -0.2626  0.2420
14690TIP3   OH265560   3.005   5.348   1.748 -0.2842  0.4544  0.1083
14690TIP3    H165561   2.968   5.390   1.826 -1.3060  0.0999 -0.1751
14690TIP3    H265562   2.943   5.278   1.727  1.2407 -1.0449  0.4152
14691TIP3   OH265563   0.242   4.263  10.943  0.5741 -0.6086  0.3066
14691TIP3    H165564   0.273   4.187  10.893  1.2504 -0.0261 -0.1808
14691TIP3    H265565   0.307   4.331  10.926  0.1832 -0.0339  1.0495
14692TIP3   OH265566   2.090   2.813   4.098  0.1667 -0.1089  0.2508
14692TIP3    H165567   2.160   2.753   4.126  0.1543 -1.0253 -1.5088
14692TIP3    H265568   2.013   2.784   4.148  0.6390 -0.2233  0.9273
14693TIP3   OH265569   2.876   3.932   1.219 -0.1963  0.3704  0.3610
14693TIP3    H165570   2.900   3.866   1.283  0.9552  1.3884  1.0313
14693TIP3    H265571   2.827   3.885   1.152 -0.3154 -0.9469  1.3487
14694TIP3   OH265572   5.197   3.160  12.773  0.4139 -0.0780  0.2812
14694TIP3    H165573   5.149   3.205  12.842 -1.0993 -1.5351  0.2462
14694TIP3    H265574   5.176   3.209  12.693 -0.1833 -0.0968  0.4253
14695TIP3   OH265575   5.253   3.612  16.313  0.2259 -0.1134 -0.0454
14695TIP3    H165576   5.333   3.618  16.261 -0.3341  0.3230 -0.8900
14695TIP3    H265577   5.276   3.557  16.387  1.1140 -0.5619 -0.6388
14696TIP3   OH265578   1.638   2.580  15.141 -0.2543 -0.3507  0.2842
14696TIP3    H165579   1.656   2.590  15.235 -0.7231 -0.0676  0.3457
14696TIP3    H265580   1.724   2.588  15.100 -0.3059  2.1435  0.4893
14697TIP3   OH265581   2.929   3.065   1.142  0.2622  0.0264  0.5993
14697TIP3    H165582   2.914   3.010   1.219 -2.4412 -0.0673  0.1119
14697TIP3    H265583   2.883   3.020   1.071 -1.4945  2.4874  0.0417
14698TIP3   OH265584   4.981   0.931  15.965 -0.2139 -0.3727  0.3021
14698TIP3    H165585   4.996   0.838  15.948 -0.5462 -0.5306  0.8369
14698TIP3    H265586   4.897   0.950  15.922  0.6437  0.0987 -1.2411
14699TIP3   OH265587   4.543   6.182   4.810  0.1266 -0.2084  0.2174
14699TIP3    H165588   4.508   6.249   4.751  0.3226  0.8301  1.2333
14699TIP3    H265589   4.474   6.117   4.817 -0.9385  0.9345  0.8107
14700TIP3   OH265590   6.284   1.897   3.986 -0.1694  0.2092  0.3942
14700TIP3    H165591   6.375   1.907   3.960  1.0634 -0.8902  3.7966
14700TIP3    H265592   6.257   1.984   4.015 -0.4357  0.6422 -1.0581
14701TIP3   OH265593   1.433   0.600   1.824  0.3069  0.2399  0.8726
14701TIP3    H165594   1.504   0.609   1.760 -0.1653  0.2039  0.3295
14701TIP3    H265595   1.378   0.677   1.810  0.2698  0.2999  1.3326
14702TIP3   OH265596   4.094   0.302  15.316 -0.2084 -0.0687 -0.4344
14702TIP3    H165597   4.012   0.289  15.363  0.5347  1.3150  1.3806
14702TIP3    H265598   4.118   0.214  15.285 -1.0880 -0.9401  1.2223
14703TIP3   OH265599   0.877   6.612  12.880  0.0263  0.2558  0.1851
14703TIP3    H165600   0.925   6.557  12.942 -0.2230 -0.2130 -0.0332
14703TIP3    H265601   0.852   6.689  12.930 -0.4431 -0.2606  0.7490
14704TIP3   OH265602   0.590   3.180   1.111  1.0793  0.0714 -0.6124
14704TIP3    H165603   0.521   3.246   1.122  1.2570  0.3911 -1.3711
14704TIP3    H265604   0.556   3.103   1.157 -0.1377 -0.0278 -1.6110
14705TIP3   OH265605   5.228   6.524  13.257 -0.1676 -0.1442  0.1044
14705TIP3    H165606   5.199   6.469  13.329 -0.5887  0.4047  0.3498
14705TIP3    H265607   5.243   6.462  13.185 -1.0803 -0.5360  0.2374
14706TIP3   OH265608   0.872   1.090  10.811 -0.0861 -0.8223 -0.0553
14706TIP3    H165609   0.918   1.010  10.837 -0.1621 -1.4660 -1.7716
14706TIP3    H265610   0.915   1.160  10.860  0.6423 -1.7850  0.7203
14707TIP3   OH265611   2.154   5.608  15.929  0.2831 -0.2203  0.0234
14707TIP3    H165612   2.129   5.537  15.870  0.0203 -1.3460  1.4193
14707TIP3    H265613   2.250   5.609  15.926  0.2615  0.2232 -0.9441
14708TIP3   OH265614   4.980   4.973  14.283 -0.4813  0.6195 -0.1710
14708TIP3    H165615   4.959   4.897  14.337 -0.6230  1.5501  1.1167
14708TIP3    H265616   5.030   4.937  14.210 -0.7360 -0.7353  0.2898
14709TIP3   OH265617   0.988   2.218   1.529  0.0147 -0.7206 -0.2958
14709TIP3    H165618   1.016   2.157   1.460 -2.6191 -0.4356 -1.7185
14709TIP3    H265619   1.025   2.302   1.503  2.0936 -1.2521  0.6852
14710TIP3   OH265620   4.852   3.190   5.940 -0.1331 -0.4474 -0.2943
14710TIP3    H165621   4.882   3.275   5.906 -2.2633  0.6511  0.3776
14710TIP3    H265622   4.861   3.131   5.866  2.4854  0.0247 -0.4565
14711TIP3   OH265623   0.415   6.762   5.551  0.4278 -0.2715  0.5494
14711TIP3    H165624   0.415   6.818   5.474  0.6639  0.8770  1.3573
14711TIP3    H265625   0.374   6.680   5.522 -2.9441  1.4011  0.1050
14712TIP3   OH265626   3.379   3.978   0.422  0.0230 -0.1552 -0.0019
14712TIP3    H165627   3.473   3.982   0.401  0.2383 -0.9496  0.7730
14712TIP3    H265628   3.376   3.955   0.515 -0.9184  1.9412  0.5614
14713TIP3   OH265629   5.567   3.967   2.761  0.0155 -0.2645 -0.4166
14713TIP3    H165630   5.479   3.975   2.797 -0.8075 -1.4572 -2.0444
14713TIP3    H265631   5.579   4.048   2.710  0.1464  0.1989  0.3284
14714TIP3   OH265632   4.311   4.820   0.592 -0.2516  0.0607 -0.4436
14714TIP3    H165633   4.294   4.830   0.498 -3.2300  1.8389  0.1663
14714TIP3    H265634   4.374   4.889   0.613  0.4903 -0.3960 -1.1217
14715TIP3   OH265635   0.623   2.894   5.270 -0.2863  0.3343  0.2188
14715TIP3    H165636   0.632   2.889   5.175 -1.3604 -2.8926  0.1574
14715TIP3    H265637   0.708   2.862   5.303 -1.1357 -2.1985  0.1750
14716TIP3   OH265638   2.623   0.213  16.805 -0.2827  0.6553  0.3655
14716TIP3    H165639   2.690   0.167  16.755  0.2449  1.8952 -0.1048
14716TIP3    H265640   2.637   0.306  16.786 -1.1732  1.0480  1.4508
14717TIP3   OH265641   6.744   3.988  15.510 -1.4291 -0.0661 -0.2421
14717TIP3    H165642   6.804   4.055  15.479  0.6392 -0.2622  2.8870
14717TIP3    H265643   6.680   4.035  15.564  0.5273 -0.4710  2.6760
14718TIP3   OH265644   3.070   2.038  16.116  0.4705 -0.1772 -0.6028
14718TIP3    H165645   3.058   1.979  16.041 -1.3742  1.8577 -2.0288
14718TIP3    H265646   2.981   2.052  16.149  0.8687  1.7154 -0.2579
14719TIP3   OH265647   6.040   6.318  14.405 -0.3709 -0.1520 -0.3667
14719TIP3    H165648   6.114   6.377  14.389 -1.8124  1.0678 -3.3112
14719TIP3    H265649   6.080   6.237  14.439  1.9829  1.3478  0.6422
14720TIP3   OH265650   0.090   6.127   3.476  0.1526  0.4876 -0.5198
14720TIP3    H165651   0.054   6.097   3.393  2.0637 -0.0987 -1.1656
14720TIP3    H265652   0.170   6.173   3.453  0.4185  0.8240  0.9680
14721TIP3   OH265653   6.379   1.019  12.033  0.0789 -0.0998  0.5025
14721TIP3    H165654   6.297   1.052  12.071  0.1845  0.2523  0.4222
14721TIP3    H265655   6.369   0.924  12.036 -0.5852 -0.0606 -0.0351
14722TIP3   OH265656   4.668   0.136   0.135  0.0068 -0.0908  0.0565
14722TIP3    H165657   4.739   0.124   0.072 -0.3660 -1.1032 -0.1967
14722TIP3    H265658   4.707   0.185   0.207  0.4404  1.1093 -0.9605
14723TIP3   OH265659   3.821   2.036  16.668 -0.6156 -0.0855  0.5969
14723TIP3    H165660   3.815   2.107  16.604  0.3794 -0.4508  0.0785
14723TIP3    H265661   3.883   1.974  16.629 -3.2862 -2.5148 -0.1631
14724TIP3   OH265662   2.170   0.178   4.601  0.0214  0.2620  0.3264
14724TIP3    H165663   2.208   0.257   4.565  0.3807 -0.0375  0.0403
14724TIP3    H265664   2.149   0.200   4.691  0.7076  0.4815  0.4348
14725TIP3   OH265665   0.108   2.800  16.513  0.2541 -0.8296  0.1276
14725TIP3    H165666   0.147   2.724  16.558  0.6897 -1.6036 -1.4805
14725TIP3    H265667   0.050   2.761  16.447 -1.7557  0.2985  1.1317
14726TIP3   OH265668   3.688   6.210   3.859  0.0134 -0.4181  0.2294
14726TIP3    H165669   3.717   6.136   3.806 -0.0533  0.1326 -0.5975
14726TIP3    H265670   3.615   6.248   3.810 -0.5649 -0.3597  1.1096
14727TIP3   OH265671   0.768   0.067   3.300 -0.1714 -0.3903 -0.1784
14727TIP3    H165672   0.790   0.149   3.344  0.3846 -0.0328 -1.0947
14727TIP3    H265673   0.809   0.074   3.214 -1.7875 -0.7640 -1.0371
14728TIP3   OH265674   4.259   3.370   1.475  0.0834 -0.7712  0.1999
14728TIP3    H165675   4.258   3.322   1.558 -1.6032  1.2185  1.4395
14728TIP3    H265676   4.349   3.364   1.444  0.8962 -1.1267  2.4627
14729TIP3   OH265677   6.173   1.579  11.183  0.4548  0.1676  0.4269
14729TIP3    H165678   6.118   1.539  11.116  1.7707 -1.6863  0.3617
14729TIP3    H265679   6.249   1.612  11.135 -0.7844  3.3000  0.4185
14730TIP3   OH265680   4.755   3.474   4.717 -0.5863 -0.3197 -0.1423
14730TIP3    H165681   4.758   3.430   4.802  0.6763 -0.4622 -0.2357
14730TIP3    H265682   4.798   3.413   4.657  0.8330  0.8304 -0.3577
14731TIP3   OH265683   4.081   1.291  11.722 -0.7509 -0.4054 -0.1207
14731TIP3    H165684   4.158   1.336  11.757 -0.1311  0.1116 -2.0698
14731TIP3    H265685   4.018   1.361  11.706 -0.9145 -0.6031 -0.3435
14732TIP3   OH265686   6.012   0.237  13.802 -0.0202 -0.0704 -0.1632
14732TIP3    H165687   5.971   0.261  13.719  0.4938 -0.7059 -0.6130
14732TIP3    H265688   5.952   0.172  13.841 -0.6935  0.8588  0.3803
14733TIP3   OH265689   6.235   4.441  13.639 -0.2851  0.3124  0.4483
14733TIP3    H165690   6.318   4.461  13.682 -0.3629 -1.8688  1.7512
14733TIP3    H265691   6.221   4.347  13.655 -1.5494 -0.0784 -2.2756
14734TIP3   OH265692   4.183   5.550  13.844  0.1248  0.0429  0.1112
14734TIP3    H165693   4.193   5.611  13.918 -1.5840  0.1696  0.2775
14734TIP3    H265694   4.113   5.588  13.791  1.0365 -0.2732 -1.3786
14735TIP3   OH265695   4.787   0.302   0.611  0.7141 -0.4777 -0.1327
14735TIP3    H165696   4.858   0.252   0.650  2.2747  2.4192  1.0908
14735TIP3    H265697   4.728   0.321   0.683  0.4367 -0.1089 -0.4485
14736TIP3   OH265698   2.081   6.620  12.044 -0.4795  0.0566  0.3856
14736TIP3    H165699   2.093   6.681  11.972 -2.7262  1.6159  1.2071
14736TIP3    H265700   2.083   6.674  12.122  0.9605 -1.4660  1.4656
14737TIP3   OH265701   3.457   2.795  14.896  0.1462  0.2502 -0.3005
14737TIP3    H165702   3.506   2.722  14.932 -0.9512 -1.8292 -2.7277
14737TIP3    H265703   3.365   2.769  14.904 -0.2154  0.5357 -2.6733
14738TIP3   OH265704   3.985   1.089  12.884 -0.2663  0.3928 -0.4964
14738TIP3    H165705   4.033   1.146  12.944 -0.6006  0.3734 -0.2112
14738TIP3    H265706   3.894   1.095  12.912 -0.4611  0.5909 -1.1724
14739TIP3   OH265707   1.914   6.021   2.347  0.2626  0.3391  0.4387
14739TIP3    H165708   1.858   6.042   2.421  0.8754 -2.2722  1.7667
14739TIP3    H265709   1.988   5.973   2.385  0.5961 -1.1303 -1.8439
14740TIP3   OH265710   6.605   1.952  14.007  0.5945  0.2333 -0.3521
14740TIP3    H165711   6.597   2.035  14.054  1.6248  0.4024 -0.4382
14740TIP3    H265712   6.538   1.896  14.044 -1.5799  1.7542 -1.7615
14741TIP3   OH265713   0.539   6.521   4.752  0.2219 -0.5223  0.4683
14741TIP3    H165714   0.535   6.612   4.782 -1.2173 -0.6640  0.7435
14741TIP3    H265715   0.549   6.470   4.833 -0.8140 -0.7201  0.4793
14742TIP3   OH265716   2.126   4.421   0.700 -0.6531  0.0179  0.6703
14742TIP3    H165717   2.060   4.470   0.750 -0.5158  0.6811  0.2035
14742TIP3    H265718   2.079   4.390   0.623 -0.6722 -0.3830  0.8365
14743TIP3   OH265719   0.367   0.972   1.999 -0.4678  0.0672  0.0571
14743TIP3    H165720   0.323   1.009   2.076 -0.2454 -0.2379  0.3281
14743TIP3    H265721   0.427   0.907   2.034  0.8923  1.1161 -0.2340
14744TIP3   OH265722   2.982   6.116   1.628 -0.2697  0.2103 -0.2280
14744TIP3    H165723   2.968   6.177   1.700 -0.3907  0.5327 -0.5187
14744TIP3    H265724   3.058   6.152   1.581 -0.0974 -0.0793 -0.1734
14745TIP3   OH265725   4.753   4.877  11.248  0.4353  0.6714  0.5663
14745TIP3    H165726   4.722   4.863  11.337  0.4613 -1.3682  0.2921
14745TIP3    H265727   4.849   4.876  11.256  0.4378  0.5660  0.5163
14746TIP3   OH265728   3.935   1.530  13.298 -0.5635  0.0209 -0.2482
14746TIP3    H165729   3.891   1.561  13.219  1.3977 -0.4603 -1.6098
14746TIP3    H265730   3.997   1.599  13.320 -0.4690 -0.2472  0.3695
14747TIP3   OH265731   0.396   2.984  14.037  0.0391  0.2664 -0.0168
14747TIP3    H165732   0.315   3.023  14.069  0.6325  1.6275 -0.1183
14747TIP3    H265733   0.462   3.012  14.100  0.5781 -0.1409 -0.3949
14748TIP3   OH265734   4.768   2.827  15.315 -0.2287  0.3540 -0.4399
14748TIP3    H165735   4.788   2.844  15.223  0.1376 -0.4816 -0.5223
14748TIP3    H265736   4.771   2.914  15.356  0.0957  0.6768 -1.1164
14749TIP3   OH265737   4.204   0.802   6.518  0.1462 -0.7510 -0.2563
14749TIP3    H165738   4.138   0.733   6.508  1.4072 -2.2949  1.2625
14749TIP3    H265739   4.230   0.796   6.610  0.4557  1.6781 -0.1212
14750TIP3   OH265740   5.008   6.442  16.922 -0.1993  0.0570  0.4584
14750TIP3    H165741   5.058   6.479  16.995  0.0348  1.0234 -0.1735
14750TIP3    H265742   5.070   6.388  16.874 -0.2079 -0.1218  0.6463
14751TIP3   OH265743   3.606   4.917   2.392 -0.6612  0.2664  0.0429
14751TIP3    H165744   3.514   4.901   2.373 -0.2753 -0.8998 -1.0189
14751TIP3    H265745   3.646   4.934   2.306  0.1093  0.7619  0.4850
14752TIP3   OH265746   2.973   2.817   1.708 -0.0924  0.2125  0.3539
14752TIP3    H165747   2.899   2.766   1.677  0.6097 -1.2073  0.8921
14752TIP3    H265748   3.050   2.770   1.677  0.6273  1.9282 -0.6302
14753TIP3   OH265749   3.239   1.845  12.111  0.1561 -0.2580  0.4057
14753TIP3    H165750   3.163   1.846  12.170  0.1269 -0.5842  0.3755
14753TIP3    H265751   3.274   1.756  12.118 -0.5993 -0.7041 -1.0359
14754TIP3   OH265752   6.470   1.547  14.540  0.6327 -0.0137 -0.6598
14754TIP3    H165753   6.456   1.571  14.631 -0.4027 -0.0591 -0.8040
14754TIP3    H265754   6.447   1.626  14.491  0.7275 -0.1445 -0.9158
14755TIP3   OH265755   4.329   0.686   3.334 -0.3422 -0.1756  0.1552
14755TIP3    H165756   4.268   0.627   3.379 -2.1510  1.0104 -0.5896
14755TIP3    H265757   4.393   0.628   3.293 -2.2983 -1.7158 -0.9284
14756TIP3   OH265758   6.677   2.165   4.605 -0.0731 -0.2693  0.6108
14756TIP3    H165759   6.627   2.244   4.629 -0.3903 -0.4498  0.5511
14756TIP3    H265760   6.645   2.098   4.665 -0.0453 -0.4369  0.4361
14757TIP3   OH265761   0.391   5.305   0.822  0.6555 -0.3549  0.1426
14757TIP3    H165762   0.450   5.324   0.750 -1.3271 -0.5242 -1.6273
14757TIP3    H265763   0.331   5.239   0.787  0.1371 -1.0770  2.2409
14758TIP3   OH265764   5.862   0.764  16.509 -0.0930  0.0156  0.2683
14758TIP3    H165765   5.830   0.716  16.585  1.7371 -1.3878  0.2024
14758TIP3    H265766   5.898   0.697  16.451  0.0431  1.2147 -1.1126
14759TIP3   OH265767   0.165   3.686  15.522 -0.4098 -0.1604  0.7207
14759TIP3    H165768   0.233   3.628  15.557 -0.6393 -0.7090  0.2806
14759TIP3    H265769   0.162   3.760  15.583  0.1879 -0.4055  1.0524
14760TIP3   OH265770   4.777   3.880  12.031  0.2060  0.0376  0.7525
14760TIP3    H165771   4.774   3.943  12.103 -0.1185  0.6309  0.2324
14760TIP3    H265772   4.795   3.933  11.953  0.8342 -0.6341  0.4378
14761TIP3   OH265773   0.624   1.699  16.404  0.1594 -0.1815 -0.2327
14761TIP3    H165774   0.636   1.672  16.313  1.2969  1.2768 -0.5658
14761TIP3    H265775   0.710   1.687  16.444 -0.1015  0.0323  0.4089
14762TIP3   OH265776   4.817   5.647   2.881 -0.3410  0.1757  0.0977
14762TIP3    H165777   4.913   5.646   2.871 -0.1572 -1.8638  1.3446
14762TIP3    H265778   4.785   5.694   2.804  1.6109 -0.1475 -0.9810
14763TIP3   OH265779   1.407   4.144   0.558 -0.4471 -0.1450  0.0692
14763TIP3    H165780   1.337   4.079   0.561 -0.5592 -0.0525  3.1045
14763TIP3    H265781   1.361   4.228   0.554 -0.4407 -0.1366  0.1781
14764TIP3   OH265782   4.650   0.749   0.634  0.0315 -0.1958 -0.1898
14764TIP3    H165783   4.717   0.690   0.598  0.8606  1.4799 -1.5809
14764TIP3    H265784   4.629   0.712   0.719  2.3644 -1.0996  0.0857
14765TIP3   OH265785   2.542   6.453   1.973  0.0887  0.5717 -0.7247
14765TIP3    H165786   2.498   6.373   1.945 -0.2324  0.3852  0.2878
14765TIP3    H265787   2.557   6.501   1.891 -0.2025 -0.2635 -1.2867
14766TIP3   OH265788   4.767   3.069   2.057  0.3391  0.5951 -0.1568
14766TIP3    H165789   4.710   2.996   2.034  0.7913 -0.0609  0.7489
14766TIP3    H265790   4.847   3.053   2.007 -0.0751  1.2566 -1.0573
14767TIP3   OH265791   0.548   4.110   5.779  0.5753  0.5761 -0.1594
14767TIP3    H165792   0.619   4.062   5.822 -0.1921  0.4573  0.9910
14767TIP3    H265793   0.591   4.152   5.704  1.6226 -0.4444 -0.1699
14768TIP3   OH265794   3.093   5.161  16.297  0.4233  0.0371  0.6376
14768TIP3    H165795   3.030   5.131  16.231  1.2605 -0.2396 -0.0478
14768TIP3    H265796   3.045   5.226  16.347 -0.3670 -0.0546  0.0245
14769TIP3   OH265797   2.850   6.011  16.936 -0.0529  0.3461  0.6403
14769TIP3    H165798   2.789   5.984  17.005 -0.9945 -1.1431 -0.6678
14769TIP3    H265799   2.794   6.055  16.872  0.5494  0.4583  0.1919
14770TIP3   OH265800   5.968   3.083  15.557 -0.4354  0.3318 -0.5553
14770TIP3    H165801   5.903   3.033  15.507 -1.6429  2.0339 -0.7786
14770TIP3    H265802   6.030   3.114  15.492 -0.4732  0.2780 -0.6169
14771TIP3   OH265803   2.676   0.915  13.897 -0.1834  0.2756  0.3337
14771TIP3    H165804   2.707   1.000  13.865  0.9819 -1.0740 -2.4382
14771TIP3    H265805   2.662   0.863  13.818  0.3590 -2.5431  1.9400
14772TIP3   OH265806   3.686   1.363   4.929 -0.2494 -0.3509  0.0628
14772TIP3    H165807   3.646   1.277   4.915 -0.9832  0.0549 -0.3695
14772TIP3    H265808   3.643   1.397   5.007 -1.3538  0.4334 -0.8707
14773TIP3   OH265809   0.176   5.031   2.932  0.0599 -0.2900  0.4527
14773TIP3    H165810   0.270   5.022   2.922  0.6998  4.1457  0.2892
14773TIP3    H265811   0.164   5.063   3.022 -1.1500  0.1453  0.1629
14774TIP3   OH265812   3.957   1.598  17.167  0.4889  0.0523  0.9001
14774TIP3    H165813   4.033   1.624  17.220  0.3350  0.8435  0.7553
14774TIP3    H265814   3.990   1.529  17.110  1.4853  1.3321 -0.1384
14775TIP3   OH265815   4.623   6.481   1.669  0.2076  0.1848 -0.3959
14775TIP3    H165816   4.704   6.460   1.622 -0.7663 -2.4898 -1.0207
14775TIP3    H265817   4.644   6.464   1.761  0.0002 -2.1212 -0.7020
14776TIP3   OH265818   1.683   5.703  12.433 -0.2773 -0.0464 -0.0577
14776TIP3    H165819   1.628   5.712  12.356 -1.6804 -0.6043  0.8372
14776TIP3    H265820   1.622   5.687  12.505  1.0227 -0.1784  1.0735
14777TIP3   OH265821   4.749   4.687   5.094  0.1774 -0.5829  0.2366
14777TIP3    H165822   4.654   4.678   5.092  0.1233 -0.6723  2.0156
14777TIP3    H265823   4.782   4.598   5.104  0.4437 -0.5339 -0.1695
14778TIP3   OH265824   5.695   3.324   4.023 -0.2268  0.4357 -0.3482
14778TIP3    H165825   5.751   3.251   3.997 -3.1375 -0.9662 -3.4668
14778TIP3    H265826   5.667   3.301   4.112  1.9842 -0.1407  0.2506
14779TIP3   OH265827   3.199   0.650   0.690  0.3317  0.3015  0.2723
14779TIP3    H165828   3.148   0.656   0.609 -1.0490  0.1561  1.1006
14779TIP3    H265829   3.236   0.562   0.687 -0.0591  0.1369 -0.0126
14780TIP3   OH265830   0.945   0.721   2.518  0.1689  0.6143 -0.0584
14780TIP3    H165831   1.001   0.647   2.542 -0.1275  0.3050 -0.3234
14780TIP3    H265832   0.890   0.689   2.447  0.6224  1.3448 -0.7618
14781TIP3   OH265833   6.627   6.351   2.452 -0.3915  0.1971  0.0991
14781TIP3    H165834   6.552   6.400   2.418 -1.4215 -1.3100  0.1312
14781TIP3    H265835   6.703   6.404   2.427 -1.4109  1.4613 -0.4478
14782TIP3   OH265836   5.936   6.115   2.746  0.3418  0.6948  0.7468
14782TIP3    H165837   5.852   6.144   2.711 -0.3918 -0.7355  1.2364
14782TIP3    H265838   5.958   6.037   2.695 -0.1733 -0.7396  2.6057
14783TIP3   OH265839   2.420   0.692  11.134  0.2335  0.6909 -0.2909
14783TIP3    H165840   2.486   0.652  11.077  0.5005  1.3389 -0.4406
14783TIP3    H265841   2.367   0.618  11.164  0.3845  0.2822 -0.9970
14784TIP3   OH265842   1.903   5.552   1.344  1.0825  0.7836  0.3132
14784TIP3    H165843   1.939   5.629   1.298 -0.1408  0.8824 -0.5101
14784TIP3    H265844   1.960   5.480   1.317  0.2505  0.7863 -1.6218
14785TIP3   OH265845   6.707   5.594   0.164 -0.0183  0.3912 -0.1397
14785TIP3    H165846   6.750   5.523   0.117 -2.0522 -0.3000 -1.0526
14785TIP3    H265847   6.772   5.664   0.166  1.9614 -1.3524  0.5589
14786TIP3   OH265848   2.348   4.976  15.074 -0.3910  0.7074  0.0541
14786TIP3    H165849   2.357   4.909  15.142  2.0679 -1.0044 -1.7672
14786TIP3    H265850   2.332   4.926  14.994 -1.4689  2.5371 -0.9261
14787TIP3   OH265851   2.724   1.497   0.499 -0.5450  0.0066  0.5088
14787TIP3    H165852   2.753   1.576   0.544  0.0313 -0.1161  0.3584
14787TIP3    H265853   2.714   1.432   0.568 -1.4597  0.3267  0.6935
14788TIP3   OH265854   0.359   4.434   5.641  0.0690  0.1336 -0.0204
14788TIP3    H165855   0.374   4.466   5.729  0.6623 -1.7438  0.6089
14788TIP3    H265856   0.382   4.508   5.584  0.3238  1.1498  1.3515
14789TIP3   OH265857   6.573   2.003  13.533  0.2897  0.4334 -0.4442
14789TIP3    H165858   6.572   1.912  13.565  1.1353  0.6159  0.1178
14789TIP3    H265859   6.541   1.996  13.443 -0.6870 -0.2806 -0.0695
14790TIP3   OH265860   5.014   0.635  16.067 -0.2460 -0.1640 -0.3960
14790TIP3    H165861   4.950   0.636  16.138  0.1218  0.3859 -0.0602
14790TIP3    H265862   5.059   0.551  16.076  0.5130  0.3195  0.6945
14791TIP3   OH265863   1.513   1.321  15.246 -0.0643  0.0888 -0.2561
14791TIP3    H165864   1.605   1.345  15.238 -0.5806  1.5402 -5.3360
14791TIP3    H265865   1.475   1.387  15.304  1.5610  1.1690 -0.3692
14792TIP3   OH265866   5.875   5.728   2.728  0.0108 -0.0174  0.1388
14792TIP3    H165867   5.896   5.695   2.815  1.2459  0.9342  0.2211
14792TIP3    H265868   5.785   5.760   2.736  0.3336  0.6596  1.2572
14793TIP3   OH265869   4.794   0.981   4.680  0.7964 -0.0694 -0.4269
14793TIP3    H165870   4.872   1.018   4.637  0.5893  1.0520  0.1303
14793TIP3    H265871   4.750   0.932   4.611  1.7810 -0.3704 -0.8571
14794TIP3   OH265872   1.436   5.583  13.513 -0.2592 -0.5789 -0.3967
14794TIP3    H165873   1.372   5.557  13.447  0.2688 -1.0229 -0.7459
14794TIP3    H265874   1.453   5.676  13.495 -2.6373  0.2700  1.2658
14795TIP3   OH265875   4.211   6.227   2.993  0.5271 -0.1064  0.6698
14795TIP3    H165876   4.220   6.150   2.937  3.2382  1.8844 -1.9560
14795TIP3    H265877   4.197   6.299   2.932 -0.0129  1.7987  2.8871
14796TIP3   OH265878   1.573   6.612   0.759  0.0208  0.4254  0.2565
14796TIP3    H165879   1.548   6.704   0.749 -2.6900 -0.1313  1.0942
14796TIP3    H265880   1.556   6.592   0.851 -0.3343 -1.1495 -0.1215
14797TIP3   OH265881   3.671   1.055   2.720 -0.5321  0.2761  0.2518
14797TIP3    H165882   3.712   1.120   2.776 -2.1409  1.6998 -0.1514
14797TIP3    H265883   3.612   1.105   2.663  1.9459 -0.8429 -3.7204
14798TIP3   OH265884   6.426   2.149   5.053 -0.4753 -0.1194 -0.4042
14798TIP3    H165885   6.372   2.078   5.087  0.8784 -1.0587 -0.1424
14798TIP3    H265886   6.391   2.228   5.095  0.2976 -1.0758  2.1904
14799TIP3   OH265887   3.293   4.851  14.381  0.4658 -0.0563  0.1606
14799TIP3    H165888   3.243   4.770  14.371 -1.6312  1.0752  0.9901
14799TIP3    H265889   3.306   4.860  14.475  0.4360  0.7090  0.0956
14800TIP3   OH265890   6.666   3.471   3.771 -0.5310 -0.0740 -0.2089
14800TIP3    H165891   6.699   3.419   3.698  0.7333  0.3816  0.0202
14800TIP3    H265892   6.576   3.492   3.746 -1.1502 -2.4731 -0.2278
14801TIP3   OH265893   3.235   3.001   6.567 -0.1028 -0.8536  0.3397
14801TIP3    H165894   3.326   3.024   6.547 -0.0570 -0.8007  0.6106
14801TIP3    H265895   3.196   3.084   6.595 -0.5905 -0.5801 -1.0522
14802TIP3   OH265896   5.558   2.966  13.209 -0.5286 -0.1729 -0.0596
14802TIP3    H165897   5.587   3.027  13.277  0.7383 -0.5109 -0.2554
14802TIP3    H265898   5.466   2.988  13.194 -0.9271 -0.2688  1.9508
14803TIP3   OH265899   1.658   1.949   5.846  0.1562  0.3044 -0.1446
14803TIP3    H165900   1.668   1.859   5.878  1.2168  0.6303  0.5065
14803TIP3    H265901   1.698   1.948   5.759  2.7425  0.7256  0.9453
14804TIP3   OH265902   1.298   2.026  15.986  0.0597 -0.9050 -0.1317
14804TIP3    H165903   1.293   2.119  16.008  2.5773 -0.7915  0.2637
14804TIP3    H265904   1.259   2.019  15.899 -0.5442  0.4378  0.0122
14805TIP3   OH265905   5.475   6.404  14.692 -0.0325  0.1020 -0.7524
14805TIP3    H165906   5.514   6.409  14.779  0.4299  1.1829 -0.9951
14805TIP3    H265907   5.451   6.313  14.681  1.4092 -0.3801 -0.1325
14806TIP3   OH265908   0.703   0.008  13.019 -0.4599 -0.5411 -0.6763
14806TIP3    H165909   0.620   0.053  13.029 -0.3159 -0.8023  3.6186
14806TIP3    H265910   0.769   0.077  13.029 -0.2393 -0.8903  0.4556
14807TIP3   OH265911   4.551   2.159   2.778  0.1327 -0.6461  0.4945
14807TIP3    H165912   4.539   2.069   2.807  0.1582 -0.7241  0.2714
14807TIP3    H265913   4.482   2.172   2.713 -1.3897  0.2670  2.2224
14808TIP3   OH265914   1.352   3.742  15.460 -0.2566 -0.1271  0.4498
14808TIP3    H165915   1.435   3.706  15.428 -0.8665 -1.4520  0.2975
14808TIP3    H265916   1.284   3.694  15.412 -1.1448 -0.4357  1.9268
14809TIP3   OH265917   1.001   6.527   1.018  0.4084  0.4479  0.3699
14809TIP3    H165918   0.959   6.482   1.092  1.0004 -0.3074  0.2582
14809TIP3    H265919   1.095   6.516   1.034  0.5745  1.7642  0.4064
14810TIP3   OH265920   4.924   3.745   3.905 -0.4210 -0.0854 -0.3536
14810TIP3    H165921   4.853   3.763   3.967  0.4509  1.0700  0.3545
14810TIP3    H265922   4.900   3.793   3.826 -0.5825  0.0579 -0.2172
14811TIP3   OH265923   0.530   4.008   3.645  0.1537 -0.4062  0.1963
14811TIP3    H165924   0.535   4.080   3.709 -0.8373  1.3595 -1.6193
14811TIP3    H265925   0.483   3.938   3.691 -2.1771  1.4789  0.8728
14812TIP3   OH265926   5.587   0.394   5.996 -0.1287  0.1254  0.2212
14812TIP3    H165927   5.620   0.328   6.058 -1.3200 -1.2976 -0.5760
14812TIP3    H265928   5.513   0.434   6.042  0.4387  0.7727  0.6046
14813TIP3   OH265929   4.169   2.028   3.693  0.4730  0.4625 -0.8217
14813TIP3    H165930   4.086   2.013   3.738 -0.8261  1.5337 -2.7454
14813TIP3    H265931   4.159   1.984   3.609  1.9964  0.3644 -0.9822
14814TIP3   OH265932   3.115   4.199  11.363 -0.9134  0.6018 -0.1093
14814TIP3    H165933   3.146   4.176  11.451 -0.9179 -1.4735 -0.6048
14814TIP3    H265934   3.190   4.184  11.307 -1.0254  1.5513 -0.5217
14815TIP3   OH265935   2.664   0.817  12.044 -0.1245  0.1083 -0.0114
14815TIP3    H165936   2.695   0.829  12.134 -1.2672 -0.6845  0.5055
14815TIP3    H265937   2.744   0.819  11.991  0.7882 -1.4306  1.2262
14816TIP3   OH265938   3.229   0.954  15.331 -0.2136  0.0325 -0.3965
14816TIP3    H165939   3.191   0.986  15.249 -1.4176  1.0725  0.5105
14816TIP3    H265940   3.185   1.006  15.399 -1.1203 -2.4891  1.0954
14817TIP3   OH265941   2.907   0.852  12.630 -0.2585  0.6766 -0.3259
14817TIP3    H165942   2.951   0.767  12.637 -0.2968  0.6279 -0.6508
14817TIP3    H265943   2.830   0.845  12.686 -0.5364  0.3172 -0.7448
14818TIP3   OH265944   4.335   4.292   2.152 -0.3353 -0.7701  0.4798
14818TIP3    H165945   4.241   4.306   2.143 -0.3344 -1.7457 -1.9881
14818TIP3    H265946   4.353   4.307   2.244 -2.8448 -0.2305  0.9604
14819TIP3   OH265947   1.146   4.539  14.482  0.0840 -0.0192 -0.5503
14819TIP3    H165948   1.138   4.632  14.502  0.1406 -0.0137 -0.5521
14819TIP3    H265949   1.239   4.519  14.494  0.1122 -0.0249 -0.7682
14820TIP3   OH265950   6.277   1.365  12.771  0.0971  0.0162  0.0143
14820TIP3    H165951   6.244   1.287  12.726 -0.6028  0.3564 -0.0750
14820TIP3    H265952   6.198   1.413  12.798  0.4487 -0.5364  2.2680
14821TIP3   OH265953   1.214   1.323  11.170 -0.0032  0.1887  0.3717
14821TIP3    H165954   1.254   1.303  11.086 -0.9038  0.3813 -0.1188
14821TIP3    H265955   1.229   1.417  11.182 -0.4608  0.3029  0.0920
14822TIP3   OH265956   4.827   5.679  11.660 -0.1342 -0.3239  0.3974
14822TIP3    H165957   4.768   5.608  11.635 -0.3032 -0.3761  0.9374
14822TIP3    H265958   4.816   5.744  11.591 -0.0506 -0.7770 -0.0476
14823TIP3   OH265959   3.252   5.486   1.262  0.3151  0.0184 -0.4795
14823TIP3    H165960   3.195   5.484   1.338  0.4699 -0.5996 -0.3720
14823TIP3    H265961   3.260   5.578   1.240 -1.1276  0.0931 -0.7945
14824TIP3   OH265962   1.444   5.541  11.094 -0.1724  0.1992 -0.1363
14824TIP3    H165963   1.459   5.583  11.009  2.0510 -2.0203 -0.9610
14824TIP3    H265964   1.516   5.571  11.149  1.5461 -2.4046 -0.7840
14825TIP3   OH265965   6.374   0.579   3.348  0.2026 -0.3175  0.0432
14825TIP3    H165966   6.356   0.541   3.262 -1.6891  0.7121 -0.0744
14825TIP3    H265967   6.339   0.668   3.343 -0.8868 -0.5551  2.1793
14826TIP3   OH265968   0.050   3.594   1.993  0.4647 -0.2157  0.2461
14826TIP3    H165969   0.054   3.583   2.088 -0.1695 -2.4136  0.0813
14826TIP3    H265970   0.118   3.535   1.959  0.6565  0.5075 -0.6697
14827TIP3   OH265971   5.599   1.584  16.773 -0.2866 -0.3962  0.1588
14827TIP3    H165972   5.637   1.627  16.849 -0.3620  0.7328 -0.4197
14827TIP3    H265973   5.674   1.555  16.722 -0.1720  0.7249 -0.3596
14828TIP3   OH265974   2.012   6.491  15.580  0.6369  0.4511  0.3397
14828TIP3    H165975   1.960   6.412  15.567  1.1270  0.0246  0.9046
14828TIP3    H265976   1.963   6.541  15.646  0.5264  0.4401  0.2666
14829TIP3   OH265977   3.660   2.644  16.193  0.6732  0.1431  0.0799
14829TIP3    H165978   3.566   2.643  16.209  0.8154  0.5516  0.9930
14829TIP3    H265979   3.683   2.736  16.190  0.8743  0.0684 -1.2772
14830TIP3   OH265980   4.385   2.703   1.397 -0.3216  0.1033 -0.0985
14830TIP3    H165981   4.373   2.740   1.485 -1.0249 -1.3513  0.4494
14830TIP3    H265982   4.302   2.660   1.378  0.4988 -1.2764 -0.6682
14831TIP3   OH265983   1.130   4.910   4.465  0.3948 -0.0070 -0.7301
14831TIP3    H165984   1.040   4.927   4.438  0.0288 -0.4979  0.1514
14831TIP3    H265985   1.136   4.943   4.555  0.7859 -0.9234 -0.4006
14832TIP3   OH265986   2.959   1.446   5.251  0.2754  0.2705  0.0942
14832TIP3    H165987   3.052   1.425   5.260 -0.2951 -2.9620 -0.3533
14832TIP3    H265988   2.951   1.480   5.161  0.7859 -1.1623 -0.5168
14833TIP3   OH265989   3.757   1.733  16.199 -0.1427 -0.2756  0.3757
14833TIP3    H165990   3.712   1.774  16.125 -1.1252  0.1738  1.1848
14833TIP3    H265991   3.783   1.806  16.255  1.8902 -0.5055 -0.1907
14834TIP3   OH265992   2.913   1.169   0.002 -0.1696 -0.1618 -0.1173
14834TIP3    H165993   2.850   1.134   0.065  1.1740 -1.1538  0.7376
14834TIP3    H265994   2.995   1.126   0.025  0.9200  1.4046 -0.9209
14835TIP3   OH265995   0.550   2.929   6.640  0.5099 -0.7118 -0.1823
14835TIP3    H165996   0.581   2.852   6.687  1.5399  0.4318  1.0826
14835TIP3    H265997   0.496   2.977   6.703  2.1535  1.0028  0.0220
14836TIP3   OH265998   2.531   1.913   2.124  0.6455  0.7155  0.0974
14836TIP3    H165999   2.467   1.894   2.192 -0.7870 -0.5572 -1.5113
14836TIP3    H266000   2.489   1.978   2.069  0.8449  0.0935 -0.8102
14837TIP3   OH266001   1.710   4.228  16.376  0.4569 -0.3973 -0.0783
14837TIP3    H166002   1.711   4.250  16.283 -2.4855 -0.1617 -0.1718
14837TIP3    H266003   1.733   4.135  16.379 -1.2322 -0.9245 -1.3396
14838TIP3   OH266004   5.789   0.077  15.331 -0.0256 -0.2962 -0.3004
14838TIP3    H166005   5.842   0.001  15.355 -0.0821 -0.7509 -1.5286
14838TIP3    H266006   5.781   0.072  15.235 -0.3113  1.0724 -0.3779
14839TIP3   OH266007   2.500   3.847  13.999  0.3692  0.2782 -0.0051
14839TIP3    H166008   2.538   3.933  14.015 -0.4087  0.8657 -1.1601
14839TIP3    H266009   2.465   3.852  13.910  1.1665 -1.5623 -0.4734
14840TIP3   OH266010   1.410   1.786  11.392 -0.2573  0.0125  0.2334
14840TIP3    H166011   1.367   1.839  11.460  1.1522 -0.8328  1.8330
14840TIP3    H266012   1.437   1.850  11.326  0.7774  1.2360  1.7864
14841TIP3   OH266013   3.702   3.080  15.068  0.4774  0.3052 -0.3094
14841TIP3    H166014   3.743   2.996  15.051  0.2252 -0.2983  1.7824
14841TIP3    H266015   3.753   3.143  15.017 -2.3665 -1.4849 -6.2061
14842TIP3   OH266016   4.372   6.341  11.313 -0.1923 -0.4751 -0.4740
14842TIP3    H166017   4.435   6.287  11.265  0.8951  0.8073 -0.5535
14842TIP3    H266018   4.418   6.368  11.392 -0.9808 -0.2810 -0.0696
14843TIP3   OH266019   4.585   5.672  11.250  0.0407  0.0497 -0.0905
14843TIP3    H166020   4.502   5.652  11.292  0.1358 -1.0803 -0.4112
14843TIP3    H266021   4.564   5.680  11.157  0.2197  0.2096 -0.1182
14844TIP3   OH266022   3.940   4.653   4.818 -0.7648 -0.2712  0.4563
14844TIP3    H166023   4.007   4.638   4.884 -0.2107 -1.4485 -0.3387
14844TIP3    H266024   3.869   4.593   4.842 -1.1059  0.2151  0.6914
14845TIP3   OH266025   5.727   1.133   2.206 -0.3139 -0.1596  0.5092
14845TIP3    H166026   5.700   1.217   2.171  0.7870  0.1476  0.3433
14845TIP3    H266027   5.663   1.071   2.173 -0.0336  0.3219 -1.0002
14846TIP3   OH266028   1.609   5.391  15.157 -0.1522 -0.1000  0.0912
14846TIP3    H166029   1.699   5.416  15.181  0.0745 -0.9233  0.1500
14846TIP3    H266030   1.619   5.305  15.116 -0.8552  0.0674 -0.4502
14847TIP3   OH266031   2.169   0.365  12.784 -0.2615 -0.1228  0.1898
14847TIP3    H166032   2.143   0.273  12.789 -0.1573 -0.6772 -4.7649
14847TIP3    H266033   2.261   0.363  12.757  0.4650  1.6058  2.2097
14848TIP3   OH266034   0.958   1.692  14.734 -0.0576 -0.0646  0.9124
14848TIP3    H166035   0.884   1.750  14.756 -1.5348 -0.7501 -1.7433
14848TIP3    H266036   0.918   1.621  14.682  2.4093 -0.6830 -0.3058
14849TIP3   OH266037   3.764   1.133   0.634  0.2683 -0.5797 -0.1699
14849TIP3    H166038   3.752   1.192   0.560  2.3259  1.1454  0.7882
14849TIP3    H266039   3.774   1.190   0.710  1.3525 -2.1737  0.9621
14850TIP3   OH266040   4.322   2.924  17.067 -0.1579 -0.0992  0.2287
14850TIP3    H166041   4.287   2.835  17.066 -1.8195  0.4674  1.5307
14850TIP3    H266042   4.245   2.979  17.083  0.6987  1.6586 -1.3345
14851TIP3   OH266043   0.830   2.821   4.130  0.5182 -0.1964  0.3902
14851TIP3    H166044   0.830   2.910   4.096  2.4456 -0.6577 -0.9511
14851TIP3    H266045   0.851   2.830   4.223 -0.8007  0.7987  0.6250
14852TIP3   OH266046   5.230   4.423  12.279  0.4572 -0.1777  0.0918
14852TIP3    H166047   5.246   4.329  12.289 -2.4535 -0.5692  2.6844
14852TIP3    H266048   5.264   4.461  12.360 -0.6233  0.6173  0.1824
14853TIP3   OH266049   3.004   5.250   2.387  0.6287  0.0674  0.0139
14853TIP3    H166050   3.079   5.225   2.441  1.4658  1.8542 -0.2340
14853TIP3    H266051   2.974   5.333   2.425 -1.0152 -0.4477 -0.1117
14854TIP3   OH266052   3.318   6.564  11.274  0.0118 -0.1744 -0.2510
14854TIP3    H166053   3.318   6.659  11.263 -1.2423 -0.1423 -0.0768
14854TIP3    H266054   3.392   6.534  11.221  1.6108  1.0404  1.1662
14855TIP3   OH266055   1.036   3.683   3.963  0.5268  0.7332 -0.2706
14855TIP3    H166056   0.976   3.701   3.890  0.4024  2.0659  0.1240
14855TIP3    H266057   1.088   3.608   3.934  0.2856  1.0620 -1.6160
14856TIP3   OH266058   4.794   4.404  12.460 -0.5177 -0.2212 -0.4451
14856TIP3    H166059   4.819   4.403  12.368 -0.1915 -0.8857 -0.3491
14856TIP3    H266060   4.858   4.463  12.501 -1.0362  0.5696 -0.7367
14857TIP3   OH266061   6.768   6.110   0.418  0.2854 -0.2471 -0.1330
14857TIP3    H166062   6.705   6.136   0.485  0.8799 -1.3788  0.8837
14857TIP3    H266063   6.730   6.143   0.336 -2.2580 -1.8883  0.2677
14858TIP3   OH266064   3.716   5.986  13.930  0.3988  0.2201  0.1680
14858TIP3    H166065   3.751   5.900  13.953  0.8938 -0.2126 -1.9289
14858TIP3    H266066   3.773   6.015  13.858 -0.7033  1.6185 -0.1685
14859TIP3   OH266067   1.874   0.403   4.580 -0.4851  0.2564 -0.6534
14859TIP3    H166068   1.945   0.467   4.576 -0.5940  0.3383 -1.6519
14859TIP3    H266069   1.881   0.364   4.667 -0.2230  1.3993 -0.1468
14860TIP3   OH266070   2.865   4.399   1.489 -0.1974  0.3900  0.1872
14860TIP3    H166071   2.829   4.478   1.448  0.7411  0.5859 -0.2981
14860TIP3    H266072   2.882   4.340   1.415  0.8147  0.4579  0.3460
14861TIP3   OH266073   3.111   3.152  15.245  0.2917  0.4995 -0.2250
14861TIP3    H166074   3.091   3.225  15.187 -0.5436  1.9940  1.8356
14861TIP3    H266075   3.206   3.156  15.257  0.2295  1.3724  0.0165
14862TIP3   OH266076   5.765   1.161  16.659 -0.4842 -0.7867 -0.2546
14862TIP3    H166077   5.758   1.247  16.618 -1.1933 -0.6573  0.1081
14862TIP3    H266078   5.703   1.107  16.611 -1.6441 -0.5229  0.8830
14863TIP3   OH266079   1.917   6.412   2.718 -0.1297 -0.9683 -0.3986
14863TIP3    H166080   1.922   6.505   2.700 -0.2459 -0.7933  0.4446
14863TIP3    H266081   1.840   6.382   2.669  1.0092 -1.0246 -2.2511
14864TIP3   OH266082   2.729   0.442  12.593  0.0542 -0.7530 -0.0424
14864TIP3    H166083   2.649   0.477  12.632  0.3224  0.5979 -0.6840
14864TIP3    H266084   2.793   0.446  12.664 -0.0231 -0.3521  0.0037
14865TIP3   OH266085   3.210   2.337   1.998  0.3391 -0.1424 -0.1024
14865TIP3    H166086   3.148   2.289   2.053  0.4931  0.4491  0.5936
14865TIP3    H266087   3.246   2.270   1.939 -1.4717 -0.3749 -1.0262
14866TIP3   OH266088   5.394   5.296   0.609 -0.1115 -0.1866 -0.1827
14866TIP3    H166089   5.356   5.372   0.565 -1.4161 -0.8454 -0.2409
14866TIP3    H266090   5.346   5.288   0.691 -1.5072 -2.1691 -1.1042
14867TIP3   OH266091   5.612   3.425   4.907  0.5433  0.0109  0.4531
14867TIP3    H166092   5.625   3.370   4.830 -0.5936  1.4693 -0.8561
14867TIP3    H266093   5.541   3.383   4.955  3.0746 -2.4978  2.3680
14868TIP3   OH266094   5.093   3.964   5.116 -0.5551  0.0123  0.2934
14868TIP3    H166095   5.064   4.044   5.073 -3.5099 -1.4985 -0.7825
14868TIP3    H266096   5.147   3.919   5.050  1.1085  1.0187  0.8994
14869TIP3   OH266097   1.315   5.421   0.477  0.1945 -0.4123 -0.3945
14869TIP3    H166098   1.312   5.487   0.547 -0.0278 -2.7338  1.9652
14869TIP3    H266099   1.240   5.442   0.421  0.4972  1.6623 -0.1081
14870TIP3   OH266100   2.345   0.665  12.852 -0.0448  0.4833  0.6528
14870TIP3    H166101   2.387   0.617  12.780  0.1851  0.7092  0.6386
14870TIP3    H266102   2.251   0.660  12.831  0.0944  1.6133 -0.3407
14871TIP3   OH266103   0.353   2.018   3.867 -0.3097  0.0199 -0.7125
14871TIP3    H166104   0.430   1.962   3.857 -0.5833 -0.2862 -1.1586
14871TIP3    H266105   0.280   1.963   3.840 -1.0616 -0.6203  2.2937
14872TIP3   OH266106   0.832   2.050   4.289 -0.3784 -0.3189 -0.1315
14872TIP3    H166107   0.844   1.996   4.210 -4.0484 -2.6071  0.6500
14872TIP3    H266108   0.796   2.132   4.257 -0.3636 -0.6200 -0.9496
14873TIP3   OH266109   0.721   0.735  10.902 -0.5625 -0.0793 -0.1825
14873TIP3    H166110   0.687   0.825  10.897 -0.7771 -0.0141  1.7596
14873TIP3    H266111   0.675   0.689  10.832 -0.4416  1.3048 -1.2381
14874TIP3   OH266112   3.509   5.836   3.732  0.2255  0.3644  0.1257
14874TIP3    H166113   3.525   5.870   3.644 -0.8105 -0.5836 -0.4447
14874TIP3    H266114   3.455   5.902   3.774  1.3216  1.1689  0.3280
14875TIP3   OH266115   6.144   2.834   5.573  0.1951 -0.4794 -0.0722
14875TIP3    H166116   6.142   2.796   5.485 -4.6268 -0.3627 -0.2891
14875TIP3    H266117   6.235   2.829   5.599  1.7031 -1.5221 -4.6194
14876TIP3   OH266118   2.366   5.665   3.457 -0.0391  0.0438 -0.2166
14876TIP3    H166119   2.370   5.615   3.538 -0.0816  0.3748 -0.0072
14876TIP3    H266120   2.435   5.628   3.402  0.3333  0.1637  0.1683
14877TIP3   OH266121   0.498   5.508   5.707 -0.1163  0.0609  0.0960
14877TIP3    H166122   0.540   5.431   5.667  1.3899  0.9292 -0.0716
14877TIP3    H266123   0.527   5.506   5.798  0.0324  0.5026  0.0577
14878TIP3   OH266124   3.357   0.491   1.533 -0.8653  0.3010 -0.1680
14878TIP3    H166125   3.273   0.493   1.488 -1.6585 -0.9243  1.1666
14878TIP3    H266126   3.411   0.555   1.486 -2.3611  0.7460 -1.3678
14879TIP3   OH266127   1.736   1.351   5.782  0.3440  0.0445  0.3614
14879TIP3    H166128   1.710   1.440   5.758 -2.0830 -0.9728 -1.2565
14879TIP3    H266129   1.655   1.311   5.814  0.9743 -2.0298 -0.4714
14880TIP3   OH266130   3.991   3.974  15.208  0.0095  0.1052  0.1939
14880TIP3    H166131   4.065   3.939  15.256  0.6028  1.1469  0.0648
14880TIP3    H266132   3.954   4.042  15.265  0.0422  0.5778 -0.3334
14881TIP3   OH266133   1.211   5.244  12.573  0.0308  0.4182 -0.1369
14881TIP3    H166134   1.274   5.213  12.508  0.5912 -0.6867  0.8997
14881TIP3    H266135   1.232   5.337  12.583  0.9121  0.2661 -0.4522
14882TIP3   OH266136   1.374   0.399  14.403 -0.3975 -0.0101 -0.1388
14882TIP3    H166137   1.394   0.338  14.474 -0.8851 -2.1937 -1.7711
14882TIP3    H266138   1.407   0.483  14.434  2.2772 -1.4732  1.3821
14883TIP3   OH266139   1.012   5.906   3.050 -0.0952 -0.8296 -0.6463
14883TIP3    H166140   0.962   5.845   3.104 -0.1970 -0.4757 -0.3297
14883TIP3    H266141   0.950   5.975   3.028  0.5037  0.1610  0.6358
14884TIP3   OH266142   3.899   2.410   2.371 -0.3051  0.3270  0.6736
14884TIP3    H166143   3.897   2.376   2.282 -0.9658 -0.9279  1.1551
14884TIP3    H266144   3.814   2.452   2.383 -1.8063 -2.8248  1.9358
14885TIP3   OH266145   3.591   5.174  10.908 -0.9311 -0.5314  1.0614
14885TIP3    H166146   3.663   5.119  10.877 -0.9508 -0.1085  0.2418
14885TIP3    H266147   3.513   5.120  10.898 -0.6523 -1.3724  2.9028
14886TIP3   OH266148   6.720   6.406  17.128  0.1183  0.3136  0.6018
14886TIP3    H166149   6.703   6.446  17.042  1.7862  3.0153  1.3919
14886TIP3    H266150   6.797   6.350  17.113  0.7272  1.1798  0.3901
14887TIP3   OH266151   6.610   3.255   2.554 -0.0022  0.6752  0.7605
14887TIP3    H166152   6.521   3.237   2.586 -0.1026  1.6384  1.0413
14887TIP3    H266153   6.653   3.169   2.554 -0.7966  0.2657  1.0321
14888TIP3   OH266154   3.428   6.627   1.844 -0.0295 -0.1977 -0.0465
14888TIP3    H166155   3.472   6.545   1.865 -3.0495 -1.6923  1.0905
14888TIP3    H266156   3.454   6.646   1.754  2.8984 -0.8328  0.5716
14889TIP3   OH266157   3.904   4.859   5.120 -0.0871  0.9085  0.1436
14889TIP3    H166158   3.907   4.921   5.048  1.8488  1.6463  0.8000
14889TIP3    H266159   3.816   4.871   5.158 -0.5298  1.6654 -1.0707
14890TIP3   OH266160   4.056   2.593   3.052  0.0740  0.2547  0.0122
14890TIP3    H166161   4.065   2.497   3.048 -0.9263  0.1513 -0.1047
14890TIP3    H266162   4.120   2.621   3.117 -0.4899 -0.6328  0.9840
14891TIP3   OH266163   0.340   4.033  16.684  0.5065  0.2595  0.4427
14891TIP3    H166164   0.285   3.967  16.640 -0.3769  1.3604 -0.1440
14891TIP3    H266165   0.365   3.992  16.766  0.3957 -1.0167 -0.1337
14892TIP3   OH266166   5.968   4.544  14.373 -0.1238  0.1010  0.6196
14892TIP3    H166167   5.982   4.527  14.466  0.7543 -1.7494  0.1832
14892TIP3    H266168   6.039   4.604  14.348  0.8347 -0.9619  0.7299
14893TIP3   OH266169   1.761   0.745   1.028  0.4162 -0.3453 -0.5349
14893TIP3    H166170   1.694   0.761   0.961 -1.8337 -1.4799  1.3063
14893TIP3    H266171   1.815   0.675   0.991 -0.3715 -0.4849 -1.4731
14894TIP3   OH266172   3.176   4.065  11.075  0.8621  0.1841  0.5301
14894TIP3    H166173   3.116   4.066  11.001  0.2301 -0.7270  1.0005
14894TIP3    H266174   3.261   4.040  11.037  0.7601  0.6553 -0.0145
14895TIP3   OH266175   3.951   6.415  10.331 -0.1348  0.0772  0.1906
14895TIP3    H166176   3.973   6.479  10.399  0.1885  0.4014 -0.2115
14895TIP3    H266177   3.859   6.393  10.346 -0.3050  0.7911  0.2116
14896TIP3   OH266178   4.821   6.010  15.555 -0.1128  0.0219 -0.6971
14896TIP3    H166179   4.880   6.077  15.591 -0.3990  0.1229 -0.4130
14896TIP3    H266180   4.877   5.958  15.496  0.2416  0.1667 -0.4923
14897TIP3   OH266181   4.634   0.346   6.523  0.2045 -0.0470 -0.8930
14897TIP3    H166182   4.680   0.430   6.518  0.2475 -0.1403 -3.0579
14897TIP3    H266183   4.704   0.281   6.534  0.0760  0.2215  2.6866
14898TIP3   OH266184   4.506   2.468  11.336 -0.3112 -0.3628 -0.1556
14898TIP3    H166185   4.586   2.468  11.284  0.2481 -0.3841  0.6828
14898TIP3    H266186   4.447   2.527  11.289  1.1519  1.8600  0.6114
14899TIP3   OH266187   3.593   3.699   0.126 -0.5337  0.3654  0.1102
14899TIP3    H166188   3.670   3.658   0.165 -0.4159  1.0383  0.5974
14899TIP3    H266189   3.523   3.634   0.138 -0.4885  0.5208  1.3948
14900TIP3   OH266190   0.659   6.207  14.791 -0.5371 -0.2754  0.4717
14900TIP3    H166191   0.679   6.223  14.699  0.1965  2.7764  1.0475
14900TIP3    H266192   0.685   6.117  14.807 -3.1843 -1.8133 -2.9097
14901TIP3   OH266193   1.812   6.580   1.071 -0.1626 -0.6101  0.1204
14901TIP3    H166194   1.845   6.636   1.001 -0.4211  1.2084  1.3767
14901TIP3    H266195   1.886   6.522   1.092  1.0104  0.9178  0.4182
14902TIP3   OH266196   1.006   0.945   2.778  0.0124  0.1982  0.1929
14902TIP3    H166197   0.923   0.958   2.824 -0.2384 -1.7337  0.3566
14902TIP3    H266198   1.000   0.857   2.741  2.0369 -0.0285  0.2855
14903TIP3   OH266199   4.764   2.711  11.416 -0.2205  0.4032 -0.0350
14903TIP3    H166200   4.773   2.616  11.419  1.0713  0.4378 -1.4112
14903TIP3    H266201   4.670   2.726  11.403 -0.4053 -0.6964 -0.0383
14904TIP3   OH266202   5.513   2.547   4.156 -0.2389  0.3885  0.1398
14904TIP3    H166203   5.539   2.546   4.249 -2.7408  0.6714  0.9224
14904TIP3    H266204   5.562   2.475   4.117  0.8731  0.2500  1.6717
14905TIP3   OH266205   1.905   0.297  10.795  0.2817 -0.6072 -0.0070
14905TIP3    H166206   1.873   0.383  10.824  0.9990 -0.0951 -0.6722
14905TIP3    H266207   1.828   0.241  10.795  0.0117 -0.2822  1.5787
14906TIP3   OH266208   1.089   1.486   3.845  0.1062  0.5150  0.9109
14906TIP3    H166209   1.152   1.495   3.917  1.7468 -2.0543 -0.0655
14906TIP3    H266210   1.127   1.537   3.773  0.6754 -0.3677  0.5764
14907TIP3   OH266211   1.264   5.291  17.168  0.2472 -0.0609  0.8469
14907TIP3    H166212   1.335   5.259  17.113 -0.5793  1.0129 -0.9221
14907TIP3    H266213   1.296   5.373  17.204  0.6737 -0.6163  1.7707
14908TIP3   OH266214   1.621   3.814  13.118 -0.2033  0.1779 -0.1945
14908TIP3    H166215   1.712   3.803  13.093  0.1287  2.0045  0.0203
14908TIP3    H266216   1.572   3.765  13.052  0.9401 -2.1102  0.5708
14909TIP3   OH266217   3.785   2.302  15.712 -0.3570  0.2115 -0.3523
14909TIP3    H166218   3.867   2.269  15.674  1.3120  2.1411  1.3322
14909TIP3    H266219   3.812   2.376  15.766 -2.9578 -0.4339  2.0536
14910TIP3   OH266220   2.377   0.135   1.408  0.0199 -0.3440 -0.3821
14910TIP3    H166221   2.426   0.086   1.343 -0.6583 -0.6435 -0.6749
14910TIP3    H266222   2.293   0.153   1.367  0.4394  1.5650 -0.4996
14911TIP3   OH266223   0.415   6.627  15.808 -0.1404 -0.0984  0.1227
14911TIP3    H166224   0.323   6.615  15.831 -0.7356  1.1708 -1.4265
14911TIP3    H266225   0.415   6.636  15.713  1.6009 -0.0564  0.0924
14912TIP3   OH266226   2.018   1.355   5.378 -0.3897  0.0012  0.4208
14912TIP3    H166227   1.954   1.420   5.350 -1.3591 -1.1021 -0.0337
14912TIP3    H266228   1.969   1.297   5.437 -0.6048 -2.3783 -1.9020
14913TIP3   OH266229   1.411   4.616  15.467 -0.2099 -0.3587 -0.6400
14913TIP3    H166230   1.474   4.547  15.490 -0.6287 -0.5901 -0.1728
14913TIP3    H266231   1.389   4.657  15.551 -0.6001 -0.2046 -0.8167
14914TIP3   OH266232   0.817   2.485  13.759  0.2947  0.1867  0.8038
14914TIP3    H166233   0.866   2.434  13.824  1.8351  0.7287  0.1160
14914TIP3    H266234   0.835   2.442  13.676  1.4635  1.6756  0.2378
14915TIP3   OH266235   0.062   3.154  15.113 -0.4436 -0.6058 -0.1728
14915TIP3    H166236   0.088   3.061  15.114 -0.5234 -0.6404 -0.6859
14915TIP3    H266237   0.041   3.174  15.204  1.5265 -0.5278  0.3126
14916TIP3   OH266238   5.474   5.018  16.217  0.2020  0.2823  0.4126
14916TIP3    H166239   5.550   5.057  16.260  1.5298  0.2818 -1.7408
14916TIP3    H266240   5.505   4.998  16.128 -1.7351 -1.5900  0.0688
14917TIP3   OH266241   3.570   0.617  15.325  0.0236  0.0991 -0.1141
14917TIP3    H166242   3.664   0.613  15.341 -0.0238 -0.5616  0.0326
14917TIP3    H266243   3.562   0.641  15.233  0.3263  0.9378  0.0746
14918TIP3   OH266244   4.620   6.450   4.209  0.6230 -0.0238  0.6113
14918TIP3    H166245   4.682   6.383   4.238  2.5640  0.6645 -1.6472
14918TIP3    H266246   4.600   6.427   4.119 -1.8149  0.2844  1.0051
14919TIP3   OH266247   6.204   4.730   1.221 -0.3663  0.3359  0.3375
14919TIP3    H166248   6.258   4.697   1.293 -0.1614  1.1329  0.5529
14919TIP3    H266249   6.264   4.732   1.146 -0.3184  0.4158  0.3768
14920TIP3   OH266250   3.054   5.485  13.656 -0.3708 -0.7267 -0.0880
14920TIP3    H166251   3.022   5.408  13.702 -0.3476 -0.0251  1.1295
14920TIP3    H266252   3.142   5.499  13.691  0.0556 -0.7782 -1.1023
14921TIP3   OH266253   4.700   0.315   3.848 -0.3099 -0.1672 -0.2575
14921TIP3    H166254   4.672   0.244   3.790 -0.8058 -0.0073 -0.2220
14921TIP3    H266255   4.676   0.285   3.936  0.5614 -0.4681 -0.1096
14922TIP3   OH266256   3.039   2.323   1.413  0.3125  0.3257  0.2811
14922TIP3    H166257   3.030   2.416   1.434 -3.4018 -0.1730  1.6147
14922TIP3    H266258   3.036   2.279   1.498 -0.0115 -1.1060 -0.4411
14923TIP3   OH266259   6.249   5.359   5.362  1.1558  0.2220  0.1490
14923TIP3    H166260   6.197   5.400   5.292  0.4787 -0.6988  0.0925
14923TIP3    H266261   6.338   5.392   5.348  1.3682 -1.0658 -2.0850
14924TIP3   OH266262   0.083   5.280  14.311  0.4138  0.5308 -0.3128
14924TIP3    H166263   0.047   5.220  14.377  1.1062  0.1833 -0.2344
14924TIP3    H266264   0.166   5.309  14.349  1.4555 -0.6841 -1.5621
14925TIP3   OH266265   5.657   1.682   6.375 -0.4218  0.1146  0.2413
14925TIP3    H166266   5.692   1.680   6.464 -0.6116 -1.8430  0.3239
14925TIP3    H266267   5.694   1.604   6.333 -0.9496  0.5853 -1.1639
14926TIP3   OH266268   3.046   1.300   4.253 -0.2328 -0.1523  0.1817
14926TIP3    H166269   3.088   1.324   4.170  1.1145  1.5494  1.2959
14926TIP3    H266270   3.115   1.255   4.302 -0.5655  0.1912  0.9630
14927TIP3   OH266271   6.771   4.216   2.027  0.3306 -0.3069 -0.6367
14927TIP3    H166272   6.809   4.145   2.078 -0.4871  0.0342  0.4959
14927TIP3    H266273   6.707   4.173   1.970  0.7606 -0.6175 -0.8889
14928TIP3   OH266274   5.372   0.032   1.251 -0.1107  0.2963  0.9715
14928TIP3    H166275   5.310  -0.040   1.237 -0.3861  0.6460  0.3513
14928TIP3    H266276   5.396   0.025   1.343  1.8601 -2.1759  0.3845
14929TIP3   OH266277   1.328   5.101   1.310 -0.1849 -0.2870 -0.1995
14929TIP3    H166278   1.330   5.129   1.401  0.3736 -2.7849  0.6469
14929TIP3    H266279   1.239   5.070   1.296  0.1671 -1.4483  0.0453
14930TIP3   OH266280   6.487   4.375  17.153  0.3796 -0.0761  0.1393
14930TIP3    H166281   6.583   4.384  17.149  0.4244 -0.0937  0.9715
14930TIP3    H266282   6.456   4.462  17.175  0.1190  0.1668 -1.1316
14931TIP3   OH266283   0.640   4.386  16.014 -0.3336 -0.2568  0.3257
14931TIP3    H166284   0.709   4.402  16.078 -0.4273  0.7605  0.1891
14931TIP3    H266285   0.613   4.296  16.030  2.4652 -1.4667 -1.0154
14932TIP3   OH266286   0.702   4.826  14.126 -0.0354 -0.2464 -0.0344
14932TIP3    H166287   0.696   4.913  14.087 -1.4244 -0.0857  0.5056
14932TIP3    H266288   0.623   4.817  14.179 -0.1551 -2.0188 -0.4474
14933TIP3   OH266289   4.755   4.535  14.752  0.2504  0.2127 -0.0041
14933TIP3    H166290   4.785   4.476  14.822 -2.6537  0.9018  2.0236
14933TIP3    H266291   4.740   4.618  14.796 -4.5989 -0.0894 -0.5366
14934TIP3   OH266292   6.585   6.379  11.164  0.0183 -0.2638 -0.0617
14934TIP3    H166293   6.577   6.312  11.232 -2.8347  1.4490  1.4931
14934TIP3    H266294   6.524   6.351  11.096  0.0592 -0.0798 -0.1737
14935TIP3   OH266295   2.485   4.475  13.210 -0.3319  0.9407  0.9052
14935TIP3    H166296   2.562   4.520  13.175  0.1285 -0.2320  0.3495
14935TIP3    H266297   2.505   4.461  13.302 -0.2713  1.4335  0.9697
14936TIP3   OH266298   0.282   6.818  16.916 -0.0278 -0.3321 -0.1117
14936TIP3    H166299   0.259   6.770  16.836  0.1169  0.6555 -0.7801
14936TIP3    H266300   0.315   6.902  16.884  0.3111 -0.0263  0.9900
14937TIP3   OH266301   6.250   4.390   4.406  0.3670 -0.3887 -0.3137
14937TIP3    H166302   6.209   4.333   4.341  2.2321  0.6018 -2.5464
14937TIP3    H266303   6.344   4.381   4.389  0.8111  1.6189  0.7804
14938TIP3   OH266304   0.236   4.770  15.664  0.2376  0.2057 -0.0864
14938TIP3    H166305   0.239   4.689  15.614  2.9164 -0.1209  0.4530
14938TIP3    H266306   0.235   4.742  15.756 -0.4581  0.7958  0.0990
14939TIP3   OH266307   3.240   1.616   4.911  0.2374  0.0827 -0.0181
14939TIP3    H166308   3.285   1.536   4.881 -0.8668 -0.5122 -0.1481
14939TIP3    H266309   3.150   1.606   4.880  0.0697  1.3723  0.0068
14940TIP3   OH266310   4.929   2.925   0.174 -0.3109  0.1798  0.4178
14940TIP3    H166311   4.848   2.954   0.217 -0.7043 -1.1017  0.5687
14940TIP3    H266312   4.980   2.884   0.245  0.0931  0.2133  0.1477
14941TIP3   OH266313   0.264   0.974   0.783  0.5195  0.3214 -0.0291
14941TIP3    H166314   0.189   0.995   0.838  0.2535  0.9396 -0.6199
14941TIP3    H266315   0.258   0.879   0.770 -0.4189  0.4211 -0.4368
14942TIP3   OH266316   0.035   4.510   1.349 -0.0167 -0.5505  0.0730
14942TIP3    H166317   0.036   4.465   1.264 -0.6045  0.1872 -0.3299
14942TIP3    H266318   0.128   4.524   1.369  0.1555 -1.3824 -0.0855
14943TIP3   OH266319   0.907   0.044  16.209  0.0174  0.0187 -0.0970
14943TIP3    H166320   0.944   0.040  16.120  0.4539  0.4322  0.0644
14943TIP3    H266321   0.943  -0.033  16.253  0.2253  0.1074 -0.1122
14944TIP3   OH266322   1.859   3.787   0.200  0.4569 -0.1349 -0.2750
14944TIP3    H166323   1.919   3.725   0.158  0.0012 -1.1435  0.5368
14944TIP3    H266324   1.785   3.734   0.229 -1.3094  1.2274 -2.0574
14945TIP3   OH266325   2.453   1.569   0.412  0.1795  0.1562 -0.4533
14945TIP3    H166326   2.440   1.626   0.488 -0.6477  0.0416 -0.5011
14945TIP3    H266327   2.548   1.553   0.410 -0.0704 -2.6367  2.6078
14946TIP3   OH266328   1.457   4.717   2.729  0.0589 -0.0682  0.1610
14946TIP3    H166329   1.402   4.793   2.749  0.9121  0.8378 -0.7864
14946TIP3    H266330   1.423   4.683   2.646  0.9670  0.5952 -0.5175
14947TIP3   OH266331   0.892   2.654  12.460  0.3041 -0.4914  0.0114
14947TIP3    H166332   0.870   2.729  12.404 -0.2290 -0.9804 -0.4491
14947TIP3    H266333   0.931   2.693  12.538 -1.7411  0.3918  0.6531
14948TIP3   OH266334   1.076   1.195   0.934  0.0342 -0.4639  0.5033
14948TIP3    H166335   1.049   1.223   0.846  2.0841  1.1519  0.2833
14948TIP3    H266336   1.037   1.259   0.993 -0.6295 -1.0339  0.6857
14949TIP3   OH266337   1.097   1.044   4.649  0.1190  0.1621  0.4377
14949TIP3    H166338   1.058   1.080   4.570 -1.6395 -2.3390  0.0376
14949TIP3    H266339   1.176   0.999   4.618 -0.9457 -1.4353 -0.1211
14950TIP3   OH266340   5.843   3.153   4.499  0.1809 -0.1963  0.1791
14950TIP3    H166341   5.785   3.178   4.427  0.9097 -1.5083 -0.9058
14950TIP3    H266342   5.818   3.063   4.519 -1.2338  0.6659  2.8457
14951TIP3   OH266343   0.906   3.050   2.775 -0.3733 -0.2215  0.0758
14951TIP3    H166344   0.931   3.051   2.867  0.3980  1.4698 -0.1128
14951TIP3    H266345   0.820   3.009   2.773 -0.8011  0.5468  1.6578
14952TIP3   OH266346   2.151   1.562  16.707 -0.6569  0.9025 -0.7852
14952TIP3    H166347   2.179   1.612  16.631  0.3570  1.1935 -0.2438
14952TIP3    H266348   2.216   1.492  16.715  0.1846  1.7842  0.6908
14953TIP3   OH266349   3.436   1.106  16.491 -0.0060  0.0282  0.0154
14953TIP3    H166350   3.529   1.110  16.467  0.0628 -0.3680  0.2045
14953TIP3    H266351   3.408   1.019  16.464 -0.5576  0.4537 -0.8503
14954TIP3   OH266352   3.487   3.290   4.097  0.5293 -0.1686  0.0478
14954TIP3    H166353   3.483   3.283   4.193  1.9434  0.0276  0.1362
14954TIP3    H266354   3.463   3.381   4.079  0.6182 -0.1063  0.2386
14955TIP3   OH266355   1.009   3.028   5.009  0.3999 -0.0272 -0.1566
14955TIP3    H166356   1.025   2.994   5.097  2.2465 -1.1433 -0.8795
14955TIP3    H266357   1.048   3.116   5.009 -1.4049  0.8465  0.6870
14956TIP3   OH266358   2.129   4.628  13.038  0.1533  0.5138 -0.0071
14956TIP3    H166359   2.152   4.717  13.013  1.3636 -0.0132 -0.8699
14956TIP3    H266360   2.137   4.627  13.133 -4.4496  2.5333  0.6632
14957TIP3   OH266361   4.788   6.743   0.241 -0.4948  0.5535 -0.3589
14957TIP3    H166362   4.717   6.797   0.276  0.4916  2.1425 -0.7013
14957TIP3    H266363   4.820   6.792   0.166  0.4321 -0.5433 -0.6956
14958TIP3   OH266364   5.360   3.265  12.355 -0.0372 -0.3926 -0.8181
14958TIP3    H166365   5.411   3.342  12.330  0.8957 -1.0614 -1.0113
14958TIP3    H266366   5.274   3.279  12.314 -0.8163  1.7969  1.3180
14959TIP3   OH266367   3.002   1.919   5.628  0.1461 -0.2186  0.3137
14959TIP3    H166368   3.028   1.885   5.713  2.3941  0.3535 -0.0664
14959TIP3    H266369   3.085   1.946   5.587 -1.0912  1.6432 -1.1169
14960TIP3   OH266370   3.354   2.023   3.209  0.0596  0.5217 -0.2220
14960TIP3    H166371   3.445   2.048   3.224  0.2833 -0.0243 -0.6588
14960TIP3    H266372   3.324   2.083   3.140  0.6578 -0.5086 -1.4151
14961TIP3   OH266373   3.221   4.858   1.537 -0.9106 -0.4264  0.7106
14961TIP3    H166374   3.147   4.803   1.564 -0.4614 -0.9420  0.9124
14961TIP3    H266375   3.283   4.797   1.497 -0.5414 -0.0177  0.6506
14962TIP3   OH266376   4.407   2.703  15.178 -0.5042  0.1507 -0.1783
14962TIP3    H166377   4.428   2.789  15.143 -1.0125 -0.2055 -1.3737
14962TIP3    H266378   4.311   2.699  15.180 -0.4944 -0.5938 -0.6692
14963TIP3   OH266379   2.616   6.033   3.684 -0.5202  0.7052  0.2203
14963TIP3    H166380   2.595   5.984   3.605 -2.2103  2.5892 -0.5838
14963TIP3    H266381   2.634   5.966   3.750 -2.3754 -0.9969 -0.8875
14964TIP3   OH266382   1.815   3.549  17.073 -0.0639 -0.0583 -0.4755
14964TIP3    H166383   1.836   3.561  16.980 -0.8392  1.3664 -0.4954
14964TIP3    H266384   1.742   3.609  17.089  1.7219  1.7304  1.6778
14965TIP3   OH266385   2.090   5.896   1.516  0.5540  0.1903 -0.4468
14965TIP3    H166386   2.003   5.903   1.476  1.0697 -0.3663 -1.7099
14965TIP3    H266387   2.074   5.907   1.610 -1.0521 -1.0765 -0.5266
14966TIP3   OH266388   5.395   1.427   1.568 -0.5732 -0.1646  0.3500
14966TIP3    H166389   5.307   1.392   1.554 -0.8588  0.3679  0.7480
14966TIP3    H266390   5.428   1.446   1.481 -1.3964  0.9143  0.2470
14967TIP3   OH266391   2.163   5.013   3.035 -0.4281  0.1714  0.1180
14967TIP3    H166392   2.100   5.085   3.041  0.2793  0.8919 -0.8553
14967TIP3    H266393   2.163   4.988   2.943 -1.3436 -1.7402  0.5796
14968TIP3   OH266394   2.847   5.541  14.810 -0.9504 -0.3474  0.1916
14968TIP3    H166395   2.851   5.447  14.830  2.0646 -0.5380 -0.7579
14968TIP3    H266396   2.909   5.581  14.871 -0.3319  0.6498 -1.0460
14969TIP3   OH266397   5.767   6.785   2.654 -0.3436  0.3723  0.5451
14969TIP3    H166398   5.825   6.772   2.579 -2.0114  0.9821 -0.9113
14969TIP3    H266399   5.826   6.806   2.726  1.2998  0.0873 -0.6508
14970TIP3   OH266400   2.932   4.247  13.346  0.2629 -0.1558 -0.3846
14970TIP3    H166401   2.930   4.153  13.365 -0.2780 -0.0914 -0.1092
14970TIP3    H266402   2.840   4.274  13.346  0.4749  1.0250  2.8434
14971TIP3   OH266403   2.551   0.844  14.429 -0.0467  0.3046  0.2896
14971TIP3    H166404   2.497   0.768  14.409 -0.6211  0.1945  2.0407
14971TIP3    H266405   2.589   0.870  14.345 -0.4329 -1.4457 -0.4690
14972TIP3   OH266406   4.389   2.517   4.404 -0.1201 -0.0868  0.2226
14972TIP3    H166407   4.338   2.449   4.360 -1.9110  0.1801  1.7680
14972TIP3    H266408   4.339   2.537   4.483  1.6985  1.2189  1.0960
14973TIP3   OH266409   4.884   3.278  15.406  0.4157  0.2869 -0.4338
14973TIP3    H166410   4.864   3.345  15.341  1.1681  0.8765 -0.0683
14973TIP3    H266411   4.858   3.196  15.364  0.3410  0.7137 -1.2444
14974TIP3   OH266412   4.008   6.823  17.064 -0.1394 -0.0872  0.2303
14974TIP3    H166413   3.960   6.875  17.000  0.2727  1.6543  1.2937
14974TIP3    H266414   3.996   6.732  17.035 -0.7850  0.5870 -1.7232
14975TIP3   OH266415   6.244   6.392  16.506 -0.0169 -0.2731  0.5408
14975TIP3    H166416   6.282   6.478  16.522  1.0098 -0.3460 -1.2574
14975TIP3    H266417   6.150   6.404  16.521 -0.1596  1.6753 -1.4566
14976TIP3   OH266418   2.686   4.430  12.606 -0.0227  0.5177 -0.0759
14976TIP3    H166419   2.720   4.341  12.611 -0.7469  0.1759 -0.9226
14976TIP3    H266420   2.760   4.486  12.629  0.4184 -0.2999  0.5360
14977TIP3   OH266421   2.469   4.577  14.474  0.1549 -0.2563 -0.4114
14977TIP3    H166422   2.484   4.629  14.394  0.4052 -0.2906 -0.3862
14977TIP3    H266423   2.533   4.506  14.469  0.6271  0.1212  0.1552
14978TIP3   OH266424   0.357   0.779   4.773  0.2096 -0.2385 -0.0419
14978TIP3    H166425   0.275   0.824   4.797  0.8948  0.1966  1.6025
14978TIP3    H266426   0.342   0.687   4.795 -0.1469 -0.3101 -0.5811
14979TIP3   OH266427   6.603   0.110  17.121 -0.0071  0.2352 -0.1217
14979TIP3    H166428   6.591   0.017  17.143  0.2441  0.8935  3.2951
14979TIP3    H266429   6.686   0.113  17.073 -1.7644 -1.6142 -3.7144
14980TIP3   OH266430   0.473   2.381   4.969  0.0981  0.1383  0.9314
14980TIP3    H166431   0.498   2.423   4.887  1.8402 -0.0027  1.3618
14980TIP3    H266432   0.405   2.438   5.005 -0.2439  0.5356 -0.2960
14981TIP3   OH266433   6.676   4.379  13.912 -0.1027  0.6093  0.3241
14981TIP3    H166434   6.621   4.348  13.840  0.7308  2.7447 -1.3185
14981TIP3    H266435   6.614   4.421  13.972 -0.4578  1.8172 -0.8490
14982TIP3   OH266436   0.143   5.647   3.106  0.3419 -0.6369 -0.1232
14982TIP3    H166437   0.184   5.613   3.186  2.6817  0.5928 -0.6988
14982TIP3    H266438   0.168   5.739   3.105 -2.1547  0.0797 -0.8126
14983TIP3   OH266439   6.584   2.730  14.111 -0.2948 -0.1201  0.4393
14983TIP3    H166440   6.575   2.764  14.200  0.1924  0.4994  0.2643
14983TIP3    H266441   6.679   2.728  14.095 -0.3825 -0.0322 -0.1326
14984TIP3   OH266442   2.095   3.945  16.086  0.9382 -0.2362  0.1353
14984TIP3    H166443   2.005   3.967  16.060  1.1664  1.0580  0.3448
14984TIP3    H266444   2.087   3.868  16.141 -0.1929  0.6050  1.1918
14985TIP3   OH266445   4.232   4.985   1.166 -0.2719 -0.3577  0.1190
14985TIP3    H166446   4.288   5.060   1.185 -0.6874 -0.2903  1.1465
14985TIP3    H266447   4.157   5.021   1.118 -1.5939  0.3028  2.5367
14986TIP3   OH266448   3.450   4.853   4.537 -0.5649 -0.1572 -0.1317
14986TIP3    H166449   3.423   4.809   4.456  1.2790  0.6675 -1.2677
14986TIP3    H266450   3.504   4.789   4.582 -1.5712 -0.6074  0.4765
14987TIP3   OH266451   3.196   0.275   0.364 -0.5835  0.0195 -0.2175
14987TIP3    H166452   3.259   0.227   0.309 -0.9682 -1.8108  0.8354
14987TIP3    H266453   3.161   0.208   0.424 -1.1993  1.6416  1.3271
14988TIP3   OH266454   6.202   5.479  14.304 -0.0363 -0.2829 -0.4760
14988TIP3    H166455   6.145   5.528  14.362  0.2998 -1.1014  0.5942
14988TIP3    H266456   6.146   5.410  14.267 -0.3815  0.5564 -1.5761
14989TIP3   OH266457   4.115   1.701  15.650  0.7579 -0.2890 -0.2515
14989TIP3    H166458   4.046   1.721  15.714  0.5576 -0.7688 -0.3146
14989TIP3    H266459   4.181   1.770  15.663 -0.3401  0.9801 -1.1038
14990TIP3   OH266460   6.050   2.584  15.318 -0.6130 -0.2379 -0.0125
14990TIP3    H166461   5.988   2.623  15.256  1.4594  0.4518 -1.7784
14990TIP3    H266462   6.065   2.496  15.284 -0.4253 -0.3172  0.2712
14991TIP3   OH266463   3.220   5.311   6.268 -0.3151  0.2231 -0.3812
14991TIP3    H166464   3.245   5.254   6.340  0.9488  0.6168 -0.4803
14991TIP3    H266465   3.303   5.333   6.225 -0.9627  0.6759 -1.4342
14992TIP3   OH266466   1.554   5.898   3.142  0.0529  0.1014  0.1191
14992TIP3    H166467   1.587   5.963   3.081  1.5586 -0.1486  0.6320
14992TIP3    H266468   1.554   5.816   3.092 -2.6698  0.5544 -0.8083
14993TIP3   OH266469   6.789   0.523   2.665  0.1937 -0.1142  0.0255
14993TIP3    H166470   6.782   0.537   2.760  1.4338 -0.2210  0.1531
14993TIP3    H266471   6.842   0.597   2.634  1.7787 -1.2909 -0.2066
14994TIP3   OH266472   2.920   4.087  11.757  0.4715 -0.5985  0.0425
14994TIP3    H166473   2.888   4.000  11.733 -0.0704 -0.2641 -0.4564
14994TIP3    H266474   2.845   4.145  11.744  1.0596  0.0750 -0.4105
14995TIP3   OH266475   4.688   1.759  12.724  0.6132  0.0995  0.3383
14995TIP3    H166476   4.595   1.735  12.722  1.1576 -2.3656  0.9888
14995TIP3    H266477   4.710   1.775  12.632 -0.1080 -0.8909 -0.0314
14996TIP3   OH266478   6.254   6.438   2.913  0.2118  0.1265  0.1838
14996TIP3    H166479   6.180   6.480   2.868  1.7093 -1.1828 -3.9620
14996TIP3    H266480   6.224   6.349   2.931  0.5819 -0.3066 -1.2077
14997TIP3   OH266481   3.716   2.228   5.761 -0.0121 -0.1942  0.5512
14997TIP3    H166482   3.636   2.273   5.789  0.7021  0.2213  2.0174
14997TIP3    H266483   3.724   2.153   5.819 -0.4484 -1.4965 -0.9867
14998TIP3   OH266484   1.607   1.141  12.326 -0.4148 -0.0543 -0.6378
14998TIP3    H166485   1.679   1.081  12.345 -1.2852 -0.2591  2.4789
14998TIP3    H266486   1.626   1.218  12.380 -1.9181  0.3748 -0.6897
14999TIP3   OH266487   6.616   2.740  16.114  0.2674  0.3563  0.4493
14999TIP3    H166488   6.697   2.786  16.134 -0.9068  2.9252 -0.3070
14999TIP3    H266489   6.634   2.691  16.034  0.9848  1.1773  0.1012
15000TIP3   OH266490   0.876   4.590   4.650 -0.6250  0.4338 -0.2498
15000TIP3    H166491   0.967   4.616   4.666 -0.4458  0.6995 -1.6204
15000TIP3    H266492   0.840   4.658   4.594 -1.8782  0.6522  0.7538
15001TIP3   OH266493   4.904   6.541   3.308 -0.6020 -0.5923 -0.1039
15001TIP3    H166494   4.865   6.617   3.352  0.0235  0.0020 -0.5556
15001TIP3    H266495   4.886   6.467   3.367 -0.7820 -0.0093  0.5833
15002TIP3   OH266496   1.516   4.021  15.960 -0.2965  0.0743 -0.5473
15002TIP3    H166497   1.520   3.998  16.052  0.4365  1.2593 -0.2690
15002TIP3    H266498   1.461   4.100  15.958  0.9079  0.9259 -0.9297
15003TIP3   OH266499   2.492   4.070  16.958  0.8875 -0.1443 -0.4065
15003TIP3    H166500   2.498   4.165  16.963  0.6672 -0.0537 -1.6360
15003TIP3    H266501   2.403   4.050  16.985  1.2162 -0.0942  0.7784
15004TIP3   OH266502   2.901   5.858   1.719 -0.3347  0.3753  0.1024
15004TIP3    H166503   2.877   5.803   1.645  2.0706  0.8156 -1.1002
15004TIP3    H266504   2.948   5.932   1.680  0.8904  0.6834  2.0259
15005TIP3   OH266505   4.266   6.050  13.809  0.1389  0.2307  0.1193
15005TIP3    H166506   4.323   5.991  13.859 -1.7062 -1.2540  0.6238
15005TIP3    H266507   4.194   6.070  13.870 -1.1402  0.0142 -1.2615
15006TIP3   OH266508   5.164   1.552  12.349 -0.1264 -0.8418 -0.3124
15006TIP3    H166509   5.243   1.600  12.325 -1.3539  1.9901  0.8339
15006TIP3    H266510   5.096   1.619  12.358 -2.0333 -2.8045  1.3417
15007TIP3   OH266511   1.861   1.840   2.854  0.1158  0.0179  0.6546
15007TIP3    H166512   1.930   1.889   2.809  0.6305 -1.4880 -0.2505
15007TIP3    H266513   1.788   1.839   2.792  0.3485 -0.9291  0.3927
15008TIP3   OH266514   5.293   1.237   5.994  0.2723 -0.1777 -0.3676
15008TIP3    H166515   5.288   1.331   6.009  3.8860  0.3912 -1.6576
15008TIP3    H266516   5.318   1.201   6.079  0.5766  0.2783 -0.2581
15009TIP3   OH266517   2.608   3.221  14.468  0.1160  0.1983 -0.3713
15009TIP3    H166518   2.671   3.234  14.539  1.7202 -1.0170 -1.4757
15009TIP3    H266519   2.657   3.244  14.388 -1.1225  0.0412 -1.2080
15010TIP3   OH266520   6.730   0.200   5.126 -0.5365  0.2824 -0.6393
15010TIP3    H166521   6.719   0.162   5.039 -1.4460 -1.5169  0.1823
15010TIP3    H266522   6.653   0.257   5.137 -1.1127 -0.4854 -0.5667
15011TIP3   OH266523   5.508   4.299   0.612 -0.1958  0.4485  0.0992
15011TIP3    H166524   5.539   4.338   0.694 -0.6704  1.8299 -0.3657
15011TIP3    H266525   5.495   4.206   0.634 -0.9794  0.9135  1.7906
15012TIP3   OH266526   6.224   6.342  15.066 -0.6189 -0.2163  0.3727
15012TIP3    H166527   6.304   6.369  15.112  0.0024 -0.1020 -0.7450
15012TIP3    H266528   6.211   6.251  15.093  0.4527 -0.5581 -0.1721
15013TIP3   OH266529   6.350   0.623  17.188  0.4231  0.3020  0.1181
15013TIP3    H166530   6.340   0.528  17.192 -1.3808  0.4728  0.4645
15013TIP3    H266531   6.355   0.651  17.279 -2.1816  0.7711  0.1861
15014TIP3   OH266532   5.018   6.255  12.293 -0.9156  0.0907 -0.1103
15014TIP3    H166533   4.976   6.200  12.226  0.1197  1.8787 -2.4009
15014TIP3    H266534   4.972   6.234  12.374 -3.0549 -1.3833 -1.5815
15015TIP3   OH266535   4.111   3.970   3.681  0.3192  0.4698 -0.3833
15015TIP3    H166536   4.159   3.978   3.763  1.3006  0.1555 -0.9116
15015TIP3    H266537   4.090   4.060   3.656 -1.3447  0.5139  0.9584
15016TIP3   OH266538   5.166   0.736  16.796 -0.0176 -0.5119  0.4415
15016TIP3    H166539   5.193   0.828  16.797 -1.0576 -0.2016  0.7112
15016TIP3    H266540   5.244   0.689  16.768  1.1114  0.2697  2.0971
15017TIP3   OH266541   0.150   0.333  13.733 -0.0108 -0.2272  0.4570
15017TIP3    H166542   0.059   0.359  13.746 -0.3727 -1.9189  1.6765
15017TIP3    H266543   0.170   0.356  13.643 -0.8992  2.2624  0.8286
15018TIP3   OH266544   0.208   0.636  14.768  0.1565  0.4771  0.1349
15018TIP3    H166545   0.210   0.724  14.805  0.9014  0.5970 -0.1888
15018TIP3    H266546   0.135   0.637  14.706  1.4320  1.5035 -1.4271
15019TIP3   OH266547   2.348   5.522  16.449 -0.6250  0.0828  0.4106
15019TIP3    H166548   2.408   5.451  16.469  0.3530  0.3901 -1.2554
15019TIP3    H266549   2.290   5.487  16.382 -1.0241  0.4237  0.5730
15020TIP3   OH266550   2.313   4.486  16.027 -0.1153 -0.0775 -0.1767
15020TIP3    H166551   2.320   4.407  15.974 -0.6895  0.2176 -0.7057
15020TIP3    H266552   2.236   4.531  15.993  0.8156  1.2509 -0.6126
15021TIP3   OH266553   4.303   2.767   6.139  0.1686 -0.1756  0.1599
15021TIP3    H166554   4.348   2.846   6.109  1.2030 -0.5254  0.7594
15021TIP3    H266555   4.360   2.731   6.207  0.1383 -1.8936 -0.6790
15022TIP3   OH266556   3.451   3.616   4.993  0.3418 -0.3770  0.5536
15022TIP3    H166557   3.513   3.594   5.062  1.3365 -1.1724 -0.5632
15022TIP3    H266558   3.481   3.700   4.959  1.0544 -0.9436 -0.2428
15023TIP3   OH266559   4.451   0.370   6.344 -0.0185  0.3138 -0.0733
15023TIP3    H166560   4.383   0.306   6.364  0.4880 -1.0039 -2.2798
15023TIP3    H266561   4.513   0.363   6.416 -1.7094  0.9228  1.5349
15024TIP3   OH266562   0.061   3.080   0.748  0.3489  0.3423  0.2541
15024TIP3    H166563  -0.004   3.039   0.690  1.2877 -0.4475 -0.2656
15024TIP3    H266564   0.145   3.066   0.704  1.4830 -2.6486  2.9416
15025TIP3   OH266565   1.443   4.602   0.122 -0.5004  0.0344 -0.0492
15025TIP3    H166566   1.463   4.511   0.143 -0.2425 -0.1654 -1.1014
15025TIP3    H266567   1.351   4.600   0.094 -0.7795  0.2664  0.7989
15026TIP3   OH266568   4.938   5.877  14.568 -0.1429  0.2133  0.1817
15026TIP3    H166569   4.856   5.833  14.588  0.0825  0.0414  0.7340
15026TIP3    H266570   4.992   5.809  14.527 -0.5355  0.5163 -0.8720
15027TIP3   OH266571   2.974   1.178   0.426 -0.4034  0.0636 -0.3067
15027TIP3    H166572   2.966   1.109   0.360 -0.9825  0.7152 -0.9330
15027TIP3    H266573   3.042   1.236   0.392  0.5035 -0.4864  0.5025
15028TIP3   OH266574   4.354   3.264  13.780  0.0696  0.1912 -0.6256
15028TIP3    H166575   4.427   3.281  13.721 -0.7171  1.5096 -1.2569
15028TIP3    H266576   4.334   3.171  13.767  2.2643 -0.4973  0.3474
15029TIP3   OH266577   6.076   5.438  16.135 -0.0397  0.4714  0.0896
15029TIP3    H166578   6.164   5.428  16.173  0.6829 -0.6417 -1.7035
15029TIP3    H266579   6.071   5.530  16.109  0.3093  0.7137  0.8610
15030TIP3   OH266580   1.506   2.926   1.635 -0.3147  0.8177  0.1971
15030TIP3    H166581   1.469   2.855   1.582 -0.1076 -0.1567  1.3073
15030TIP3    H266582   1.577   2.961   1.581  0.0398 -0.2955 -0.1016
15031TIP3   OH266583   6.207   5.037   3.084  0.2276 -0.0907  0.3780
15031TIP3    H166584   6.271   4.968   3.066  1.3053  1.0839 -0.5139
15031TIP3    H266585   6.155   5.043   3.004 -0.2886 -0.2853  0.6913
15032TIP3   OH266586   0.877   6.252  13.623  0.2506 -0.5898  0.1195
15032TIP3    H166587   0.844   6.340  13.607  0.1388 -0.6099  0.2326
15032TIP3    H266588   0.967   6.266  13.653  0.2681 -0.5197  0.0333
15033TIP3   OH266589   3.120   1.858  15.780  0.0784  0.3406 -0.4881
15033TIP3    H166590   3.215   1.853  15.768  0.2457  1.0911  0.3959
15033TIP3    H266591   3.104   1.817  15.864 -0.5871 -1.1556 -1.3026
15034TIP3   OH266592   2.942   0.741  15.392  1.0004  0.5213  0.4948
15034TIP3    H166593   3.009   0.715  15.329  0.3759  0.8285 -0.3216
15034TIP3    H266594   2.872   0.676  15.380  0.8655  0.5958  0.8666
15035TIP3   OH266595   0.545   2.745   3.412  0.5098 -0.2456  0.0402
15035TIP3    H166596   0.511   2.757   3.324  0.4035 -1.2088 -0.0674
15035TIP3    H266597   0.469   2.718   3.464  0.5196  0.5488  0.4945
15036TIP3   OH266598   5.307   1.670  11.743  0.2532  0.2170  0.2047
15036TIP3    H166599   5.286   1.625  11.661 -0.7969  2.3470 -0.7608
15036TIP3    H266600   5.370   1.738  11.718 -0.5628  1.3099  1.0231
15037TIP3   OH266601   3.563   1.391  14.950 -0.2660  0.6225  0.4353
15037TIP3    H166602   3.640   1.377  15.005 -0.0326  4.4126  1.3546
15037TIP3    H266603   3.512   1.310  14.959  1.5194 -0.3385  3.2963
15038TIP3   OH266604   0.827   5.785  10.746  0.0615 -0.3246  0.3012
15038TIP3    H166605   0.761   5.737  10.697  1.7688 -2.4717 -0.1109
15038TIP3    H266606   0.809   5.764  10.838 -0.3310 -0.2009  0.2508
15039TIP3   OH266607   6.287   5.942   0.566 -0.5048 -0.2148 -0.3241
15039TIP3    H166608   6.298   5.849   0.551  1.4810 -0.1350  0.3638
15039TIP3    H266609   6.237   5.948   0.648  0.1637 -0.6842  0.1216
15040TIP3   OH266610   5.440   2.088   4.125  0.0077  0.2641  0.1286
15040TIP3    H166611   5.387   2.068   4.203 -0.3493  0.1215 -0.1472
15040TIP3    H266612   5.388   2.151   4.077  0.9941  1.6793  0.8439
15041TIP3   OH266613   4.267   2.144  10.615 -0.1515  0.4606  0.3241
15041TIP3    H166614   4.297   2.093  10.540  0.5430 -0.6361  1.2958
15041TIP3    H266615   4.236   2.078  10.678  0.2145  1.2685  1.3861
15042TIP3   OH266616   0.206   0.385   3.933 -0.1563 -0.2282 -0.0846
15042TIP3    H166617   0.284   0.333   3.950 -0.1286  0.3330  1.7312
15042TIP3    H266618   0.133   0.324   3.947 -0.0759 -0.5107 -0.8585
15043TIP3   OH266619   0.161   3.170  14.403  0.2125  0.5474 -0.0260
15043TIP3    H166620   0.172   3.097  14.465 -2.1699 -0.9445 -1.2177
15043TIP3    H266621   0.095   3.226  14.444 -1.0441 -0.2120 -0.9657
15044TIP3   OH266622   5.703   1.288  10.917  0.4878 -0.0686 -0.1971
15044TIP3    H166623   5.641   1.360  10.907 -0.1853 -0.5304  0.5114
15044TIP3    H266624   5.789   1.330  10.916  0.0941  0.7891  0.5210
15045TIP3   OH266625   0.123   5.474  13.248 -0.0441  1.4235 -0.1007
15045TIP3    H166626   0.210   5.500  13.277  0.0475  0.1085  0.9009
15045TIP3    H266627   0.063   5.505  13.316  0.1753 -1.6896  1.7274
15046TIP3   OH266628   5.709   4.586   3.150 -0.6503 -0.6064  0.6049
15046TIP3    H166629   5.727   4.614   3.240 -1.5149  0.5250  0.4487
15046TIP3    H266630   5.756   4.503   3.141 -1.3008 -1.2084  2.3950
15047TIP3   OH266631   1.403   4.314  12.437 -0.5646 -0.3274 -0.6016
15047TIP3    H166632   1.407   4.351  12.526  2.1433 -0.8659 -0.3971
15047TIP3    H266633   1.326   4.354  12.398 -1.1821  0.8335  1.6060
15048TIP3   OH266634   1.170   6.146   4.044 -0.4928  0.2392 -0.6963
15048TIP3    H166635   1.169   6.108   4.132 -0.6263  3.2255  0.6969
15048TIP3    H266636   1.108   6.091   3.994 -0.3053 -1.6203  0.9687
15049TIP3   OH266637   1.138   0.057  16.734 -0.3266 -0.0565  0.2879
15049TIP3    H166638   1.143  -0.037  16.717  0.3764  0.2451 -1.4252
15049TIP3    H266639   1.100   0.064  16.821 -1.1074 -1.9094  0.1434
15050TIP3   OH266640   3.603   3.456  16.043 -0.9019 -0.3062 -0.1466
15050TIP3    H166641   3.677   3.515  16.030 -0.2157 -1.4329 -1.6511
15050TIP3    H266642   3.575   3.473  16.133 -0.8285  2.3691 -0.5441
15051TIP3   OH266643   6.523   6.684   0.042  0.0521  0.2384  0.3960
15051TIP3    H166644   6.574   6.610   0.073 -1.3286  0.0649  2.4563
15051TIP3    H266645   6.470   6.649  -0.030 -0.0138 -0.5736  0.8314
15052TIP3   OH266646   2.355   3.480  12.261  0.0918  0.3360  0.1480
15052TIP3    H166647   2.324   3.392  12.241  1.0712 -0.0281  0.2231
15052TIP3    H266648   2.302   3.507  12.337  0.4345 -0.5617  0.7261
15053TIP3   OH266649   4.433   3.209  15.207  0.1072 -0.0588 -0.4960
15053TIP3    H166650   4.458   3.206  15.299 -1.8472  0.1282  0.0949
15053TIP3    H266651   4.513   3.190  15.159  1.1789 -0.0878  1.2394
15054TIP3   OH266652   1.320   2.742   2.276  0.1090 -0.0760 -0.0616
15054TIP3    H166653   1.312   2.816   2.215  0.3254 -0.4675 -0.5709
15054TIP3    H266654   1.245   2.686   2.254 -0.3928  0.2783  0.7224
15055TIP3   OH266655   4.423   3.305  16.343 -0.2157 -0.0782  1.1244
15055TIP3    H166656   4.465   3.226  16.378 -1.9519 -1.6380 -0.1196
15055TIP3    H266657   4.347   3.318  16.400 -0.7154 -0.1427  0.4772
15056TIP3   OH266658   5.194   1.741  16.893 -0.3009 -0.4973  0.4579
15056TIP3    H166659   5.283   1.708  16.908  0.4782  1.7250  1.1257
15056TIP3    H266660   5.148   1.723  16.975  0.3326  0.6179  1.0947
15057TIP3   OH266661   6.420   3.747   4.723 -0.1838  0.0801  0.1075
15057TIP3    H166662   6.441   3.786   4.808  0.0793 -0.6735  0.3952
15057TIP3    H266663   6.409   3.822   4.664 -1.8956  0.6808  1.1413
15058TIP3   OH266664   3.518   0.030  13.422 -0.1345  0.0287 -0.0734
15058TIP3    H166665   3.607   0.034  13.455 -0.3003 -0.0464  0.3957
15058TIP3    H266666   3.502  -0.063  13.407  0.4241  0.1754 -1.7422
15059TIP3   OH266667   2.743   2.767   1.540  0.0790 -0.3765  0.2383
15059TIP3    H166668   2.706   2.697   1.486 -0.2169  0.9953 -1.4109
15059TIP3    H266669   2.681   2.778   1.611 -0.7968 -0.6086 -0.4758
15060TIP3   OH266670   2.145   6.076   3.283  0.1210 -0.2471  0.1979
15060TIP3    H166671   2.175   5.988   3.263  1.6278  0.3322 -0.2145
15060TIP3    H266672   2.135   6.077   3.378  1.3901 -0.4857  0.3459
15061TIP3   OH266673   4.613   2.549  13.661  0.3369 -0.1987 -0.4512
15061TIP3    H166674   4.601   2.643  13.647 -0.0475 -0.2067 -0.1892
15061TIP3    H266675   4.539   2.508  13.618  1.6687 -0.5598 -2.5606
15062TIP3   OH266676   1.309   0.928  15.376  0.5651 -0.1720 -0.0999
15062TIP3    H166677   1.262   0.923  15.292  3.1152 -2.5231 -1.5560
15062TIP3    H266678   1.277   0.854  15.426  0.8989 -0.2934 -0.0656
15063TIP3   OH266679   2.337   0.221   4.091 -0.0038  0.0686 -0.3488
15063TIP3    H166680   2.300   0.228   4.179 -0.5363 -0.7020 -0.5031
15063TIP3    H266681   2.261   0.212   4.034  0.3240  0.9064 -0.9267
15064TIP3   OH266682   6.766   6.230   4.755  0.7657  1.0128 -0.2691
15064TIP3    H166683   6.731   6.141   4.756  0.7478  0.9995 -1.2099
15064TIP3    H266684   6.733   6.268   4.674 -1.1312  2.6697  1.1967
15065TIP3   OH266685   6.221   4.438   1.842  0.6314 -0.0429 -0.2463
15065TIP3    H166686   6.291   4.413   1.782 -0.6300  0.9206 -2.2640
15065TIP3    H266687   6.144   4.389   1.811 -0.1516  0.7944  0.3122
15066TIP3   OH266688   4.532   2.251   1.911  0.0094  0.0637  0.4112
15066TIP3    H166689   4.557   2.341   1.933  1.6368 -0.5643  1.3599
15066TIP3    H266690   4.474   2.260   1.835  1.9548  1.7982 -1.0059
15067TIP3   OH266691   0.253   4.946  11.363 -0.7017  0.3625 -0.0222
15067TIP3    H166692   0.258   5.040  11.381  0.0060  0.0991  1.3553
15067TIP3    H266693   0.331   4.928  11.311 -0.6510  0.4883  0.0090
15068TIP3   OH266694   4.947   2.341  15.496 -0.3105 -0.1448  0.3163
15068TIP3    H166695   4.874   2.283  15.476  0.9506 -1.7351  0.1250
15068TIP3    H266696   4.994   2.297  15.567  0.4343  0.8870  0.4862
15069TIP3   OH266697   2.353   5.284  14.952 -0.3005 -0.2313 -0.2898
15069TIP3    H166698   2.366   5.199  14.993  1.2612 -0.1652 -0.6034
15069TIP3    H266699   2.432   5.299  14.900 -1.0610  0.8848 -1.1926
15070TIP3   OH266700   6.507   0.769   5.751  0.1376  0.1998  0.1587
15070TIP3    H166701   6.459   0.801   5.827  1.4963  1.4583  0.5460
15070TIP3    H266702   6.599   0.772   5.777  0.5310 -1.0310 -0.9471
15071TIP3   OH266703   4.451   5.327   2.701 -0.2138 -0.4934 -0.1056
15071TIP3    H166704   4.535   5.288   2.727 -0.8081 -2.4757 -0.9428
15071TIP3    H266705   4.406   5.257   2.654 -1.9581  0.8328 -0.5109
15072TIP3   OH266706   0.481   6.156   2.884 -0.7038  0.5799  0.4994
15072TIP3    H166707   0.526   6.209   2.818 -0.4030  0.5196  0.6510
15072TIP3    H266708   0.548   6.140   2.951 -1.5732  2.5583  1.9546
15073TIP3   OH266709   3.512   3.178  12.308 -0.6526  0.4457  0.3393
15073TIP3    H166710   3.417   3.175  12.310 -0.6131 -1.9483  1.3054
15073TIP3    H266711   3.532   3.252  12.251 -3.0947  0.0538 -1.1773
15074TIP3   OH266712   0.097   6.765  14.613  0.2882  0.4812  0.0420
15074TIP3    H166713   0.050   6.845  14.593 -1.4765 -0.3503  0.6642
15074TIP3    H266714   0.039   6.694  14.585  0.8556 -0.6008  1.4344
15075TIP3   OH266715   0.160   3.603  14.190  0.3933  0.6104 -0.7551
15075TIP3    H166716   0.070   3.612  14.223  0.3573 -0.9848 -0.3402
15075TIP3    H266717   0.152   3.537  14.121  1.3531 -0.0255 -0.2674
15076TIP3   OH266718   2.971   4.981   3.142  0.4826 -0.2816  0.2789
15076TIP3    H166719   2.933   5.058   3.099  0.8576  0.2442  0.8662
15076TIP3    H266720   2.916   4.967   3.218  1.4831  0.5425  1.1898
15077TIP3   OH266721   1.618   2.141   3.681  0.2025 -0.1548  0.3130
15077TIP3    H166722   1.663   2.189   3.750 -3.2444  1.1228  1.9172
15077TIP3    H266723   1.602   2.206   3.612 -0.6245 -0.1152  0.5289
15078TIP3   OH266724   1.916   4.371   0.496  0.0683  0.0449  0.7742
15078TIP3    H166725   1.941   4.376   0.403 -2.3335  0.6753  0.1044
15078TIP3    H266726   1.914   4.277   0.515 -0.0980 -0.1167 -0.0047
15079TIP3   OH266727   3.184   3.613  13.454  0.2148  0.1931 -0.1500
15079TIP3    H166728   3.120   3.647  13.392 -1.2991  0.9914  1.7210
15079TIP3    H266729   3.167   3.518  13.455  1.8620 -0.2065 -2.5822
15080TIP3   OH266730   3.371   5.285   4.635  0.5664 -0.1347 -0.3013
15080TIP3    H166731   3.388   5.319   4.548 -1.3969  0.4646 -0.4978
15080TIP3    H266732   3.314   5.350   4.676 -0.2168 -1.3881  0.6797
15081TIP3   OH266733   0.098   1.231  13.139  0.0293 -0.2336 -0.3857
15081TIP3    H166734   0.160   1.160  13.158  2.8841  2.1311 -0.1671
15081TIP3    H266735   0.074   1.266  13.225  0.1268  0.2361 -0.5458
15082TIP3   OH266736   4.593   2.200   6.878 -0.9832  0.0361  0.1115
15082TIP3    H166737   4.661   2.161   6.824 -1.4197  0.3882 -0.6986
15082TIP3    H266738   4.514   2.198   6.824 -1.0359  2.0029  0.0322
15083TIP3   OH266739   1.032   3.816   5.700  0.2073 -0.7138  0.0406
15083TIP3    H166740   0.951   3.796   5.653 -0.7879 -1.3624  1.8936
15083TIP3    H266741   1.016   3.784   5.789  1.3452  1.8181  1.2752
15084TIP3   OH266742   3.020   2.973   0.390  0.1121  0.4246 -0.7949
15084TIP3    H166743   2.955   3.028   0.435 -0.5692 -1.3752  0.5164
15084TIP3    H266744   3.104   3.013   0.412 -0.3763  1.0659 -0.0284
15085TIP3   OH266745   6.736   5.592  14.488 -0.4585 -0.1590 -0.5679
15085TIP3    H166746   6.825   5.571  14.517 -0.0996 -0.7022 -2.0314
15085TIP3    H266747   6.680   5.554  14.556  0.3776 -0.9083 -0.2723
15086TIP3   OH266748   3.968   5.979  14.905  0.1145  0.8338  0.0098
15086TIP3    H166749   4.024   5.902  14.903 -1.0556 -0.0835  1.0792
15086TIP3    H266750   3.998   6.032  14.831  0.9113 -0.6653 -0.7989
15087TIP3   OH266751   4.049   6.024  15.250  0.0398 -0.1543 -0.4530
15087TIP3    H166752   4.103   5.957  15.208 -0.5547  0.2432 -1.8937
15087TIP3    H266753   4.072   6.105  15.205 -0.6709  0.2693 -0.0630
15088TIP3   OH266754   0.687   1.772   1.234  0.0937  0.1237 -0.0377
15088TIP3    H166755   0.767   1.794   1.282 -0.3360  0.6460  0.4447
15088TIP3    H266756   0.714   1.771   1.142  0.2902  2.0380 -0.0358
15089TIP3   OH266757   0.299   3.110   1.629  0.4541 -0.6168 -0.2891
15089TIP3    H166758   0.216   3.106   1.582 -0.4779  2.0429  0.9644
15089TIP3    H266759   0.287   3.051   1.704  0.3126 -1.4559 -0.9640
15090TIP3   OH266760   4.674   2.083   3.746  0.1920  0.4366 -0.7875
15090TIP3    H166761   4.649   2.000   3.706 -1.0524 -0.5601  1.8330
15090TIP3    H266762   4.631   2.150   3.692 -0.8492 -0.7797 -1.5197
15091TIP3   OH266763   6.445   3.021   2.319  0.1572  0.2824  0.7744
15091TIP3    H166764   6.372   2.988   2.268  0.8223  1.2613 -0.8964
15091TIP3    H266765   6.449   3.114   2.298  1.2642  0.4541  1.6276
15092TIP3   OH266766   1.500   4.890   0.401  0.3075 -0.3400  0.1035
15092TIP3    H166767   1.425   4.900   0.459  0.4576  0.4324  0.1746
15092TIP3    H266768   1.541   4.977   0.398  1.7705 -0.9677  0.8414
15093TIP3   OH266769   5.178   5.064  15.809 -0.5797 -0.1002  0.2061
15093TIP3    H166770   5.084   5.061  15.826 -0.7871  0.2871 -0.7934
15093TIP3    H266771   5.219   5.046  15.894 -1.5481 -2.2326  0.2846
15094TIP3   OH266772   5.776   2.346   2.415 -0.4810 -0.5423 -0.3701
15094TIP3    H166773   5.835   2.361   2.341 -0.5097  0.2033 -0.2465
15094TIP3    H266774   5.700   2.302   2.376 -0.7278  0.3155 -0.8849
15095TIP3   OH266775   4.331   4.402  12.655  0.3383 -0.0689  0.0265
15095TIP3    H166776   4.402   4.413  12.592  0.2117  0.9166  0.0465
15095TIP3    H266777   4.257   4.448  12.616 -0.1890 -0.7801  0.1751
15096TIP3   OH266778   0.122   3.191  10.819 -0.0064  0.0365  0.0856
15096TIP3    H166779   0.188   3.124  10.800 -0.1803  0.3923 -1.9284
15096TIP3    H266780   0.039   3.147  10.803 -0.2318  0.0197  1.2231
15097TIP3   OH266781   4.212   1.545   0.098  0.2825 -0.8057  0.3270
15097TIP3    H166782   4.155   1.598   0.154  0.1488  0.5763 -1.0664
15097TIP3    H266783   4.300   1.576   0.118  0.1037  1.5247 -1.9051
15098TIP3   OH266784   4.146   4.844   4.116 -0.0207 -0.5399  0.1287
15098TIP3    H166785   4.242   4.845   4.112  0.1750  2.3180  2.4542
15098TIP3    H266786   4.118   4.868   4.028  1.3244 -1.6729 -0.6622
15099TIP3   OH266787   4.518   1.766  15.090 -0.2472 -0.4840  0.3479
15099TIP3    H166788   4.465   1.777  15.011  1.4460  0.4247 -0.7326
15099TIP3    H266789   4.456   1.742  15.158 -2.1262  1.2500 -0.6693
15100TIP3   OH266790   4.635   5.871   6.284 -0.1186 -0.5602 -0.2332
15100TIP3    H166791   4.730   5.869   6.277 -0.0840  0.3421 -0.1199
15100TIP3    H266792   4.611   5.783   6.314  0.7090 -0.6675  0.1293
15101TIP3   OH266793   4.708   2.368   2.667 -0.3703  0.1161  0.0824
15101TIP3    H166794   4.640   2.386   2.602  0.0013 -1.1998 -0.7219
15101TIP3    H266795   4.681   2.286   2.709  0.4059 -0.1097  0.1700
15102TIP3   OH266796   1.491   2.322  15.186 -0.0692  0.5921  0.1376
15102TIP3    H166797   1.442   2.385  15.134 -0.5738  0.2956  0.2485
15102TIP3    H266798   1.573   2.368  15.208  0.0090  0.8294 -0.6348
15103TIP3   OH266799   1.080   6.708  12.451 -0.5158  0.7434  0.2272
15103TIP3    H166800   1.073   6.771  12.523 -0.9809 -0.6575  1.4582
15103TIP3    H266801   1.015   6.640  12.472 -0.7056  0.3192 -1.5579
15104TIP3   OH266802   4.375   0.321   5.720 -0.2844  0.5761 -0.2327
15104TIP3    H166803   4.315   0.366   5.779 -0.4742 -1.2155  0.9974
15104TIP3    H266804   4.451   0.299   5.775 -0.5323 -1.2602 -0.5547
15105TIP3   OH266805   1.707   3.107   1.483  0.2733 -0.6684 -0.5458
15105TIP3    H166806   1.713   3.199   1.510 -2.0666 -0.1033 -1.6337
15105TIP3    H266807   1.754   3.103   1.399  2.2096 -1.0142  0.4967
15106TIP3   OH266808   2.879   2.851  12.049  0.3988 -0.0587 -0.3591
15106TIP3    H166809   2.932   2.908  11.993  2.1817 -1.2813  0.0126
15106TIP3    H266810   2.843   2.909  12.116  2.3505  0.6458  0.1416
15107TIP3   OH266811   5.404   5.183  11.710 -0.3447  0.2329  0.2973
15107TIP3    H166812   5.413   5.274  11.736 -0.8639  0.5804 -0.6879
15107TIP3    H266813   5.488   5.143  11.733  0.4086  1.2871 -0.5175
15108TIP3   OH266814   0.680   4.120  15.862 -0.2493 -0.1736  0.0663
15108TIP3    H166815   0.730   4.060  15.918 -0.8406  0.3959  1.2331
15108TIP3    H266816   0.743   4.151  15.798  0.9825  0.6767  1.6256
15109TIP3   OH266817   0.897   2.168   0.409  0.4614  0.3036 -0.5419
15109TIP3    H166818   0.944   2.087   0.430 -0.2542 -0.2882 -1.1746
15109TIP3    H266819   0.903   2.220   0.489  0.5400 -0.5547  0.0309
15110TIP3   OH266820   2.562   6.385  13.913 -0.3062  0.2839  0.5453
15110TIP3    H166821   2.599   6.438  13.843 -1.1949  0.2929  0.0624
15110TIP3    H266822   2.481   6.431  13.937 -0.1641  0.1193  1.3705
15111TIP3   OH266823   4.772   5.410  13.813 -0.3249 -0.1087  0.0303
15111TIP3    H166824   4.800   5.320  13.798 -1.4181 -0.6994  1.3552
15111TIP3    H266825   4.705   5.427  13.746 -0.4307 -0.4329  0.0548
15112TIP3   OH266826   1.508   0.844   0.210 -0.4713  0.1205  0.1012
15112TIP3    H166827   1.601   0.857   0.190 -0.1849 -1.3957  0.2977
15112TIP3    H266828   1.462   0.876   0.132  0.2959 -0.2715 -0.5325
15113TIP3   OH266829   6.216   1.795   4.344  0.1284  0.5559 -0.1566
15113TIP3    H166830   6.145   1.832   4.292 -0.8727 -1.8038 -0.5772
15113TIP3    H266831   6.228   1.857   4.416 -0.1790  2.5983 -1.7829
15114TIP3   OH266832   6.554   4.492  14.137 -0.5261 -0.0578 -0.9094
15114TIP3    H166833   6.502   4.531  14.207 -1.1517  0.7627 -1.8054
15114TIP3    H266834   6.639   4.536  14.142 -0.7988  0.4958 -1.0922
15115TIP3   OH266835   3.041   0.367  11.962  0.5840  0.0679 -0.2453
15115TIP3    H166836   2.953   0.341  11.936  0.0512  1.8331 -0.3598
15115TIP3    H266837   3.090   0.371  11.881  1.0253 -1.6549 -0.1067
15116TIP3   OH266838   6.282   3.431   2.859 -0.6100 -0.3298 -0.2094
15116TIP3    H166839   6.344   3.399   2.924 -0.3608 -0.6195 -0.5848
15116TIP3    H266840   6.255   3.352   2.811 -1.4734 -0.2465  0.1249
15117TIP3   OH266841   4.970   4.238  11.404 -0.1540  0.1423  0.2509
15117TIP3    H166842   5.057   4.280  11.400 -0.3944  0.7127  0.7506
15117TIP3    H266843   4.925   4.270  11.326  0.9394 -2.1932 -1.4480
15118TIP3   OH266844   6.309   4.371  16.114 -0.0758  0.7675 -0.6556
15118TIP3    H166845   6.307   4.442  16.179 -0.7679  1.4072 -1.3487
15118TIP3    H266846   6.375   4.400  16.051  1.7018 -0.5641  0.5060
15119TIP3   OH266847   0.473   3.957  16.935 -0.0411  0.3244  0.2132
15119TIP3    H166848   0.484   4.051  16.948 -1.2607  0.3486  1.3569
15119TIP3    H266849   0.538   3.917  16.992  0.4217  0.4641 -0.2106
15120TIP3   OH266850   0.988   5.229   2.864  0.0226  0.0817 -0.9207
15120TIP3    H166851   1.053   5.295   2.841  0.9574 -1.2457 -2.1594
15120TIP3    H266852   0.962   5.252   2.954 -0.4534  2.7175 -1.6384
15121TIP3   OH266853   3.399   1.582   2.563 -0.1228  0.6188  0.1202
15121TIP3    H166854   3.313   1.623   2.575  0.0088  1.5526 -1.7922
15121TIP3    H266855   3.382   1.506   2.508  0.2513  0.6407 -0.0214
15122TIP3   OH266856   3.369   0.815  13.844 -0.4182  0.0894 -0.3313
15122TIP3    H166857   3.434   0.810  13.914 -0.1534  0.8132 -0.5196
15122TIP3    H266858   3.355   0.724  13.819 -0.9802 -0.2343  1.0781
15123TIP3   OH266859   2.077   3.682  13.814  0.7824 -0.1487  0.0922
15123TIP3    H166860   2.122   3.727  13.886  0.6328  0.7465 -0.3492
15123TIP3    H266861   2.134   3.609  13.792  0.7221 -0.5732  1.2587
15124TIP3   OH266862   4.981   2.961   6.035  0.0948  0.4106  0.1766
15124TIP3    H166863   4.959   2.888   5.978  0.6032  1.2172 -1.1021
15124TIP3    H266864   4.922   3.031   6.008  0.8146  1.0220  0.1461
15125TIP3   OH266865   3.010   4.881   4.530 -0.6834  0.5337  0.3148
15125TIP3    H166866   2.995   4.899   4.623  0.5035 -1.3314  0.9311
15125TIP3    H266867   3.098   4.917   4.513 -0.2714 -0.4511  0.3258
15126TIP3   OH266868   3.216   4.025   5.303  0.1092 -0.2930  0.5019
15126TIP3    H166869   3.292   3.985   5.259  2.3966  0.4705  3.4610
15126TIP3    H266870   3.148   3.958   5.299  1.5227 -1.7412 -0.6750
15127TIP3   OH266871   6.029   5.455  12.238 -0.2618  0.1216  0.1486
15127TIP3    H166872   5.965   5.391  12.269  0.4721 -0.6215  0.1649
15127TIP3    H266873   6.102   5.446  12.299  0.3229  0.1492 -0.5481
15128TIP3   OH266874   0.308   0.028   4.619 -0.0805 -0.0141 -0.5934
15128TIP3    H166875   0.401   0.045   4.611  0.0395  0.6305  1.5739
15128TIP3    H266876   0.265   0.104   4.580  0.3454  0.8571  0.6114
15129TIP3   OH266877   2.276   2.440  13.191 -1.1340  0.1799  0.1410
15129TIP3    H166878   2.308   2.528  13.173  2.8216 -1.1188 -0.0903
15129TIP3    H266879   2.248   2.406  13.106  0.4538  0.1434 -0.3829
15130TIP3   OH266880   4.396   1.523   6.228 -0.1657 -0.7527 -0.7052
15130TIP3    H166881   4.447   1.504   6.149 -0.0267 -0.9437 -0.5707
15130TIP3    H266882   4.309   1.544   6.195  0.1977  0.3842 -0.9964
15131TIP3   OH266883   3.616   5.699   5.107 -0.8605 -0.1460 -0.6840
15131TIP3    H166884   3.629   5.664   5.019 -1.3292 -1.2883 -0.3191
15131TIP3    H266885   3.587   5.624   5.159 -1.7159  0.7512  0.1848
15132TIP3   OH266886   0.173   1.928   1.684 -0.0977  0.0741  0.7395
15132TIP3    H166887   0.102   1.936   1.748 -0.9891  0.0848 -0.2168
15132TIP3    H266888   0.143   1.860   1.624  0.4910  0.3921  0.0694
15133TIP3   OH266889   2.034   0.756  16.449 -0.0023  0.4329 -0.4161
15133TIP3    H166890   2.120   0.748  16.408 -0.2959 -0.1208 -0.9462
15133TIP3    H266891   1.983   0.685  16.411 -0.3813  0.0863  0.7037
15134TIP3   OH266892   5.978   4.204  15.037  0.1280  0.1564 -0.3316
15134TIP3    H166893   6.005   4.122  14.997 -1.6979 -0.1576 -1.0595
15134TIP3    H266894   5.947   4.180  15.124  2.2705  0.5478  0.5921
15135TIP3   OH266895   6.654   0.098  11.047  0.3273  0.1230 -0.1265
15135TIP3    H166896   6.681   0.190  11.038 -1.3972  0.7354  0.4914
15135TIP3    H266897   6.729   0.055  11.088  0.9984  1.3538 -0.0161
15136TIP3   OH266898   2.381   1.577  14.611 -0.5006  0.1464  0.0810
15136TIP3    H166899   2.328   1.509  14.652  0.7266 -1.2192 -0.5033
15136TIP3    H266900   2.471   1.548  14.624 -0.0262 -0.0831 -2.9968
15137TIP3   OH266901   3.831   0.697  14.073  0.0729  0.0646  0.0513
15137TIP3    H166902   3.871   0.619  14.035  2.0518  1.7968 -1.6806
15137TIP3    H266903   3.747   0.705  14.028 -0.7234 -1.6704  1.1335
15138TIP3   OH266904   2.594   0.143   1.602  0.9460  0.7055  0.1756
15138TIP3    H166905   2.510   0.114   1.566 -0.5158 -0.8794  4.1982
15138TIP3    H266906   2.658   0.079   1.570 -0.4850 -1.3960  1.2764
15139TIP3   OH266907   3.998   4.386   4.101  0.4344 -0.5457  0.6080
15139TIP3    H166908   4.017   4.466   4.149  1.0142  0.5608 -1.3532
15139TIP3    H266909   3.908   4.365   4.125 -0.1487  1.3738  0.2863
15140TIP3   OH266910   2.835   5.687  10.877 -0.0842  0.0544 -0.3755
15140TIP3    H166911   2.920   5.654  10.906  0.5676  1.2538 -0.8185
15140TIP3    H266912   2.782   5.609  10.862  0.6702 -0.6883  0.7015
15141TIP3   OH266913   4.222   5.872   1.276  0.2182 -0.8036  0.1439
15141TIP3    H166914   4.255   5.900   1.361  1.0088 -1.1383 -0.0460
15141TIP3    H266915   4.127   5.868   1.287  0.4198 -3.4754  1.8365
15142TIP3   OH266916   4.447   5.521   6.071 -0.4708  0.1252 -0.7245
15142TIP3    H166917   4.398   5.483   6.144  0.5773 -1.2165 -0.6815
15142TIP3    H266918   4.464   5.447   6.012  0.1354  0.8653 -1.5066
15143TIP3   OH266919   3.345   5.946   2.732  0.0529 -0.1925 -0.4303
15143TIP3    H166920   3.308   5.905   2.810  0.3639  0.2575 -0.0411
15143TIP3    H266921   3.270   5.986   2.688  0.0087  0.3484  0.1279
15144TIP3   OH266922   0.782   3.813  13.719 -0.4212 -0.2139  0.7212
15144TIP3    H166923   0.727   3.887  13.742 -2.1203  0.0787 -3.3823
15144TIP3    H266924   0.859   3.853  13.677  1.0257 -0.7528  2.7210
15145TIP3   OH266925   4.302   1.725   5.562 -0.3260 -0.1495 -0.1470
15145TIP3    H166926   4.230   1.675   5.524 -0.4487 -0.1745  0.1217
15145TIP3    H266927   4.376   1.707   5.504 -0.3515 -0.6906 -0.0126
15146TIP3   OH266928   2.209   4.459  17.205  0.2051 -0.6088  0.8054
15146TIP3    H166929   2.280   4.522  17.199  0.1702 -0.5510  0.9845
15146TIP3    H266930   2.130   4.510  17.190  0.3215 -1.0600 -1.7189
15147TIP3   OH266931   0.689   4.321  14.380 -0.2562 -0.1344 -0.7426
15147TIP3    H166932   0.617   4.346  14.437  0.0948 -1.9550  0.5827
15147TIP3    H266933   0.767   4.359  14.421  0.4684 -4.0097  2.0129
15148TIP3   OH266934   2.549   4.112   0.947  0.4124  0.3298  0.2765
15148TIP3    H166935   2.472   4.108   0.890 -0.5685 -2.4185  1.6169
15148TIP3    H266936   2.513   4.122   1.035  1.7948  2.2925  0.6775
15149TIP3   OH266937   6.350   5.962  11.322  0.2845  0.0647  0.3404
15149TIP3    H166938   6.339   6.008  11.405  1.7968 -0.6576  0.9832
15149TIP3    H266939   6.284   5.893  11.324  0.2993  0.0668  0.9307
15150TIP3   OH266940   6.033   5.893  15.533 -0.2420 -0.5884 -0.1350
15150TIP3    H166941   5.963   5.839  15.496 -1.2891  1.3091 -1.1022
15150TIP3    H266942   6.003   5.983  15.518  0.7183  0.2948  2.6921
15151TIP3   OH266943   4.174   0.326  10.603 -0.2867  0.1941 -0.0577
15151TIP3    H166944   4.172   0.399  10.541  0.7370  0.4110  0.1443
15151TIP3    H266945   4.212   0.254  10.552  2.8173  1.0093  0.9024
15152TIP3   OH266946   0.360   1.475  13.687 -0.2060  0.1911 -0.8483
15152TIP3    H166947   0.381   1.564  13.658 -0.1130  0.6199  0.4601
15152TIP3    H266948   0.388   1.473  13.779 -0.5161 -1.0891 -0.7660
15153TIP3   OH266949   0.153   6.198  11.684 -0.2566 -0.0081  0.1174
15153TIP3    H166950   0.242   6.164  11.691 -0.4823 -1.2671 -2.2943
15153TIP3    H266951   0.098   6.133  11.728 -0.1862 -0.3018 -0.2247
15154TIP3   OH266952   5.992   2.500   3.003  0.1607 -0.0554  0.6394
15154TIP3    H166953   5.929   2.524   2.935 -0.0216  0.9114  1.1288
15154TIP3    H266954   6.056   2.445   2.959 -0.6376 -0.4675 -0.0315
15155TIP3   OH266955   0.952   6.218   3.004  0.2724  0.6777 -0.5716
15155TIP3    H166956   0.999   6.273   2.942  1.8582 -0.1349 -0.1413
15155TIP3    H266957   0.987   6.243   3.090 -0.1810  0.1294 -0.2188
15156TIP3   OH266958   1.211   4.392   4.459 -0.0383  0.0949 -0.5651
15156TIP3    H166959   1.268   4.403   4.383 -0.0472 -1.6843 -0.8749
15156TIP3    H266960   1.126   4.369   4.422 -0.0306 -0.8374 -0.0317
15157TIP3   OH266961   3.217   1.323  14.593 -0.3201  0.4672  0.0019
15157TIP3    H166962   3.176   1.246  14.633  0.5839 -0.0096  0.0324
15157TIP3    H266963   3.307   1.322  14.626 -0.2258  1.3914 -0.2071
15158TIP3   OH266964   6.220   2.914  14.609 -0.0178  0.0601 -0.1189
15158TIP3    H166965   6.280   2.895  14.536  0.5129 -1.6974  0.7161
15158TIP3    H266966   6.133   2.896  14.574  0.3184 -2.0941 -0.0078
15159TIP3   OH266967   6.752   0.180  14.374  0.1315  0.9735 -0.7279
15159TIP3    H166968   6.693   0.156  14.445 -0.2402  0.4047 -1.2166
15159TIP3    H266969   6.721   0.264  14.343  0.2352  1.1780 -0.2853
15160TIP3   OH266970   2.970   1.552  11.416 -0.3511  0.0822 -0.3281
15160TIP3    H166971   3.025   1.587  11.346 -2.5016  2.0089 -1.2100
15160TIP3    H266972   2.987   1.609  11.491 -0.1355 -0.1951 -0.1649
15161TIP3   OH266973   4.870   2.027   3.524  0.3079 -0.3922 -0.0465
15161TIP3    H166974   4.862   2.014   3.430  1.3996 -0.7249 -0.1077
15161TIP3    H266975   4.789   1.991   3.560 -0.5849  0.6752 -0.9230
15162TIP3   OH266976   5.340   1.644   6.266 -0.1933 -0.1286  0.7872
15162TIP3    H166977   5.431   1.620   6.285 -0.6660 -1.6571  1.2534
15162TIP3    H266978   5.307   1.680   6.348  0.1662  1.0672  0.4267
15163TIP3   OH266979   3.479   2.521  15.913 -0.2702  0.0313  0.3465
15163TIP3    H166980   3.560   2.519  15.964  1.2119 -0.3047 -1.8709
15163TIP3    H266981   3.444   2.609  15.926  1.0553  0.5472  0.4929
15164TIP3   OH266982   0.939   2.442  12.765  0.1432 -1.3951  0.8665
15164TIP3    H166983   0.870   2.376  12.765  0.1508 -1.4301  2.1086
15164TIP3    H266984   1.018   2.394  12.793  0.3643 -1.0670  0.8102
15165TIP3   OH266985   1.756   5.698  14.206  0.0859  0.9155 -0.2396
15165TIP3    H166986   1.694   5.638  14.246 -0.0884  0.8755 -0.5681
15165TIP3    H266987   1.806   5.733  14.280  0.3127  0.2346 -0.0593
15166TIP3   OH266988   3.260   2.193  15.386 -0.4166  0.1337  0.4567
15166TIP3    H166989   3.209   2.113  15.401  1.3290 -1.6908 -2.3808
15166TIP3    H266990   3.336   2.184  15.444 -1.0729  0.6766  1.4358
15167TIP3   OH266991   5.451   5.639  14.228  0.2409 -0.1762 -0.4143
15167TIP3    H166992   5.536   5.683  14.234  0.3992 -0.3412 -1.2451
15167TIP3    H266993   5.471   5.546  14.227 -0.0097 -0.2401  0.1512
15168TIP3   OH266994   1.182   2.141   1.849 -0.4154 -0.4903 -0.7426
15168TIP3    H166995   1.152   2.051   1.840 -4.0889  0.4846 -0.1628
15168TIP3    H266996   1.126   2.191   1.789  0.1572  1.6039  0.3490
15169TIP3   OH266997   4.291   5.594  14.312  0.0032  0.7387  0.0390
15169TIP3    H166998   4.318   5.572  14.401  0.0822 -0.1189 -0.1870
15169TIP3    H266999   4.349   5.542  14.256 -0.6174  0.6000 -0.4897
15170TIP3   OH267000   3.895   0.505   3.158  0.4237  0.2081 -0.2220
15170TIP3    H167001   3.883   0.463   3.243  0.9827  0.0161 -0.2311
15170TIP3    H267002   3.822   0.567   3.150  1.6406  1.9572  1.4353
15171TIP3   OH267003   2.070   0.962  14.411  0.6401  0.2488 -0.2297
15171TIP3    H167004   1.994   1.018  14.430 -0.3480 -1.2193  0.3362
15171TIP3    H267005   2.140   0.997  14.465 -0.5568 -0.3452  1.7874
15172TIP3   OH267006   6.743   0.184   2.941 -0.1232  0.4375 -0.2082
15172TIP3    H167007   6.811   0.179   2.874 -1.3493  1.4595 -1.5681
15172TIP3    H267008   6.758   0.107   2.996  0.9128 -0.4289 -1.6464
15173TIP3   OH267009   2.233   0.205  16.741 -0.2820 -0.5593  0.2621
15173TIP3    H167010   2.153   0.179  16.786 -1.1369 -1.1763 -1.4958
15173TIP3    H267011   2.302   0.192  16.805 -1.5866  0.2402  1.9230
15174TIP3   OH267012   4.785   5.798  11.407 -0.3303  0.2198 -0.4779
15174TIP3    H167013   4.739   5.737  11.351 -3.2957 -1.6536  3.4830
15174TIP3    H267014   4.873   5.760  11.417 -0.2223 -0.1647 -2.5354
15175TIP3   OH267015   4.605   0.239   5.369  0.1906  0.7036 -0.2896
15175TIP3    H167016   4.590   0.148   5.345 -0.0600  0.1135  1.9152
15175TIP3    H267017   4.678   0.235   5.431 -0.8476  1.8106  1.0414
15176TIP3   OH267018   4.009   1.497   2.247 -0.5653 -0.2420  0.1553
15176TIP3    H167019   4.013   1.560   2.319 -1.0108 -0.4710  0.3825
15176TIP3    H267020   4.101   1.478   2.227 -0.4383 -0.1543  0.6452
15177TIP3   OH267021   3.022   4.438   3.519 -0.5108  0.9631 -0.1310
15177TIP3    H167022   3.113   4.464   3.532 -0.6109  0.8845  0.8008
15177TIP3    H267023   3.020   4.400   3.431  0.5634  0.0851  0.1961
15178TIP3   OH267024   1.470   1.678  12.493 -0.7304 -0.3153  0.0337
15178TIP3    H167025   1.546   1.620  12.492 -1.1456 -0.9145  1.2147
15178TIP3    H267026   1.507   1.766  12.482  0.1208 -0.6159  0.3832
15179TIP3   OH267027   0.562   1.903   2.482 -0.3902  0.3916 -0.2358
15179TIP3    H167028   0.591   1.844   2.413 -1.0289 -1.9499  1.3784
15179TIP3    H267029   0.641   1.925   2.531 -0.3960 -0.9760  0.4521
15180TIP3   OH267030   4.819   2.111  13.387  0.5374 -0.3212 -0.3828
15180TIP3    H167031   4.834   2.151  13.301  1.0813 -0.7389 -0.4873
15180TIP3    H267032   4.817   2.017  13.370 -1.8884 -0.3450 -0.3124
15181TIP3   OH267033   4.552   3.092  17.032 -0.5022  0.0626 -0.1112
15181TIP3    H167034   4.556   3.099  16.937 -1.3992 -1.6094 -0.3157
15181TIP3    H267035   4.466   3.054  17.050 -0.2693  0.1463  1.3680
15182TIP3   OH267036   4.319   2.322  10.801  0.2049  0.2182  0.2225
15182TIP3    H167037   4.337   2.273  10.721 -2.7470 -0.4602 -0.1297
15182TIP3    H267038   4.368   2.275  10.869 -0.8698 -2.0231 -0.4588
15183TIP3   OH267039   4.896   4.738   2.724 -0.1124 -0.4470 -0.0686
15183TIP3    H167040   4.891   4.674   2.653  1.6493 -0.4214 -0.2573
15183TIP3    H267041   4.986   4.731   2.757 -0.4862  0.5054  1.2628
15184TIP3   OH267042   5.388   5.428   1.590 -0.2946  0.2515  0.1746
15184TIP3    H167043   5.484   5.423   1.587 -0.2607 -0.2710  1.4370
15184TIP3    H267044   5.366   5.500   1.531  0.8924  0.5191  0.0277
15185TIP3   OH267045   3.885   0.403   3.426  0.3799  0.1906  0.1598
15185TIP3    H167046   3.980   0.410   3.423  0.2413  3.0574 -0.7227
15185TIP3    H267047   3.855   0.489   3.456 -1.9699 -0.0201 -1.2822
15186TIP3   OH267048   2.477   6.437  15.723  0.3002  0.3725  0.1331
15186TIP3    H167049   2.440   6.455  15.809 -1.2309  0.5296 -0.5308
15186TIP3    H267050   2.536   6.511  15.706  0.0189  0.7366  0.7196
15187TIP3   OH267051   2.057   3.086  11.133  0.3269 -0.0843 -0.3217
15187TIP3    H167052   2.094   2.998  11.127  1.6232  0.2945  1.3453
15187TIP3    H267053   2.130   3.145  11.113  0.7395  0.6730  2.8760
15188TIP3   OH267054   5.870   6.304   5.366  0.3382  0.3335  0.0767
15188TIP3    H167055   5.880   6.214   5.336  2.6807  0.1447  1.1662
15188TIP3    H267056   5.819   6.298   5.446 -1.4185  0.2752 -0.9921
15189TIP3   OH267057   2.511   4.456   0.039 -0.2924 -0.0040 -0.0472
15189TIP3    H167058   2.584   4.400   0.015  0.2509  0.6060  0.1630
15189TIP3    H267059   2.511   4.457   0.134  0.6310  1.5048 -0.0231
15190TIP3   OH267060   6.787   1.762   1.986 -0.1446  0.2997  0.3525
15190TIP3    H167061   6.707   1.708   1.988  1.2885 -1.9876 -0.3585
15190TIP3    H267062   6.758   1.844   1.945 -1.8934 -0.9786 -1.2067
15191TIP3   OH267063   3.852   6.616  14.810  0.4544 -0.4243 -0.4921
15191TIP3    H167064   3.851   6.700  14.762 -1.3763  0.0237  0.2788
15191TIP3    H267065   3.913   6.631  14.882 -2.0884  1.3726  1.4500
15192TIP3   OH267066   5.946   1.446   0.256  0.2117 -0.1509  0.7686
15192TIP3    H167067   5.973   1.532   0.286  1.4752  0.4204 -1.7276
15192TIP3    H267068   5.851   1.454   0.241  0.2337  0.6447  1.0528
15193TIP3   OH267069   6.784   3.614   5.198 -0.1821 -0.2441 -0.0599
15193TIP3    H167070   6.865   3.655   5.229  0.2399  0.0241 -1.4665
15193TIP3    H267071   6.813   3.543   5.142 -0.8625  0.9932 -2.0689
15194TIP3   OH267072   3.097   4.678   0.932 -0.4194 -0.5814  0.2150
15194TIP3    H167073   3.066   4.682   0.842 -0.3633  0.5118  0.2336
15194TIP3    H267074   3.180   4.727   0.931 -0.0553 -1.1699  0.7180
15195TIP3   OH267075   2.856   1.146  15.644 -0.3341  0.1132  0.0251
15195TIP3    H167076   2.898   1.061  15.627  0.5598  0.6907 -0.7940
15195TIP3    H267077   2.763   1.130  15.629 -0.2784 -0.9037  0.6495
15196TIP3   OH267078   5.500   2.050   5.309  0.4475  0.0889 -0.6327
15196TIP3    H167079   5.550   2.053   5.228  0.3524  1.3010 -0.6614
15196TIP3    H267080   5.518   2.133   5.352  0.0564 -0.3069  0.3306
15197TIP3   OH267081   4.406   0.200   3.636 -0.4244 -0.8090 -0.2873
15197TIP3    H167082   4.472   0.141   3.673 -0.6401 -1.9025 -1.5488
15197TIP3    H267083   4.379   0.255   3.709  0.3216 -1.7993  0.7705
15198TIP3   OH267084   0.805   4.495   3.100 -0.1388  0.4182  0.5159
15198TIP3    H167085   0.810   4.549   3.021 -0.0230 -1.0128 -0.4931
15198TIP3    H267086   0.745   4.542   3.158  1.3093  2.5062  0.4147
15199TIP3   OH267087   1.913   5.873   2.730  0.1561 -0.0110  0.2885
15199TIP3    H167088   2.001   5.899   2.704  0.5455  0.4520  1.9845
15199TIP3    H267089   1.926   5.794   2.782 -0.3597  0.3832  1.0307
15200TIP3   OH267090   3.099   5.001  11.320  0.4453  0.2277 -0.1742
15200TIP3    H167091   3.126   5.086  11.354  0.4282 -0.0322  0.5127
15200TIP3    H267092   3.140   4.937  11.379 -1.3666 -0.1873  0.7274
15201TIP3   OH267093   3.960   0.382  12.704 -0.5157  0.4760 -0.5997
15201TIP3    H167094   3.890   0.347  12.650 -0.8857  0.1257  0.0886
15201TIP3    H267095   3.920   0.455  12.751 -0.2802  0.5941 -0.5816
15202TIP3   OH267096   4.633   5.449  13.552  0.3240  0.2983 -0.1923
15202TIP3    H167097   4.566   5.381  13.563  0.4080  0.4713  1.7974
15202TIP3    H267098   4.600   5.505  13.482 -3.7017  2.6830  3.1709
15203TIP3   OH267099   5.540   0.969  14.900 -0.3735 -0.3811 -0.3674
15203TIP3    H167100   5.561   1.062  14.912 -0.5275 -0.1211 -1.9162
15203TIP3    H267101   5.520   0.938  14.988  0.6130  0.8125  0.3247
15204TIP3   OH267102   6.752   1.475   3.603 -0.3323 -0.0354  0.0085
15204TIP3    H167103   6.669   1.451   3.643 -0.3527  0.9794  0.5980
15204TIP3    H267104   6.759   1.418   3.526 -1.1146 -0.7838  0.4803
15205TIP3   OH267105   0.716   2.110   4.912  0.0975  0.2833  0.0078
15205TIP3    H167106   0.765   2.072   4.985 -0.3552  0.1787  0.2547
15205TIP3    H267107   0.751   2.199   4.903  1.2105 -0.1944 -0.6174
15206TIP3   OH267108   0.773   2.972  11.302  0.4457 -0.0114 -0.3786
15206TIP3    H167109   0.828   2.927  11.239  1.3480 -0.0383  0.4163
15206TIP3    H267110   0.826   3.046  11.333 -1.0526  1.7513 -1.7790
15207TIP3   OH267111   4.037   4.184   5.601 -0.1193 -0.4218 -0.3201
15207TIP3    H167112   3.996   4.115   5.653  0.8454 -0.9614 -0.2353
15207TIP3    H267113   4.050   4.145   5.515  0.3957 -0.3420 -0.2830
15208TIP3   OH267114   6.793   2.886  15.017 -0.5078 -0.3396  0.2921
15208TIP3    H167115   6.874   2.836  15.020 -1.2161 -1.5112  0.9294
15208TIP3    H267116   6.811   2.959  14.959  0.7173 -1.0941 -0.3037
15209TIP3   OH267117   3.888   2.107  11.586 -0.0781 -0.0786  0.1465
15209TIP3    H167118   3.849   2.028  11.624  0.6974 -0.4417  0.1995
15209TIP3    H267119   3.980   2.104  11.612  0.1013  0.5215 -0.3835
15210TIP3   OH267120   2.024   2.872  16.636 -0.2167 -0.1611 -0.7931
15210TIP3    H167121   1.956   2.805  16.641  0.8457 -1.2234  1.1201
15210TIP3    H267122   1.984   2.945  16.590 -2.3977 -1.0108 -0.3592
15211TIP3   OH267123   2.313   1.078   5.469 -0.6652 -0.0107 -0.1614
15211TIP3    H167124   2.222   1.091   5.441 -1.1158  0.3313  1.3584
15211TIP3    H267125   2.324   0.983   5.469 -0.8131 -0.0331 -0.9716
15212TIP3   OH267126   4.949   0.815   1.642 -0.0951 -0.2795 -0.3852
15212TIP3    H167127   4.991   0.800   1.557 -0.2453  0.3363 -0.5738
15212TIP3    H267128   5.022   0.826   1.703  0.0384  1.0972 -0.7660
15213TIP3   OH267129   3.624   0.080   2.006  0.0843 -0.2382 -0.1885
15213TIP3    H167130   3.603   0.100   1.915  2.4030 -1.5757 -1.0926
15213TIP3    H267131   3.702   0.025   2.001  1.4542  1.2254  2.6887
15214TIP3   OH267132   0.725   2.240  15.967 -0.1915  0.2372 -0.2266
15214TIP3    H167133   0.782   2.300  16.014 -0.0241 -0.8209  0.9892
15214TIP3    H267134   0.664   2.296  15.920  0.2058  1.3487  0.5564
15215TIP3   OH267135   3.704   1.027   5.754 -0.1194 -0.0162  0.5891
15215TIP3    H167136   3.763   1.010   5.828  0.3817 -0.4502  0.0986
15215TIP3    H267137   3.617   1.005   5.787  0.3107 -2.0406  0.4978
15216TIP3   OH267138   3.461   5.373   6.147  0.4000  0.1662 -0.6330
15216TIP3    H167139   3.552   5.341   6.146  0.1444 -0.5728 -1.0815
15216TIP3    H267140   3.463   5.450   6.090  0.2541 -1.3239 -2.7707
15217TIP3   OH267141   2.255   6.630   3.167  0.0016  0.2930  0.4266
15217TIP3    H167142   2.293   6.702   3.217 -1.7156  0.0634  2.2005
15217TIP3    H267143   2.207   6.579   3.232  0.2383 -1.8468 -0.9686
15218TIP3   OH267144   6.629   0.246  14.998  0.2512  0.0868 -0.6385
15218TIP3    H167145   6.677   0.269  14.919  1.1722 -1.1621 -0.4742
15218TIP3    H267146   6.689   0.189  15.047 -0.6482  0.0982  0.5230
15219TIP3   OH267147   3.523   6.561   3.414  0.5999 -0.2661 -0.1783
15219TIP3    H167148   3.514   6.591   3.323 -2.1538  1.3762  0.5209
15219TIP3    H267149   3.581   6.625   3.455 -0.8873  1.0340 -0.0160
15220TIP3   OH267150   1.868   1.212   0.344  0.0367  0.0688 -0.1578
15220TIP3    H167151   1.894   1.205   0.436  0.8841 -0.6235 -0.4326
15220TIP3    H267152   1.803   1.282   0.342 -1.2220 -0.9828  1.2225
15221TIP3   OH267153   0.470   0.573  10.956  0.3962 -0.3482 -0.2064
15221TIP3    H167154   0.530   0.548  11.026  0.7452 -0.0859 -0.4103
15221TIP3    H267155   0.524   0.577  10.878 -0.1702 -1.5855 -0.6918
15222TIP3   OH267156   5.026   1.944  13.216 -0.2920 -0.0358  0.3836
15222TIP3    H167157   5.017   1.933  13.121 -0.7051  1.3857  0.2351
15222TIP3    H267158   5.120   1.938  13.232 -0.2811 -1.0521  0.0030
15223TIP3   OH267159   2.373   6.605   1.503 -0.1612 -0.5814  0.0937
15223TIP3    H167160   2.318   6.669   1.547 -0.8155 -0.7077 -0.5235
15223TIP3    H267161   2.331   6.591   1.418  1.0059 -0.4377 -0.5332
15224TIP3   OH267162   2.247   3.451  16.512 -0.3548  0.2866 -0.4103
15224TIP3    H167163   2.259   3.362  16.480 -1.2448 -0.1915  0.5485
15224TIP3    H267164   2.336   3.485  16.523 -0.0001 -0.6583 -0.3026
15225TIP3   OH267165   1.511   5.195  13.025 -0.4268 -0.4061  0.1024
15225TIP3    H167166   1.548   5.134  12.961 -1.4889  1.1514 -2.1209
15225TIP3    H267167   1.425   5.217  12.990 -0.1780  2.1952  0.9181
15226TIP3   OH267168   1.476   3.063  10.393 -0.1394  0.1042  0.6506
15226TIP3    H167169   1.477   2.999  10.322  0.0341 -1.6702  2.1764
15226TIP3    H267170   1.453   3.145  10.350  1.5476 -0.5374 -1.7200
15227TIP3   OH267171   2.363   0.505   6.296  0.4731 -0.7566 -0.2511
15227TIP3    H167172   2.453   0.519   6.267  0.8519 -0.1900  1.0835
15227TIP3    H267173   2.353   0.410   6.299  1.6546 -0.8745  1.2686
15228TIP3   OH267174   1.397   5.342   3.187  1.0318 -0.1079 -0.0392
15228TIP3    H167175   1.393   5.261   3.237  1.8683 -1.3561 -1.8748
15228TIP3    H267176   1.481   5.381   3.211  0.5358  0.3638  1.0032
15229TIP3   OH267177   1.692   4.377   0.993 -0.2264 -0.3401 -0.1849
15229TIP3    H167178   1.647   4.296   0.967 -1.7898 -0.2143  1.9057
15229TIP3    H267179   1.622   4.439   1.010  0.7715  0.2910  1.9070
15230TIP3   OH267180   3.866   4.519  13.775  0.3549  0.2713  0.6098
15230TIP3    H167181   3.871   4.429  13.806  2.1581  0.2343  0.2823
15230TIP3    H267182   3.791   4.520  13.715  0.5940 -1.1137  0.2640
15231TIP3   OH267183   3.385   3.001  14.719 -0.4748 -0.0599  0.4249
15231TIP3    H167184   3.450   2.960  14.662  1.2221  2.3100  0.4942
15231TIP3    H267185   3.387   2.949  14.799  2.0496  0.4047  0.7421
15232TIP3   OH267186   4.680   6.179   0.883  0.1818  0.6638  0.2483
15232TIP3    H167187   4.763   6.221   0.861  1.2378 -0.8691  1.0837
15232TIP3    H267188   4.630   6.181   0.801  1.1043  1.4596 -0.3231
15233TIP3   OH267189   5.157   1.976  14.443 -0.3967  0.1288 -0.2729
15233TIP3    H167190   5.217   2.043  14.474 -1.0868  1.1261 -1.0286
15233TIP3    H267191   5.099   1.959  14.517  1.7411 -2.0289  1.0387
15234TIP3   OH267192   0.648   3.588  15.899  0.0852 -0.1463 -0.6263
15234TIP3    H167193   0.643   3.675  15.859 -3.1323  0.3584  0.5556
15234TIP3    H267194   0.708   3.539  15.843  0.1885  2.1574 -2.6816
15235TIP3   OH267195   0.364   1.812   1.952 -1.1004  0.6447  0.0596
15235TIP3    H167196   0.314   1.746   1.904  0.3755  1.1427 -2.3461
15235TIP3    H267197   0.384   1.879   1.887  2.0595  0.8055  1.0004
15236TIP3   OH267198   2.677   5.718  13.135  0.0298  0.0529  0.1646
15236TIP3    H167199   2.762   5.681  13.162  0.0418  0.0413  0.1099
15236TIP3    H267200   2.689   5.742  13.043 -0.1802 -0.4103  0.0137
15237TIP3   OH267201   4.943   1.477   4.401  0.1951  0.0942 -0.1992
15237TIP3    H167202   4.989   1.559   4.418  1.2004 -0.8961  2.3076
15237TIP3    H267203   5.011   1.409   4.406 -1.1702 -1.2404  1.8643
15238TIP3   OH267204   0.300   1.596  10.654 -0.3297 -0.4486 -0.2172
15238TIP3    H167205   0.366   1.590  10.723  0.0452  1.3144 -0.3778
15238TIP3    H267206   0.346   1.565  10.575 -1.0432 -3.3959  0.4039
15239TIP3   OH267207   1.622   5.895   0.902  0.0322  0.3452  0.0513
15239TIP3    H167208   1.570   5.819   0.927  0.7576  0.7053  3.0166
15239TIP3    H267209   1.709   5.859   0.883 -0.0740  0.2768 -0.3329
15240TIP3   OH267210   1.319   4.084  13.992 -0.4733  0.1222  0.3386
15240TIP3    H167211   1.280   4.068  13.906  1.2936  0.1348 -0.4980
15240TIP3    H267212   1.372   4.006  14.010  0.5506  0.8575  0.6082
15241TIP3   OH267213   6.258   5.672   5.514 -0.1301  0.4888  0.2829
15241TIP3    H167214   6.206   5.591   5.513 -1.2728  1.1838 -1.5249
15241TIP3    H267215   6.214   5.729   5.451  0.8829  2.3926  1.2306
15242TIP3   OH267216   4.179   5.443  12.416 -0.1843 -0.3657 -0.5981
15242TIP3    H167217   4.124   5.412  12.345 -0.5789 -3.3739  0.8511
15242TIP3    H267218   4.231   5.367  12.442  1.5008  1.1911  0.9582
15243TIP3   OH267219   5.648   0.831   2.120  0.1514  0.2806 -0.0229
15243TIP3    H167220   5.621   0.800   2.034 -0.1017 -2.1952  0.8670
15243TIP3    H267221   5.739   0.804   2.128  0.6453  1.8096 -0.0260
15244TIP3   OH267222   6.628   5.439  13.587 -0.2402  0.3214  0.0625
15244TIP3    H167223   6.617   5.458  13.680  2.0485  2.1447  0.0575
15244TIP3    H267224   6.652   5.347  13.584 -2.1022 -0.2450  1.0752
15245TIP3   OH267225   3.910   3.681  16.242  0.0687  0.0168  0.2715
15245TIP3    H167226   3.849   3.623  16.197 -0.9882  0.9712  0.4334
15245TIP3    H267227   3.946   3.736  16.173  0.4738 -0.3029  0.2274
15246TIP3   OH267228   6.195   3.451  15.369  0.6880  0.3552 -0.2910
15246TIP3    H167229   6.290   3.450  15.361  0.6045  1.0973 -1.5870
15246TIP3    H267230   6.164   3.414  15.286 -0.1522 -0.1008  0.2187
15247TIP3   OH267231   5.224   5.431   0.395 -0.3362 -0.7121 -0.0248
15247TIP3    H167232   5.304   5.444   0.344 -1.2283  1.5901 -0.9507
15247TIP3    H267233   5.197   5.342   0.375  1.0096 -0.9035 -1.1456
15248TIP3   OH267234   3.222   6.202  13.417  0.3032  0.1318 -0.2966
15248TIP3    H167235   3.263   6.161  13.494  0.6234 -0.5007 -0.7916
15248TIP3    H267236   3.296   6.231  13.364  0.0868  0.3333 -0.4861
15249TIP3   OH267237   5.069   5.868  14.997 -1.2248  0.0387  0.8340
15249TIP3    H167238   5.070   5.904  15.086 -2.1237  1.2456  0.3843
15249TIP3    H267239   4.982   5.830  14.988 -1.0840 -0.2086  0.5215
15250TIP3   OH267240   1.039   3.299   4.038  0.3656  0.2552 -0.4212
15250TIP3    H167241   1.117   3.250   4.016 -1.3770 -2.1349 -1.7049
15250TIP3    H267242   0.974   3.273   3.973 -2.2555  0.1575  2.0139
15251TIP3   OH267243   1.783   1.414  15.253  0.0179 -0.1261 -0.1778
15251TIP3    H167244   1.825   1.462  15.181  0.0814  0.4056  0.2016
15251TIP3    H267245   1.798   1.322  15.233  1.4287  0.0399 -0.0374
15252TIP3   OH267246   2.286   4.800   1.845 -0.3347  0.0370  0.2930
15252TIP3    H167247   2.278   4.742   1.921  0.3643 -0.3379  0.0882
15252TIP3    H267248   2.257   4.746   1.771  1.8329 -0.6244 -0.1381
15253TIP3   OH267249   3.558   6.665  16.206  0.4730 -0.0029  0.2168
15253TIP3    H167250   3.542   6.649  16.299  1.6688 -1.3273  0.2301
15253TIP3    H267251   3.634   6.722  16.204 -0.0946  0.7615  0.0513
15254TIP3   OH267252   0.080   1.030   0.967  0.1380  0.0433 -0.1901
15254TIP3    H167253   0.050   0.944   0.996  0.4266 -0.7341 -2.0378
15254TIP3    H267254   0.011   1.090   0.994 -0.5462 -0.9144  0.2532
15255TIP3   OH267255   5.117   2.474  11.483  0.4145  0.2903  0.2890
15255TIP3    H167256   5.201   2.441  11.515  1.7475  3.4074  0.4069
15255TIP3    H267257   5.065   2.487  11.563  0.8045  0.7192  0.4834
15256TIP3   OH267258   5.099   1.275  12.320 -0.0277 -0.0142 -0.1698
15256TIP3    H167259   5.103   1.367  12.295  1.5718 -0.3187 -1.2033
15256TIP3    H267260   5.097   1.276  12.415 -1.8940  1.0929 -0.1675
15257TIP3   OH267261   2.602   0.518   0.221  0.0051  0.0533 -0.4847
15257TIP3    H167262   2.661   0.520   0.146 -1.1304 -0.6539 -1.4217
15257TIP3    H267263   2.516   0.496   0.185 -0.5153 -0.6160  1.0468
15258TIP3   OH267264   6.230   5.769  14.718  0.1042 -0.0054  0.0433
15258TIP3    H167265   6.255   5.803  14.804  1.0222  1.2075 -0.6587
15258TIP3    H267266   6.289   5.814  14.657 -1.0034 -0.3003 -1.2919
15259TIP3   OH267267   5.986   5.009  14.770 -0.7300  0.2171 -0.7600
15259TIP3    H167268   5.890   5.015  14.768 -0.8042 -0.0003  0.7691
15259TIP3    H267269   6.005   4.920  14.743 -1.0488 -0.1332  0.1258
15260TIP3   OH267270   4.875   4.270   5.553 -0.1686 -0.3443 -0.4978
15260TIP3    H167271   4.916   4.325   5.620 -0.9975  0.6553 -0.8015
15260TIP3    H267272   4.811   4.217   5.601 -0.5898  0.1955 -0.4672
15261TIP3   OH267273   1.999   1.116   2.352 -0.3816  0.4354  0.0191
15261TIP3    H167274   1.959   1.042   2.306 -1.3353  0.6397  0.4959
15261TIP3    H267275   2.027   1.175   2.283 -0.0115 -0.1600 -0.3539
15262TIP3   OH267276   6.471   1.551  12.634  0.0826 -0.3373  0.3238
15262TIP3    H167277   6.406   1.482  12.648  0.3973 -0.6114  0.4597
15262TIP3    H267278   6.555   1.508  12.652  0.2574  0.1866  0.7797
15263TIP3   OH267279   0.674   6.085  16.911 -0.3830 -0.3662  0.1690
15263TIP3    H167280   0.666   6.132  16.827  0.2348 -0.7437 -0.1044
15263TIP3    H267281   0.692   5.994  16.885 -0.1061 -0.4660  0.7182
15264TIP3   OH267282   0.819   3.469   1.651  0.0139  0.2158  0.3884
15264TIP3    H167283   0.725   3.459   1.634  0.2941  0.7867 -1.7473
15264TIP3    H267284   0.853   3.380   1.650 -0.4239  0.0424  0.6718
15265TIP3   OH267285   5.523   5.651   4.242 -0.7626  0.2579 -0.3762
15265TIP3    H167286   5.441   5.601   4.241 -0.6293 -0.0159  0.8175
15265TIP3    H267287   5.515   5.709   4.318  1.1997 -1.6378  1.4164
15266TIP3   OH267288   3.459   3.436   1.586  0.1260  0.1934 -0.3114
15266TIP3    H167289   3.392   3.369   1.595 -0.5213  1.1010  2.9238
15266TIP3    H267290   3.525   3.412   1.651  0.9651  1.4980 -0.6463
15267TIP3   OH267291   2.271   6.198   2.295 -0.2061 -0.1496 -0.5581
15267TIP3    H167292   2.364   6.221   2.295 -0.0526 -0.6763  0.6753
15267TIP3    H267293   2.246   6.195   2.203  2.1254 -4.4025 -1.2794
15268TIP3   OH267294   2.046   6.439  11.086  0.1406 -0.1924  0.2256
15268TIP3    H167295   2.071   6.485  11.006 -1.4295  1.2803  0.5209
15268TIP3    H267296   1.976   6.380  11.059  0.4918 -0.6518  0.2994
15269TIP3   OH267297   0.017   3.603  12.244  0.2668 -0.1524  0.4004
15269TIP3    H167298   0.093   3.547  12.259  0.5056 -0.1210 -0.5970
15269TIP3    H267299  -0.050   3.544  12.208  0.0057 -0.0755  0.7559
15270TIP3   OH267300   5.259   4.124   0.825  0.4098  0.1980  0.0850
15270TIP3    H167301   5.239   4.078   0.906 -2.6135 -2.5708 -1.9782
15270TIP3    H267302   5.194   4.194   0.820 -0.0071 -0.2131 -0.3435
15271TIP3   OH267303   3.279   3.534  16.433 -0.1974  0.2733  0.6317
15271TIP3    H167304   3.303   3.508  16.522 -0.5694 -2.1515  0.0941
15271TIP3    H267305   3.184   3.524  16.430 -0.2048  0.5034 -0.0060
15272TIP3   OH267306   3.277   3.102   4.123 -0.8854 -0.4081  0.2229
15272TIP3    H167307   3.343   3.168   4.104 -0.7552 -1.1408 -2.2266
15272TIP3    H267308   3.325   3.019   4.126 -1.3274 -0.6514  1.2868
15273TIP3   OH267309   1.711   2.426   3.589 -0.4064  0.3977 -0.7658
15273TIP3    H167310   1.703   2.509   3.637  1.3245 -0.0383  0.3952
15273TIP3    H267311   1.801   2.398   3.606 -0.9222 -1.6803 -1.1944
15274TIP3   OH267312   1.210   4.826   4.087  0.1214 -0.4229  0.0151
15274TIP3    H167313   1.238   4.891   4.022  1.1179 -0.9224 -0.0717
15274TIP3    H267314   1.216   4.742   4.041 -3.1080 -0.4871 -0.5465
15275TIP3   OH267315   5.280   6.812   6.646  0.3262 -0.2047  0.0375
15275TIP3    H167316   5.306   6.778   6.560 -1.4052  0.8327 -0.9665
15275TIP3    H267317   5.189   6.839   6.634  0.4231  1.0969  1.8699
15276TIP3   OH267318   1.384   1.262   4.859 -0.5181 -0.6099 -0.3716
15276TIP3    H167319   1.296   1.228   4.845 -0.1503 -2.1911  0.7922
15276TIP3    H267320   1.442   1.192   4.829  0.3744  0.5180 -1.3917
15277TIP3   OH267321   3.742   4.672  12.995  0.6361 -0.3538 -0.0672
15277TIP3    H167322   3.683   4.747  12.983  0.4862 -0.3196  0.8160
15277TIP3    H267323   3.734   4.622  12.914 -0.3903 -0.1990 -0.0725
15278TIP3   OH267324   2.844   4.498   5.097 -0.5075  0.1991 -0.5160
15278TIP3    H167325   2.839   4.421   5.041  2.2134 -1.1476  0.8445
15278TIP3    H267326   2.825   4.465   5.185  1.5874  0.7875  0.2252
15279TIP3   OH267327   0.856   3.044  15.965  0.1949 -0.2896 -0.0602
15279TIP3    H167328   0.803   3.117  15.935  1.8794  0.7735 -0.5608
15279TIP3    H267329   0.859   2.983  15.891  1.3957  0.6601 -0.8362
15280TIP3   OH267330   2.352   5.178   4.083 -0.1582 -0.2094  0.1136
15280TIP3    H167331   2.427   5.228   4.051 -1.2491 -0.1444 -2.5686
15280TIP3    H267332   2.279   5.240   4.083 -0.7689 -0.9014  0.1324
15281TIP3   OH267333   4.177   0.556   0.213 -0.4348  0.3049 -0.0570
15281TIP3    H167334   4.131   0.589   0.291 -0.7451  1.2523 -0.6340
15281TIP3    H267335   4.203   0.467   0.238 -0.6223  0.5478  1.0948
15282TIP3   OH267336   5.351   1.605   4.717  0.1135 -0.2860  0.8451
15282TIP3    H167337   5.354   1.661   4.795 -2.0439  0.7167  0.2770
15282TIP3    H267338   5.266   1.562   4.722 -0.0260 -0.2561 -0.9045
15283TIP3   OH267339   2.545   3.147   5.193  0.0194  0.2420  0.0449
15283TIP3    H167340   2.573   3.231   5.155 -0.4907  0.1484 -0.5634
15283TIP3    H267341   2.622   3.091   5.186  0.1894  0.4879 -0.0802
15284TIP3   OH267342   0.750   6.555  14.542  0.1357  0.0799 -0.0065
15284TIP3    H167343   0.834   6.515  14.563 -0.4603 -0.7551  0.8726
15284TIP3    H267344   0.692   6.481  14.522 -0.7449  0.5552  0.7340
15285TIP3   OH267345   2.211   3.771   5.899 -0.2660 -0.3866 -0.2094
15285TIP3    H167346   2.224   3.676   5.903 -1.1712 -0.4866  1.1519
15285TIP3    H267347   2.167   3.792   5.982  1.7037  1.5122  0.4557
15286TIP3   OH267348   3.092   2.600   2.081 -0.1495  0.3270  0.0461
15286TIP3    H167349   3.074   2.506   2.080 -0.2521  0.3159  1.4049
15286TIP3    H267350   3.152   2.613   2.155 -1.5943  1.5750  1.0566
15287TIP3   OH267351   5.705   1.022   3.199 -0.1518  0.6617  0.2052
15287TIP3    H167352   5.618   0.981   3.195 -0.9005  2.0715  1.0341
15287TIP3    H267353   5.733   1.008   3.290  0.9574 -0.6423 -0.3104
15288TIP3   OH267354   1.613   0.356  13.424  0.0090  0.1188 -0.3637
15288TIP3    H167355   1.652   0.359  13.511  0.6872 -2.2378 -0.5176
15288TIP3    H267356   1.680   0.393  13.367 -0.0954  0.8791 -0.0044
15289TIP3   OH267357   3.939   2.907  14.433 -0.0612 -0.3147  0.6418
15289TIP3    H167358   3.939   2.816  14.463 -2.1693 -1.1283 -1.5908
15289TIP3    H267359   4.004   2.909  14.362 -0.2876 -0.1739  0.4373
15290TIP3   OH267360   3.451   2.191   5.457  0.6621 -0.2442  0.1208
15290TIP3    H167361   3.487   2.108   5.427  1.2266 -0.0522  0.2604
15290TIP3    H267362   3.439   2.242   5.376  1.3475 -0.0565  0.1335
15291TIP3   OH267363   3.827   6.313   1.457  0.1633  0.3135 -0.2745
15291TIP3    H167364   3.881   6.241   1.424 -0.1352  0.3088 -0.7739
15291TIP3    H267365   3.760   6.270   1.510  0.0188  0.2232 -0.5267
15292TIP3   OH267366   4.936   5.681  13.748  0.6490  0.0856 -0.1468
15292TIP3    H167367   4.889   5.597  13.750  0.0987  0.3267 -1.4573
15292TIP3    H267368   4.867   5.746  13.735  1.3345  0.3908 -2.8635
15293TIP3   OH267369   4.058   2.337  15.956  0.7005  0.1036 -0.1110
15293TIP3    H167370   4.006   2.257  15.957  0.8654 -0.1411 -2.8902
15293TIP3    H267371   4.132   2.318  16.014 -0.2515 -1.0282  0.7740
15294TIP3   OH267372   4.848   6.152  16.870 -0.3290 -0.0318  0.5282
15294TIP3    H167373   4.920   6.195  16.916  0.9599 -0.4951 -0.9968
15294TIP3    H267374   4.814   6.088  16.933  0.8261 -0.0552  1.1419
15295TIP3   OH267375   0.364   6.792  11.579  0.0017 -0.0255  0.2420
15295TIP3    H167376   0.383   6.878  11.616  1.2487 -0.7482  1.3741
15295TIP3    H267377   0.427   6.782  11.507 -0.2136  0.0450  0.0420
15296TIP3   OH267378   4.054   5.957  16.876 -0.2010 -0.1061  0.5943
15296TIP3    H167379   4.128   6.019  16.876 -1.1768  1.0893  0.7383
15296TIP3    H267380   4.089   5.879  16.832  1.4127  0.0957  1.4448
15297TIP3   OH267381   2.344   6.581  12.922  0.0761 -0.0627 -0.1583
15297TIP3    H167382   2.298   6.550  13.000 -2.2107  1.6393 -0.7268
15297TIP3    H267383   2.309   6.529  12.850  2.4760 -1.9131 -0.1128
15298TIP3   OH267384   0.465   0.779  14.176  0.1053  0.1084  0.1718
15298TIP3    H167385   0.407   0.844  14.137 -1.2761 -0.1492  1.7069
15298TIP3    H267386   0.410   0.703  14.190  0.8360 -0.2021  1.5395
15299TIP3   OH267387   6.039   3.735   4.357  0.6370 -0.2006 -0.4033
15299TIP3    H167388   5.990   3.810   4.323 -0.9629 -1.1978 -0.3921
15299TIP3    H267389   6.129   3.749   4.327  0.6230  2.2516  0.4794
15300TIP3   OH267390   0.321   5.811  13.993 -0.5260  0.2726 -0.2381
15300TIP3    H167391   0.359   5.735  14.038 -1.3070  0.4498  0.7541
15300TIP3    H267392   0.308   5.876  14.063 -0.4285  1.0986 -0.9722
15301TIP3   OH267393   3.171   4.380   5.814 -0.3207 -0.0736 -0.2431
15301TIP3    H167394   3.108   4.450   5.796 -1.2932 -0.8079  0.2394
15301TIP3    H267395   3.119   4.309   5.849  0.9787 -0.1802  1.6167
15302TIP3   OH267396   1.203   1.627  16.668 -0.1582  0.3001 -0.7146
15302TIP3    H167397   1.212   1.703  16.725  0.2705  0.2041 -0.6450
15302TIP3    H267398   1.294   1.600  16.650 -0.2918 -1.2123  0.6357
15303TIP3   OH267399   5.626   5.995  15.746 -0.2819 -0.2789  0.1933
15303TIP3    H167400   5.573   6.028  15.673  0.1566  0.6428  0.2879
15303TIP3    H267401   5.581   6.023  15.825 -0.6457 -1.1033  0.2946
15304TIP3   OH267402   0.305   1.070   6.371 -0.6222  1.1743 -0.5517
15304TIP3    H167403   0.232   1.094   6.314 -1.1373  0.8757 -0.0303
15304TIP3    H267404   0.348   1.153   6.392 -1.9004  1.5819  0.5836
15305TIP3   OH267405   4.835   3.489  13.114  0.1160  0.0296  0.8903
15305TIP3    H167406   4.761   3.460  13.168 -1.7331  0.2593 -1.3706
15305TIP3    H267407   4.804   3.568  13.071  1.1818 -0.6036 -1.1510
15306TIP3   OH267408   3.707   5.026   2.140 -0.3802 -1.0471 -0.0448
15306TIP3    H167409   3.716   4.995   2.050 -0.0149 -1.2306  0.0534
15306TIP3    H267410   3.768   5.100   2.146 -0.4322 -1.0104  0.0418
15307TIP3   OH267411   0.135   1.931  16.835 -0.8295  0.1506  0.0235
15307TIP3    H167412   0.109   2.018  16.805 -0.7062  0.1646 -0.0435
15307TIP3    H267413   0.094   1.921  16.921 -0.3175  0.5348  0.3201
15308TIP3   OH267414   6.104   4.444  14.956  0.2147 -0.5409  0.4725
15308TIP3    H167415   6.060   4.359  14.961 -0.7812 -0.0223  0.8070
15308TIP3    H267416   6.114   4.460  14.862 -3.5462  0.8817  0.1172
15309TIP3   OH267417   3.647   1.580   3.164 -0.1703  0.5240  0.4138
15309TIP3    H167418   3.600   1.502   3.195  0.5641  0.7140  2.0935
15309TIP3    H267419   3.579   1.646   3.150 -0.6523  0.0073  0.3023
15310TIP3   OH267420   6.073   4.752   4.102 -0.4704  0.2218  0.0521
15310TIP3    H167421   6.029   4.670   4.124  0.7111 -0.2523  0.7833
15310TIP3    H267422   6.160   4.725   4.071 -0.6962  1.1153 -1.4770
15311TIP3   OH267423   2.342   1.039   4.431 -0.3932 -0.0472 -0.1454
15311TIP3    H167424   2.267   1.082   4.390  0.5203  0.1627 -1.6795
15311TIP3    H267425   2.331   0.946   4.409  0.0678  0.0582 -0.8682
15312TIP3   OH267426   2.256   4.969  16.600 -0.2684  0.0454  0.0783
15312TIP3    H167427   2.171   4.971  16.556 -0.7422 -0.3625  0.9380
15312TIP3    H267428   2.252   5.041  16.663  0.9512  1.5454 -1.4592
15313TIP3   OH267429   0.381   4.499   1.963 -0.1192  0.3405  0.0318
15313TIP3    H167430   0.347   4.412   1.944  0.2814  0.2759 -0.4219
15313TIP3    H267431   0.315   4.559   1.929 -0.0412  0.2132 -0.3529
15314TIP3   OH267432   6.441   1.754  16.018 -0.6052  0.5494  0.3375
15314TIP3    H167433   6.359   1.801  16.001 -1.1463 -0.1648  0.9261
15314TIP3    H267434   6.421   1.663  15.999 -0.7091 -0.0262  2.8725
15315TIP3   OH267435   3.229   2.936  13.619  0.2166 -0.0719 -0.3166
15315TIP3    H167436   3.217   2.983  13.702  0.4368 -0.7656  0.1103
15315TIP3    H267437   3.314   2.966  13.586  0.6245 -0.5889  0.2405
15316TIP3   OH267438   1.723   6.570   2.299 -0.7377  0.1513 -0.3759
15316TIP3    H167439   1.776   6.624   2.357 -0.7871  1.5083 -1.5381
15316TIP3    H267440   1.633   6.595   2.317 -1.1655 -2.5076  1.9520
15317TIP3   OH267441   1.118   3.990  16.305  0.2337  0.5540 -0.1652
15317TIP3    H167442   1.059   3.996  16.381  0.8550  0.3075  0.3502
15317TIP3    H267443   1.204   4.013  16.341  1.1716 -2.6838 -0.0207
15318TIP3   OH267444   2.178   1.912   5.230  0.2512  0.1008 -0.4436
15318TIP3    H167445   2.260   1.953   5.201  1.4210 -0.8560  1.2972
15318TIP3    H267446   2.154   1.852   5.160  1.9109 -0.7207 -0.3586
15319TIP3   OH267447   1.307   3.226  16.777  0.0258 -0.4404  0.6558
15319TIP3    H167448   1.240   3.160  16.761  0.8290 -1.2186  0.4682
15319TIP3    H267449   1.262   3.293  16.829 -1.7658  0.5802 -1.9861
15320TIP3   OH267450   5.312   4.012   4.308  0.5186 -0.4350 -0.4998
15320TIP3    H167451   5.245   4.050   4.251  0.8847 -0.1089 -0.7212
15320TIP3    H267452   5.330   4.080   4.373 -2.0791 -1.8957  1.9291
15321TIP3   OH267453   1.249   3.189  11.271  0.5579 -0.6728 -0.1120
15321TIP3    H167454   1.303   3.260  11.307 -0.2178 -0.3697  0.4930
15321TIP3    H267455   1.305   3.145  11.208  2.1717 -1.5383  1.8260
15322TIP3   OH267456   5.572   6.040  16.822 -0.1623  0.2436  0.6409
15322TIP3    H167457   5.545   5.949  16.812 -0.0573  0.2927 -0.1663
15322TIP3    H267458   5.663   6.041  16.793 -0.4960  0.8023 -0.4464
15323TIP3   OH267459   3.714   4.487   4.918 -0.2274 -0.3861  0.0713
15323TIP3    H167460   3.645   4.548   4.942 -1.7159 -1.3942 -1.3901
15323TIP3    H267461   3.667   4.412   4.879  1.7209 -0.4514 -2.4134
15324TIP3   OH267462   5.888   2.443   5.802  0.3957  0.6149 -0.3997
15324TIP3    H167463   5.916   2.498   5.876  0.7354  0.9723 -0.7867
15324TIP3    H267464   5.959   2.451   5.738  1.0740 -1.3383  0.0665
15325TIP3   OH267465   4.168   4.698   0.145 -0.0635  0.5349 -0.5089
15325TIP3    H167466   4.156   4.767   0.079 -0.3498  0.3758 -0.6207
15325TIP3    H267467   4.205   4.744   0.220 -0.6010  0.8796 -0.4488
15326TIP3   OH267468   0.436   5.314  10.904  1.0722  0.1352  0.0089
15326TIP3    H167469   0.402   5.359  10.826  3.4117  0.3617 -0.9768
15326TIP3    H267470   0.425   5.221  10.884 -0.7815  0.1785  0.6297
15327TIP3   OH267471   5.129   5.175   0.314 -0.6594 -0.3637  0.1773
15327TIP3    H167472   5.217   5.142   0.334 -0.0094  0.0545 -1.7243
15327TIP3    H267473   5.104   5.129   0.234 -1.8416  0.0815  0.2767
15328TIP3   OH267474   1.426   2.235   3.434  0.1853  0.1235 -0.3067
15328TIP3    H167475   1.499   2.180   3.405  0.0963 -0.1275 -0.0619
15328TIP3    H267476   1.353   2.212   3.377  0.8011  1.7744 -1.8675
15329TIP3   OH267477   3.815   6.715   2.058  0.1592 -0.1545  0.2665
15329TIP3    H167478   3.814   6.717   2.154  0.6069  1.0694  0.2601
15329TIP3    H267479   3.860   6.633   2.036  1.2293  0.1895  1.1163
15330TIP3   OH267480   4.723   3.279   1.290  0.4413 -0.1905 -0.0026
15330TIP3    H167481   4.708   3.319   1.204  0.5991  0.8789  0.4476
15330TIP3    H267482   4.755   3.191   1.270  0.2707 -0.0379 -1.0320
15331TIP3   OH267483   0.558   1.845  13.687 -0.2492 -0.2760  0.1143
15331TIP3    H167484   0.634   1.878  13.639 -1.4034  0.0638 -1.5587
15331TIP3    H267485   0.559   1.894  13.769  0.8298  0.3688 -0.2557
15332TIP3   OH267486   2.257   3.499  10.878  0.5200 -0.4733 -0.2541
15332TIP3    H167487   2.266   3.556  10.802  2.0401 -0.3577 -0.0117
15332TIP3    H267488   2.305   3.543  10.948 -0.3654 -0.8614  0.6229
15333TIP3   OH267489   4.055   4.201  14.863 -0.7471  0.1511 -0.1060
15333TIP3    H167490   4.081   4.209  14.771 -1.9164 -0.3334 -0.5053
15333TIP3    H267491   3.962   4.179  14.859 -0.5259 -1.1521  1.1548
15334TIP3   OH267492   2.841   0.559   3.411  0.3284  0.0079  0.0094
15334TIP3    H167493   2.929   0.578   3.442 -0.3134  1.8017  0.8935
15334TIP3    H267494   2.804   0.644   3.388 -0.8211 -0.8140 -1.3815
15335TIP3   OH267495   3.087   0.645   5.200  0.1946  0.2349 -0.1030
15335TIP3    H167496   3.021   0.686   5.257 -0.1105 -0.1089 -0.2112
15335TIP3    H267497   3.043   0.634   5.116  0.5249  0.3842 -0.2983
15336TIP3   OH267498   5.182   1.349   4.455  0.0986  0.2314  0.0457
15336TIP3    H167499   5.257   1.357   4.514 -0.6099  0.1072  0.9867
15336TIP3    H267500   5.181   1.256   4.431  0.6537  0.3662 -0.5484
15337TIP3   OH267501   1.227   3.742   6.174 -0.0714  0.4355  0.1777
15337TIP3    H167502   1.294   3.674   6.174 -0.2059  0.1768 -2.4816
15337TIP3    H267503   1.178   3.728   6.255  1.9161 -0.5337  1.2850
15338TIP3   OH267504   2.071   0.464   4.282  0.1435 -0.3228 -0.3144
15338TIP3    H167505   2.082   0.370   4.292  0.7267 -0.2695 -0.3926
15338TIP3    H267506   2.112   0.484   4.197  1.5098  0.2290  0.4421
15339TIP3   OH267507   5.418   6.681  10.893  0.5256  0.5638  0.5284
15339TIP3    H167508   5.512   6.700  10.887  1.5210 -3.1301  1.7723
15339TIP3    H267509   5.392   6.660  10.803  1.2890  0.1450  0.3970
15340TIP3   OH267510   2.187   0.585   5.585  0.0145 -0.2494  0.2817
15340TIP3    H167511   2.243   0.586   5.663 -1.5946 -0.8839  1.4857
15340TIP3    H267512   2.213   0.663   5.536  1.2434  0.0209  1.3047
15341TIP3   OH267513   6.354   5.002  13.343 -0.3782  0.4293  0.1664
15341TIP3    H167514   6.362   4.991  13.248 -1.0920  0.2891  0.1175
15341TIP3    H267515   6.260   5.009  13.359 -0.2430  0.9311  0.8116
15342TIP3   OH267516   6.492   3.447   5.871  0.4769 -0.3614  0.5309
15342TIP3    H167517   6.501   3.475   5.780 -1.2703 -1.2667  0.0255
15342TIP3    H267518   6.421   3.501   5.905  0.1891 -0.9863  0.9295
15343TIP3   OH267519   0.913   6.048  14.397  0.9956 -0.0557 -0.1248
15343TIP3    H167520   0.992   6.072  14.349  1.0753 -0.1401 -0.0379
15343TIP3    H267521   0.906   5.953  14.385  0.3278  0.0938 -1.0014
15344TIP3   OH267522   4.495   3.267   6.105  0.0711 -0.3558 -0.2726
15344TIP3    H167523   4.543   3.297   6.182  2.1625  0.3516 -1.7291
15344TIP3    H267524   4.497   3.343   6.046 -1.0417 -1.0348 -1.2257
15345TIP3   OH267525   3.869   1.185  16.482 -0.5176  0.4104  0.9673
15345TIP3    H167526   3.902   1.261  16.435 -0.4139  0.2086  0.7053
15345TIP3    H267527   3.800   1.219  16.539 -1.6467  0.4623 -0.3626
15346TIP3   OH267528   2.211   0.787   2.894 -0.1079 -0.2867  0.1591
15346TIP3    H167529   2.120   0.801   2.870 -0.0120  3.4777  1.3226
15346TIP3    H267530   2.261   0.820   2.820  0.1765  1.9856  1.2597
15347TIP3   OH267531   1.452   0.593   2.110  0.1152 -0.1212  0.2621
15347TIP3    H167532   1.357   0.592   2.096  0.1346 -0.9151  0.1334
15347TIP3    H267533   1.488   0.614   2.023  0.0145  2.2204  0.7264
15348TIP3   OH267534   0.539   3.999  14.131  0.0918  0.5463  0.4178
15348TIP3    H167535   0.538   3.907  14.159 -2.0981  0.1723 -0.6307
15348TIP3    H267536   0.452   4.032  14.156 -0.0959  1.5902 -1.4063
15349TIP3   OH267537   2.185   5.867   2.327  0.5511 -0.0961  0.2629
15349TIP3    H167538   2.261   5.922   2.346  0.8048  0.4743 -2.0964
15349TIP3    H267539   2.194   5.845   2.234 -1.7599 -0.6511  0.1113
15350TIP3   OH267540   5.597   1.756   5.338 -0.3293 -0.7668 -0.3457
15350TIP3    H167541   5.590   1.813   5.261  0.8157 -0.1811 -0.0395
15350TIP3    H267542   5.654   1.685   5.310 -2.7428 -2.5360 -1.1290
15351TIP3   OH267543   6.390   1.899   1.748  0.1170  0.5544  0.3799
15351TIP3    H167544   6.306   1.862   1.721  0.8397 -2.8139  2.2409
15351TIP3    H267545   6.368   1.956   1.821 -0.6689  0.6675  0.0703
15352TIP3   OH267546   5.280   2.776   3.277 -0.7591  0.3706 -0.0537
15352TIP3    H167547   5.196   2.791   3.320 -0.3496  1.5408  0.3865
15352TIP3    H267548   5.329   2.721   3.338 -1.1341 -0.1589 -0.2272
15353TIP3   OH267549   6.458   3.820   5.609 -0.0758 -0.1723  0.1273
15353TIP3    H167550   6.518   3.766   5.558 -0.3492  0.2936 -0.7143
15353TIP3    H267551   6.505   3.902   5.623  0.3324 -0.5956  1.3883
15354TIP3   OH267552   2.713   4.243   0.198  0.3937  0.2424  0.3416
15354TIP3    H167553   2.653   4.180   0.157  0.0149  1.5699 -1.2463
15354TIP3    H267554   2.672   4.263   0.282 -0.8444  0.3108 -0.2538
15355TIP3   OH267555   0.912   6.063   1.431  0.4973  0.0325  0.6771
15355TIP3    H167556   0.894   6.122   1.504  0.1810  0.7843  0.0044
15355TIP3    H267557   1.002   6.034   1.445  1.1921  1.8387  0.2252
15356TIP3   OH267558   2.967   4.212   0.620  0.2725 -0.1954  0.7649
15356TIP3    H167559   2.963   4.307   0.609 -0.0719 -0.3201 -0.2883
15356TIP3    H267560   2.877   4.185   0.634  0.3605 -0.3727  1.0007
15357TIP3   OH267561   3.632   1.767  15.409  0.3275  0.1252 -0.4352
15357TIP3    H167562   3.702   1.709  15.377  1.5936  1.2098  0.2991
15357TIP3    H267563   3.600   1.811  15.330  1.1471  0.3512 -0.6436
15358TIP3   OH267564   0.756   3.990   5.892 -0.0122  0.4187 -0.0778
15358TIP3    H167565   0.792   3.903   5.912  3.3627  1.5329 -0.6992
15358TIP3    H267566   0.790   4.047   5.960 -0.8389  1.5593 -0.5834
15359TIP3   OH267567   1.524   6.761   3.853 -0.4978  0.5031 -0.0631
15359TIP3    H167568   1.505   6.693   3.789 -1.0280  0.9142 -0.3450
15359TIP3    H267569   1.508   6.843   3.807 -3.0427  0.8112  1.2121
15360TIP3   OH267570   3.032   4.780  13.229 -0.2508  0.8088 -0.1379
15360TIP3    H167571   3.123   4.752  13.237 -0.1993  0.8215 -0.6121
15360TIP3    H267572   3.038   4.874  13.208 -0.4299  1.2740  1.7608
15361TIP3   OH267573   1.179   2.731   3.218  0.5572  0.3985  0.6064
15361TIP3    H167574   1.091   2.752   3.187 -0.0120 -0.6011  1.4687
15361TIP3    H267575   1.225   2.699   3.140 -0.2589 -0.3057  0.3886
15362TIP3   OH267576   3.673   0.077  11.518 -0.4879  0.3916 -0.1095
15362TIP3    H167577   3.658  -0.007  11.476 -0.7505  0.7847 -0.8205
15362TIP3    H267578   3.664   0.141  11.448  1.1931  0.9159  0.1045
15363TIP3   OH267579   1.804   1.596  16.284  0.1911  0.1356 -0.1476
15363TIP3    H167580   1.739   1.652  16.326 -1.1897 -2.0899  0.8219
15363TIP3    H267581   1.865   1.572  16.354  1.3327  1.0997 -0.7610
15364TIP3   OH267582   4.763   6.541  15.724 -0.3898  0.4334  0.1848
15364TIP3    H167583   4.847   6.565  15.684 -0.0415 -1.2069 -0.1570
15364TIP3    H267584   4.782   6.534  15.818 -0.0713 -0.1290  0.0852
15365TIP3   OH267585   2.072   1.715  14.247  0.5921 -0.4214  0.1612
15365TIP3    H167586   2.040   1.647  14.188 -1.1546  0.4570  0.0216
15365TIP3    H267587   2.145   1.755  14.200  0.9323 -1.4636 -0.2294
15366TIP3   OH267588   3.826   3.322   4.150  0.1285 -0.1820  0.0289
15366TIP3    H167589   3.773   3.353   4.224  1.1323 -1.5064  1.3597
15366TIP3    H267590   3.776   3.347   4.072 -0.1766  2.8124  1.0302
15367TIP3   OH267591   2.652   1.700  15.217  0.6282  1.0641  0.8076
15367TIP3    H167592   2.592   1.771  15.194 -0.1908  0.3573  0.6647
15367TIP3    H267593   2.734   1.722  15.173 -0.8890 -0.3096 -3.2445
15368TIP3   OH267594   0.876   3.536   4.694 -0.4249 -0.0569 -0.6829
15368TIP3    H167595   0.893   3.567   4.606  0.6867  2.2290  0.2517
15368TIP3    H267596   0.786   3.563   4.713 -0.0475  1.1204 -0.5018
15369TIP3   OH267597   6.668   5.303  14.840  0.1457  0.2000  0.4682
15369TIP3    H167598   6.726   5.232  14.868  0.8929  0.9497  0.8345
15369TIP3    H267599   6.621   5.266  14.765  2.2624  0.1090 -0.9045
15370TIP3   OH267600   0.623   5.523   4.051 -0.0719  0.2089 -0.2745
15370TIP3    H167601   0.703   5.533   4.104 -0.6694  1.1654  0.4716
15370TIP3    H267602   0.552   5.521   4.115 -0.5859 -1.8319 -0.8501
15371TIP3   OH267603   2.497   4.048  13.239  0.0558  0.0027 -0.1369
15371TIP3    H167604   2.420   4.010  13.281  0.7316  0.3483  1.4705
15371TIP3    H267605   2.568   3.986  13.259  1.1180  1.8483  2.3058
15372TIP3   OH267606   5.511   1.412   6.187  0.1097 -0.0799  0.4979
15372TIP3    H167607   5.495   1.322   6.214  0.1215  0.3426  1.9952
15372TIP3    H267608   5.568   1.448   6.256  2.5669  0.2359 -1.5206
15373TIP3   OH267609   2.698   0.055  10.746 -0.1286 -0.3629  0.2150
15373TIP3    H167610   2.608   0.084  10.728 -0.1676 -1.1916 -1.0193
15373TIP3    H267611   2.687  -0.034  10.781  0.2509 -0.9083 -1.0078
15374TIP3   OH267612   6.590   6.415   3.432  0.6081 -0.0246  0.0251
15374TIP3    H167613   6.582   6.320   3.423  1.9235 -0.0026 -1.9017
15374TIP3    H267614   6.501   6.448   3.416  0.5631 -0.8095 -1.5095
15375TIP3   OH267615   6.531   1.922   2.938  0.3425 -0.0412 -0.0874
15375TIP3    H167616   6.546   1.867   2.861 -1.6443  0.4320 -0.8801
15375TIP3    H267617   6.594   1.891   3.002  2.3208 -0.2344 -2.0020
15376TIP3   OH267618   0.881   5.495  13.134  0.1238  0.0104 -0.2927
15376TIP3    H167619   0.946   5.564  13.123  0.2996 -0.0080  0.5438
15376TIP3    H267620   0.910   5.425  13.077  1.2675 -0.2916  0.6065
15377TIP3   OH267621   0.374   4.918  13.697  0.4269 -0.0814 -0.3013
15377TIP3    H167622   0.357   4.889  13.608  2.6002  0.8263 -1.0774
15377TIP3    H267623   0.318   4.995  13.709  1.4361  0.8939 -1.5767
15378TIP3   OH267624   6.562   6.745   1.143  0.0905  0.5359  0.6028
15378TIP3    H167625   6.526   6.723   1.057  1.1990 -1.1383  0.5201
15378TIP3    H267626   6.531   6.676   1.201  2.3830 -0.5128  0.7003
15379TIP3   OH267627   1.369   1.155  11.719  0.0711 -0.2014  0.1193
15379TIP3    H167628   1.308   1.206  11.664  0.9334  2.1849  1.2166
15379TIP3    H267629   1.321   1.142  11.801  0.0808 -0.6116  0.0573
15380TIP3   OH267630   2.120   3.739   5.409  0.1586  0.5725  0.1105
15380TIP3    H167631   2.148   3.770   5.323  1.7140  0.6142  0.6082
15380TIP3    H267632   2.200   3.740   5.462 -0.4863 -0.7677  1.1648
15381TIP3   OH267633   6.636   2.961  15.807  0.3560 -0.0583  0.4450
15381TIP3    H167634   6.729   2.967  15.832  0.8230 -1.3575 -0.8156
15381TIP3    H267635   6.622   2.867  15.794 -0.4664  0.3192 -1.7785
15382TIP3   OH267636   6.291   0.197   3.732 -0.0550  0.0603  0.3027
15382TIP3    H167637   6.345   0.265   3.772  0.8298 -0.9117  0.8051
15382TIP3    H267638   6.236   0.164   3.803 -3.3270  2.7890 -0.6965
15383TIP3   OH267639   3.738   6.655  13.347 -0.4511 -0.2581  0.5853
15383TIP3    H167640   3.767   6.676  13.258  1.9406 -0.1687  1.3023
15383TIP3    H267641   3.647   6.628  13.337  0.0465 -1.2907 -2.0362
15384TIP3   OH267642   5.579   5.741  11.257 -0.1853 -0.4428 -0.4813
15384TIP3    H167643   5.489   5.723  11.230 -0.1475 -0.1516 -0.8086
15384TIP3    H267644   5.584   5.836  11.263 -0.1539 -0.4978  0.4263
15385TIP3   OH267645   4.687   2.556  12.600 -0.1060  0.8377  0.2146
15385TIP3    H167646   4.599   2.549  12.562  0.1651 -1.1725 -0.1693
15385TIP3    H267647   4.677   2.528  12.691  0.0599  1.0777  0.3085
15386TIP3   OH267648   0.142   2.659   1.030 -0.2641  0.5306  0.1357
15386TIP3    H167649   0.218   2.706   1.066 -1.6530  1.8663  1.4597
15386TIP3    H267650   0.108   2.718   0.962 -0.0575 -0.1264 -0.5534
15387TIP3   OH267651   1.134   2.771   0.626 -0.0375 -0.0944 -0.2139
15387TIP3    H167652   1.208   2.716   0.602 -0.2209 -1.3814  1.9614
15387TIP3    H267653   1.174   2.848   0.666  0.1443 -0.2163 -0.1606
15388TIP3   OH267654   6.766   0.598   3.249  0.1508 -0.0449 -0.0469
15388TIP3    H167655   6.744   0.508   3.223  1.4469 -0.3963 -0.0049
15388TIP3    H267656   6.836   0.588   3.313  1.1964  1.0252 -0.9750
15389TIP3   OH267657   6.778   4.269   0.865 -0.1431 -0.0791 -0.2102
15389TIP3    H167658   6.755   4.308   0.950  2.5264  0.3586  0.3945
15389TIP3    H267659   6.749   4.178   0.872  0.4047 -0.1617  1.3674
15390TIP3   OH267660   5.360   6.172  11.116 -0.6147  0.5465 -0.1198
15390TIP3    H167661   5.342   6.146  11.026 -2.7858  0.5531  0.2381
15390TIP3    H267662   5.431   6.236  11.109 -0.1483 -0.0986 -1.7132
15391TIP3   OH267663   5.653   4.889   3.215 -0.2044 -0.8477 -0.4649
15391TIP3    H167664   5.610   4.816   3.260 -0.0537  0.3597  1.7718
15391TIP3    H267665   5.592   4.962   3.222  1.4144  0.4410  1.3134
15392TIP3   OH267666   3.515   0.001   2.272  0.0129 -0.0644  0.2592
15392TIP3    H167667   3.482  -0.086   2.294 -1.0032  0.1937 -0.2254
15392TIP3    H267668   3.525  -0.000   2.177  1.3771 -0.1124  0.3770
15393TIP3   OH267669   2.637   4.823  14.645  0.1969  0.0250  0.1661
15393TIP3    H167670   2.622   4.896  14.585 -0.6478 -1.4786 -1.5807
15393TIP3    H267671   2.731   4.806  14.639  0.1119 -0.1896 -0.9294
15394TIP3   OH267672   3.295   4.800  13.287 -0.0188 -0.0205 -0.2394
15394TIP3    H167673   3.320   4.815  13.378 -2.3395  1.3288  0.2472
15394TIP3    H267674   3.346   4.864  13.237 -0.0119  0.4182  0.3227
15395TIP3   OH267675   4.453   2.362  16.439 -0.1049 -1.0928  0.3392
15395TIP3    H167676   4.441   2.385  16.531  1.5947 -1.7725  0.7845
15395TIP3    H267677   4.402   2.283  16.427  0.7040 -1.7556  1.0937
15396TIP3   OH267678   6.422   2.779  16.901  0.2267  0.1349  0.1485
15396TIP3    H167679   6.345   2.810  16.853  0.5431  0.7931  0.0672
15396TIP3    H267680   6.436   2.844  16.970  0.1624 -0.4655  0.7419
15397TIP3   OH267681   1.607   4.045   3.471  0.1023 -0.4171  0.5141
15397TIP3    H167682   1.559   4.127   3.481  0.7620 -0.0444  0.6588
15397TIP3    H267683   1.695   4.071   3.445 -0.2364 -1.1495 -1.5531
15398TIP3   OH267684   5.240   0.543   6.410 -0.0222  0.0352  0.5181
15398TIP3    H167685   5.197   0.548   6.495  0.1001  0.4818  0.5575
15398TIP3    H267686   5.287   0.460   6.411 -0.4985 -0.2317  0.6579
15399TIP3   OH267687   2.288   2.151   4.481 -0.5206  0.4656  0.2074
15399TIP3    H167688   2.287   2.120   4.572  1.6525  0.0322  0.1439
15399TIP3    H267689   2.280   2.246   4.488  0.0751  0.4757  0.8813
15400TIP3   OH267690   1.154   2.513  16.168  0.2079  0.2757 -0.2311
15400TIP3    H167691   1.198   2.546  16.246  1.1240  0.1525 -0.6837
15400TIP3    H267692   1.191   2.564  16.096 -1.6791  1.4311 -0.4671
15401TIP3   OH267693   3.050   1.179   3.306 -0.2277 -0.3100  0.6551
15401TIP3    H167694   2.998   1.147   3.380 -2.4298 -1.6931 -1.3336
15401TIP3    H267695   3.025   1.271   3.296 -0.8719 -0.4597  0.8700
15402TIP3   OH267696   0.411   6.825   6.140 -0.8262 -0.2115  0.3407
15402TIP3    H167697   0.502   6.820   6.168 -0.7789 -0.5964  0.1276
15402TIP3    H267698   0.392   6.919   6.135 -0.1150 -0.1116 -0.6622
15403TIP3   OH267699   5.837   4.608  13.665 -0.5845  0.3435  0.6146
15403TIP3    H167700   5.774   4.552  13.710 -0.6590  1.0996  1.4813
15403TIP3    H267701   5.891   4.645  13.736  1.7658 -1.3517 -0.1720
15404TIP3   OH267702   4.237   3.280  11.613  0.3292 -0.8002  0.3435
15404TIP3    H167703   4.263   3.298  11.703  0.2617  0.7192  0.0846
15404TIP3    H267704   4.159   3.334  11.599  0.5337 -0.7648 -0.7266
15405TIP3   OH267705   1.319   4.377   0.462 -0.3935 -0.3727  0.8007
15405TIP3    H167706   1.351   4.371   0.372 -0.6954 -1.1153  0.7339
15405TIP3    H267707   1.307   4.471   0.477 -2.8526 -0.3367 -0.8493
15406TIP3   OH267708   2.804   3.771  14.244 -0.2431 -0.0776  0.9347
15406TIP3    H167709   2.773   3.749  14.332 -0.9677 -1.7016  0.3193
15406TIP3    H267710   2.760   3.708  14.187  0.6250  0.5983 -0.5354
15407TIP3   OH267711   1.135   3.496   0.890 -0.3076 -0.0890 -0.2377
15407TIP3    H167712   1.185   3.454   0.960  1.5620  2.8739  0.4187
15407TIP3    H267713   1.187   3.481   0.811 -0.2633 -0.0128 -0.2232
15408TIP3   OH267714   1.497   5.719  10.862  0.1048 -0.6790  0.0413
15408TIP3    H167715   1.491   5.652  10.793 -1.2295  0.0500 -0.5825
15408TIP3    H267716   1.468   5.800  10.820 -0.0773 -0.0752  1.2757
15409TIP3   OH267717   4.868   2.092  11.455 -0.0850  0.5561 -0.3282
15409TIP3    H167718   4.877   1.997  11.462 -0.4038  0.5448 -0.0052
15409TIP3    H267719   4.827   2.118  11.538 -2.3973  0.6603 -1.3998
15410TIP3   OH267720   2.627   1.654  12.749 -0.2935  0.3229  0.0768
15410TIP3    H167721   2.706   1.696  12.784  0.4290 -1.3201  0.5265
15410TIP3    H267722   2.618   1.574  12.801 -0.6592 -0.9099 -1.8063
15411TIP3   OH267723   5.100   4.375   2.141  0.5894 -0.1280 -0.4625
15411TIP3    H167724   5.094   4.354   2.048 -1.5992 -0.2529 -0.3565
15411TIP3    H267725   5.120   4.292   2.183 -1.1180 -0.6674 -0.6342
15412TIP3   OH267726   1.905   3.340  12.916  0.4541 -0.5298  0.0172
15412TIP3    H167727   1.810   3.334  12.922  0.2720  0.4966 -1.3492
15412TIP3    H267728   1.927   3.291  12.836  0.7382  1.4843 -1.2208
15413TIP3   OH267729   1.949   5.462  11.690 -0.2246 -0.1740 -0.4951
15413TIP3    H167730   1.965   5.544  11.737  1.9220  0.3766 -2.0027
15413TIP3    H267731   2.002   5.397  11.737 -2.9325 -1.1394  1.5058
15414TIP3   OH267732   1.697   5.414  16.862 -0.2015  0.1683  0.3018
15414TIP3    H167733   1.751   5.346  16.822  1.1966  0.8138  1.0346
15414TIP3    H267734   1.644   5.449  16.790 -1.1381 -1.8275 -0.0415
15415TIP3   OH267735   4.830   6.649  16.471  0.3189  0.3690  0.1334
15415TIP3    H167736   4.889   6.705  16.521  1.4862 -0.6412 -0.0587
15415TIP3    H267737   4.884   6.575  16.444 -1.2730 -1.1097  0.7829
15416TIP3   OH267738   2.971   2.483  16.557  0.3104 -0.3569  0.2242
15416TIP3    H167739   2.944   2.560  16.607 -0.2815 -0.9262  0.7937
15416TIP3    H267740   3.037   2.441  16.612  0.1328 -0.6309  0.2276
15417TIP3   OH267741   3.834   4.467   3.692 -0.2732 -0.0987  0.2503
15417TIP3    H167742   3.920   4.458   3.734 -1.0267  1.4997  2.3215
15417TIP3    H267743   3.840   4.547   3.641 -0.7264  0.4406  1.0171
15418TIP3   OH267744   5.187   6.389  12.044  0.1396  0.2493 -0.2563
15418TIP3    H167745   5.223   6.359  12.127  1.4428 -0.4385 -1.0417
15418TIP3    H267746   5.105   6.341  12.034  0.4212 -0.3278  0.2105
15419TIP3   OH267747   6.081   1.237   0.423  0.3496  0.4115  0.4400
15419TIP3    H167748   6.151   1.241   0.358  0.1071 -1.5708 -0.0048
15419TIP3    H267749   6.013   1.295   0.388  1.8499  2.6474  1.0681
15420TIP3   OH267750   3.667   5.944   4.233 -0.5475 -0.2533 -0.3244
15420TIP3    H167751   3.673   5.892   4.153 -0.3244 -0.7475  0.0039
15420TIP3    H267752   3.757   5.948   4.265 -0.3996  1.1518 -0.8443
15421TIP3   OH267753   3.662   3.340  14.025  0.2038  0.0909  0.0269
15421TIP3    H167754   3.633   3.293  13.946 -0.1783  0.3879 -0.0123
15421TIP3    H267755   3.746   3.299  14.047  1.3221  1.2867 -1.6758
15422TIP3   OH267756   3.088   2.534   1.809 -0.4239 -0.0979 -0.2121
15422TIP3    H167757   2.994   2.515   1.811 -0.3436 -0.4511  0.4767
15422TIP3    H267758   3.122   2.495   1.889  0.2518  0.3704 -0.2650
15423TIP3   OH267759   3.757   4.793  11.882  0.1394 -0.0383  0.7608
15423TIP3    H167760   3.697   4.724  11.853  1.2549 -0.9024  0.3996
15423TIP3    H267761   3.707   4.844  11.945 -0.6250 -1.3984  1.3042
15424TIP3   OH267762   1.018   0.429  12.382 -0.0752  0.3819 -0.4427
15424TIP3    H167763   1.085   0.471  12.327 -0.1246  0.1090 -0.7139
15424TIP3    H267764   0.939   0.482  12.367 -0.1349  0.2042 -0.7774
15425TIP3   OH267765   0.756   3.639  11.764  0.3973  0.6588 -0.3722
15425TIP3    H167766   0.743   3.674  11.852  0.0373 -0.3904  0.0143
15425TIP3    H267767   0.752   3.715  11.706 -2.8756  1.0550  0.1678
15426TIP3   OH267768   5.558   5.674  11.680 -0.7484 -0.3815  0.1766
15426TIP3    H167769   5.578   5.721  11.761  2.0170 -0.0993 -0.5608
15426TIP3    H267770   5.600   5.726  11.612  1.5406 -3.2941 -0.8103
15427TIP3   OH267771   6.430   4.025   5.822  0.4327 -0.2617 -0.1772
15427TIP3    H167772   6.509   4.015   5.768  0.8843  0.7022  0.2942
15427TIP3    H267773   6.433   4.115   5.852  0.0752 -0.7258  1.3003
15428TIP3   OH267774   1.136   0.497  13.739 -0.3096 -0.5744 -0.2528
15428TIP3    H167775   1.217   0.493  13.688 -0.9233 -1.2581 -1.1905
15428TIP3    H267776   1.139   0.420  13.796 -0.0017 -0.2465  0.1788
15429TIP3   OH267777   2.346   1.694  11.993  0.4952  0.0778  0.3438
15429TIP3    H167778   2.399   1.757  11.944 -0.0915 -0.5459 -1.1783
15429TIP3    H267779   2.409   1.639  12.038  1.0599  0.7221  0.3543
15430TIP3   OH267780   4.095   2.958  13.649  0.0153 -0.3641  0.0556
15430TIP3    H167781   4.189   2.966  13.666 -0.2645 -0.5558  1.8115
15430TIP3    H267782   4.063   2.899  13.717 -1.2119 -1.1695 -1.1697
15431TIP3   OH267783   2.418   4.447   1.948 -0.3783 -0.1111  0.0465
15431TIP3    H167784   2.379   4.503   2.014 -0.3461  0.5102 -0.4545
15431TIP3    H267785   2.343   4.412   1.899 -0.4040 -0.6004  0.4322
15432TIP3   OH267786   5.208   5.174   2.000  0.3456  0.0679 -0.2431
15432TIP3    H167787   5.217   5.251   1.944 -0.3146  1.4641  1.4874
15432TIP3    H267788   5.269   5.110   1.962  0.6354  1.2734 -1.9489
15433TIP3   OH267789   2.058   5.783  14.999 -0.5137  0.2746  0.1926
15433TIP3    H167790   1.972   5.751  15.026 -0.8237  0.1372 -0.9008
15433TIP3    H267791   2.108   5.791  15.080 -0.6871 -2.1983  0.6122
15434TIP3   OH267792   3.911   4.247  14.080 -0.1253  0.0779 -0.4866
15434TIP3    H167793   3.911   4.322  14.139  1.1219 -0.7275  0.5805
15434TIP3    H267794   3.937   4.173  14.134  0.1654 -0.8609 -1.8445
15435TIP3   OH267795   5.282   5.696   0.972  0.4462  0.6245 -0.3901
15435TIP3    H167796   5.249   5.718   1.059  2.9772 -1.4305  1.2547
15435TIP3    H267797   5.212   5.643   0.933  0.2633 -0.6665  1.5317
15436TIP3   OH267798   5.902   6.524   4.202 -0.0681  0.0233 -0.3263
15436TIP3    H167799   5.988   6.510   4.242 -0.0073  0.8140 -0.1804
15436TIP3    H267800   5.850   6.568   4.269  0.1316  1.6589 -1.1966
15437TIP3   OH267801   2.953   3.083   3.040  0.0012 -0.1431 -0.5731
15437TIP3    H167802   2.902   3.100   3.119 -0.2809  0.2167 -0.8329
15437TIP3    H267803   2.928   2.995   3.014 -1.6907  0.5964 -1.5925
15438TIP3   OH267804   3.856   5.529  15.812  0.1688 -0.1554 -0.1447
15438TIP3    H167805   3.850   5.478  15.731  2.4456 -0.0991 -0.4033
15438TIP3    H267806   3.772   5.575  15.817 -0.4755 -1.0424 -1.8445
15439TIP3   OH267807   1.841   5.484  15.254 -0.1203  0.2682 -0.1223
15439TIP3    H167808   1.903   5.429  15.301 -1.4458 -0.6736  0.6089
15439TIP3    H267809   1.824   5.557  15.313 -0.8721 -0.2895  0.3677
15440TIP3   OH267810   0.782   3.983  13.442  0.7050  0.7549  0.0692
15440TIP3    H167811   0.761   4.029  13.524  0.3290  1.9132 -0.6539
15440TIP3    H267812   0.868   4.017  13.417  0.6940  0.6118 -0.1661
15441TIP3   OH267813   3.378   5.203  15.209  0.4115  0.2506  0.2168
15441TIP3    H167814   3.409   5.291  15.192  0.9015  0.1443  0.5701
15441TIP3    H267815   3.291   5.215  15.247  0.5670  0.5880  0.4672
15442TIP3   OH267816   3.464   1.142   2.539 -0.0110  0.6504  0.1649
15442TIP3    H167817   3.445   1.056   2.502  1.2273 -0.4170  1.8504
15442TIP3    H267818   3.380   1.188   2.538 -1.8482 -2.1586  3.1203
15443TIP3   OH267819   3.052   4.935  10.684  0.0977 -0.5185  0.1728
15443TIP3    H167820   3.055   5.030  10.676  1.4854 -0.4470  1.1566
15443TIP3    H267821   2.997   4.919  10.761  0.6748 -0.4450  0.6122
15444TIP3   OH267822   2.264   3.437   2.121 -0.8890  0.1433  0.9355
15444TIP3    H167823   2.222   3.407   2.041  0.9746  1.6040 -0.6868
15444TIP3    H267824   2.334   3.373   2.137 -1.4628 -0.3332  1.6371
15445TIP3   OH267825   0.808   3.791  15.555  0.3506  0.6063 -0.6376
15445TIP3    H167826   0.855   3.804  15.638  0.0947 -0.3383 -0.3365
15445TIP3    H267827   0.725   3.836  15.568  0.7689  1.4524 -0.8157
15446TIP3   OH267828   6.651   1.885   2.651  0.4025 -0.8856  0.1968
15446TIP3    H167829   6.742   1.862   2.633  1.1810  1.0446  1.3797
15446TIP3    H267830   6.642   1.976   2.623 -0.9651 -0.8220  0.7357
15447TIP3   OH267831   0.294   1.587  13.947  0.0728 -0.4141 -0.5574
15447TIP3    H167832   0.279   1.549  14.034 -0.2666 -0.2938 -0.5632
15447TIP3    H267833   0.225   1.550  13.893 -0.6474  0.6719 -0.4254
15448TIP3   OH267834   4.788   3.425   0.559  0.5062 -0.1791  0.4462
15448TIP3    H167835   4.696   3.403   0.571  0.6015 -1.6578 -1.0687
15448TIP3    H267836   4.790   3.520   0.553 -1.1371 -0.1867 -0.8666
15449TIP3   OH267837   5.030   2.105  12.462  0.0380 -0.1363 -0.3574
15449TIP3    H167838   5.110   2.124  12.511 -1.4135 -0.0004  2.1408
15449TIP3    H267839   4.995   2.192  12.441 -0.6702 -0.1304  0.7571
15450TIP3   OH267840   6.468   5.990  12.740  0.4475  0.0672  0.0922
15450TIP3    H167841   6.437   5.907  12.702 -2.9410  0.7675  0.9863
15450TIP3    H267842   6.509   5.964  12.822 -0.7937 -0.7548  0.4826
15451TIP3   OH267843   4.724   1.552  13.676 -0.6765 -1.1635 -0.1334
15451TIP3    H167844   4.789   1.620  13.659 -0.1917 -1.8012 -0.9639
15451TIP3    H267845   4.775   1.476  13.705 -1.1176 -1.4508 -0.0940
15452TIP3   OH267846   6.316   3.143  16.868  0.0893 -0.0873 -0.1971
15452TIP3    H167847   6.322   3.207  16.938  0.5571 -0.3931  0.0476
15452TIP3    H267848   6.228   3.156  16.831 -0.2973 -0.1638  0.6671
15453TIP3   OH267849   6.812   3.251   1.715  0.1731 -0.2497  0.4767
15453TIP3    H167850   6.757   3.326   1.736  0.2700 -0.6516  2.4054
15453TIP3    H267851   6.782   3.182   1.775  1.3003 -1.1600  0.0385
15454TIP3   OH267852   2.168   2.866  10.501 -0.0272 -0.0318  0.0817
15454TIP3    H167853   2.091   2.901  10.546 -1.5285 -0.0605 -2.3368
15454TIP3    H267854   2.185   2.928  10.430  1.1443 -0.9445 -0.4655
15455TIP3   OH267855   4.198   6.666   4.562 -0.0125 -0.5982 -0.1127
15455TIP3    H167856   4.159   6.657   4.475 -1.2975 -0.1763  0.3899
15455TIP3    H267857   4.124   6.658   4.622  0.9186 -1.4733  0.9863
15456TIP3   OH267858   3.754   2.930   5.694  0.2989 -0.0045  0.1758
15456TIP3    H167859   3.769   3.023   5.712 -0.4061  0.2994 -0.7486
15456TIP3    H267860   3.664   2.925   5.663  0.6358 -0.8446 -0.7382
15457TIP3   OH267861   3.157   5.975   4.028  0.8296 -0.6901  0.1900
15457TIP3    H167862   3.235   5.999   4.077  0.6198  0.9516 -0.2119
15457TIP3    H267863   3.107   6.057   4.021 -0.5131 -1.5157 -0.2866
15458TIP3   OH267864   2.447   4.618   0.817 -0.2236 -0.2543 -0.0757
15458TIP3    H167865   2.469   4.695   0.764  2.7669 -1.0647 -0.2113
15458TIP3    H267866   2.393   4.652   0.888  0.8004  1.9610 -0.2729
15459TIP3   OH267867   3.256   2.455  10.802 -0.0362 -0.0692 -0.4899
15459TIP3    H167868   3.282   2.377  10.852  0.2646  1.1318  1.3034
15459TIP3    H267869   3.163   2.466  10.822 -0.1291 -0.0571 -0.9087
15460TIP3   OH267870   4.738   2.015   4.012  0.3558  0.3044 -0.1550
15460TIP3    H167871   4.743   1.920   3.997  0.3857  0.2852 -0.0240
15460TIP3    H267872   4.721   2.052   3.925  0.3801  0.1819 -0.2126
15461TIP3   OH267873   3.807   5.131  11.116  0.6876  0.3816  0.3713
15461TIP3    H167874   3.870   5.075  11.070 -0.6312 -2.5262  1.8210
15461TIP3    H267875   3.737   5.145  11.051  1.0518  0.4053 -0.0221
15462TIP3   OH267876   1.491   6.351  13.659 -0.3885  0.1681  0.5176
15462TIP3    H167877   1.431   6.399  13.603 -0.3342  0.7013  0.8976
15462TIP3    H267878   1.478   6.389  13.746 -0.5040 -0.6692  0.8777
15463TIP3   OH267879   2.433   6.709  13.760  0.0925  0.6031  0.3627
15463TIP3    H167880   2.444   6.646  13.831  1.3276 -1.7398 -1.7431
15463TIP3    H267881   2.351   6.685  13.718  1.6349 -1.2802 -1.8392
15464TIP3   OH267882   2.858   0.011   1.589  0.4430  0.4254  0.2117
15464TIP3    H167883   2.916   0.068   1.638 -2.1532  0.8660  3.0826
15464TIP3    H267884   2.888  -0.078   1.609  0.8412  0.6698  0.7123
15465TIP3   OH267885   4.938   1.725  15.700  0.3052  0.3323  0.0006
15465TIP3    H167886   4.901   1.726  15.611 -2.0928 -0.0188  0.9014
15465TIP3    H267887   4.868   1.686  15.754  1.0236  2.0472  2.3090
15466TIP3   OH267888   1.188   2.817  12.285  0.2833  0.2867 -0.4054
15466TIP3    H167889   1.131   2.887  12.316 -1.0778 -1.4484  1.1989
15466TIP3    H267890   1.273   2.860  12.272 -0.3283  2.0986  1.1081
15467TIP3   OH267891   1.639   5.546  11.820 -0.0317 -0.0753  0.0946
15467TIP3    H167892   1.577   5.617  11.834  0.0275  0.2313 -1.0735
15467TIP3    H267893   1.725   5.587  11.827  0.0285 -0.3021  0.7329
15468TIP3   OH267894   2.999   6.667  13.762  0.2195 -0.3919  0.1847
15468TIP3    H167895   3.064   6.718  13.713  0.9308 -0.1269  1.3614
15468TIP3    H267896   2.914   6.702  13.734  0.6272  0.1206 -0.4372
15469TIP3   OH267897   6.519   4.110  16.453 -0.2361 -0.5991  0.2226
15469TIP3    H167898   6.544   4.018  16.447  2.1805  0.0215 -0.3898
15469TIP3    H267899   6.581   4.148  16.515 -1.0812  0.6761  0.3289
15470TIP3   OH267900   3.787   5.827   1.932 -0.3516  0.3535  0.4304
15470TIP3    H167901   3.763   5.785   2.014 -0.7107  2.2067  1.3414
15470TIP3    H267902   3.711   5.817   1.876  0.0400 -1.2668  0.1429
15471TIP3   OH267903   3.214   0.381  16.219  0.3617 -0.0430  0.3015
15471TIP3    H167904   3.283   0.315  16.222  0.4357  0.0146 -0.0276
15471TIP3    H267905   3.175   0.369  16.132  1.5388  1.5208 -0.4868
15472TIP3   OH267906   1.620   2.320  16.898 -0.4979 -0.2950 -0.5261
15472TIP3    H167907   1.629   2.387  16.966 -2.1551  1.7884 -2.1937
15472TIP3    H267908   1.625   2.237  16.945  2.3656  0.8920  1.5829
15473TIP3   OH267909   1.570   0.370  11.824  0.5352 -0.0818 -0.6250
15473TIP3    H167910   1.476   0.377  11.805  0.7355  0.7886 -1.3720
15473TIP3    H267911   1.581   0.418  11.906  0.3223 -0.2540 -0.4929
15474TIP3   OH267912   0.107   2.818   4.574 -0.1323  0.0972 -0.0636
15474TIP3    H167913   0.034   2.790   4.629 -0.1176 -0.1035 -0.1471
15474TIP3    H267914   0.185   2.800   4.626 -0.0978 -0.4168 -0.2865
15475TIP3   OH267915   0.980   3.006  13.621  0.3129 -0.6749 -0.5549
15475TIP3    H167916   0.933   2.930  13.587 -2.1821  0.9588 -0.9884
15475TIP3    H267917   0.926   3.038  13.693  0.4688  1.5531 -1.3551
15476TIP3   OH267918   5.259   6.197   4.197  0.5208  0.4788 -0.0490
15476TIP3    H167919   5.190   6.221   4.135  1.7866  0.6422 -1.4270
15476TIP3    H267920   5.281   6.279   4.241 -1.4058  0.1110  1.7703
15477TIP3   OH267921   2.381   1.298   2.015 -0.0623 -0.8795 -0.1575
15477TIP3    H167922   2.360   1.281   2.107  1.9729 -1.8230  0.1766
15477TIP3    H267923   2.353   1.389   2.001  1.7948  0.1782  2.1547
15478TIP3   OH267924   6.725   2.113  13.082 -0.0231  0.7475  0.2625
15478TIP3    H167925   6.818   2.102  13.106 -0.3833 -1.9036  0.6833
15478TIP3    H267926   6.682   2.132  13.165  0.2319  3.2188 -0.0971
15479TIP3   OH267927   0.755   2.026   5.715  0.2810  0.0599  0.0195
15479TIP3    H167928   0.695   2.077   5.662 -1.9559 -1.3804  0.9917
15479TIP3    H267929   0.782   2.085   5.785  1.6911  1.3471 -1.5171
15480TIP3   OH267930   5.614   6.403   4.322 -0.3565  0.3425 -0.3826
15480TIP3    H167931   5.676   6.345   4.276 -1.3848 -0.4781 -0.7719
15480TIP3    H267932   5.560   6.344   4.374  0.5560  1.2370  1.6838
15481TIP3   OH267933   0.554   1.401   3.177 -0.0651 -0.4654 -1.0345
15481TIP3    H167934   0.580   1.486   3.140  1.4631 -0.7706 -0.7335
15481TIP3    H267935   0.618   1.385   3.247 -0.1840 -1.9836 -1.2414
15482TIP3   OH267936   6.774   4.982  13.974  0.0480  0.1452 -0.4828
15482TIP3    H167937   6.859   5.025  13.978  0.3749 -0.4978 -0.5559
15482TIP3    H267938   6.753   4.978  13.881 -0.4791  1.1107 -0.4166
15483TIP3   OH267939   3.041   4.703  16.195  0.4006 -0.1978  0.1462
15483TIP3    H167940   2.983   4.645  16.145  0.7654 -1.6396  1.3039
15483TIP3    H267941   3.067   4.771  16.133 -1.2643 -0.4014 -0.8446
15484TIP3   OH267942   4.429   1.105   2.531 -0.0210 -0.4173 -0.1919
15484TIP3    H167943   4.397   1.140   2.448 -2.0256 -2.0476 -0.2117
15484TIP3    H267944   4.368   1.034   2.551  0.6851 -0.3664  2.4599
15485TIP3   OH267945   5.132   0.230   2.489  0.2582  0.4336  0.1152
15485TIP3    H167946   5.214   0.272   2.514  0.4765  0.7255 -1.0311
15485TIP3    H267947   5.142   0.138   2.515  1.7432  0.0189 -1.6895
15486TIP3   OH267948   6.568   4.094  13.333  0.6585 -0.1467 -0.2892
15486TIP3    H167949   6.625   4.133  13.399  0.6481 -1.2570  0.3940
15486TIP3    H267950   6.530   4.017  13.376 -0.2365 -0.2385 -1.2093
15487TIP3   OH267951   2.226   1.810   3.045  0.3050 -0.0792  0.2840
15487TIP3    H167952   2.272   1.733   3.078 -0.5087 -0.6865  0.0254
15487TIP3    H267953   2.185   1.781   2.964  0.6216  0.8461 -0.2154
15488TIP3   OH267954   5.430   0.134  14.348 -0.1255  0.1826  0.5169
15488TIP3    H167955   5.481   0.131  14.267 -0.3850 -1.4078  0.3827
15488TIP3    H267956   5.349   0.086  14.328 -0.6370  0.6349  1.4210
15489TIP3   OH267957   0.730   3.226  10.951  0.4708  0.1837 -0.0507
15489TIP3    H167958   0.708   3.260  10.864  1.9862  2.1819  0.2551
15489TIP3    H267959   0.647   3.195  10.987 -0.2561 -0.3120 -2.0289
15490TIP3   OH267960   5.061   0.600  13.662  0.7733 -0.7030  0.1514
15490TIP3    H167961   5.153   0.626  13.661  0.1586  1.8271  0.5468
15490TIP3    H267962   5.044   0.578  13.753  0.4508  1.2666  0.6106
15491TIP3   OH267963   4.028   6.302   0.402 -0.0958 -0.6073 -0.0263
15491TIP3    H167964   4.014   6.329   0.493 -1.7880  0.4505 -0.5438
15491TIP3    H267965   4.012   6.382   0.351  2.3540 -0.7880 -1.1947
15492TIP3   OH267966   0.933   0.945  14.322  0.8068  0.2793  0.4750
15492TIP3    H167967   0.870   0.889  14.368  1.4779  1.0511  2.4370
15492TIP3    H267968   0.889   1.029  14.312  1.4030  0.7614  1.6746
15493TIP3   OH267969   3.159   1.813  12.977  0.7858 -0.0445 -0.4924
15493TIP3    H167970   3.177   1.825  12.884  0.4757 -0.5578 -0.6216
15493TIP3    H267971   3.069   1.780  12.981  0.6491  0.3634  0.0150
15494TIP3   OH267972   1.497   3.273   2.450  0.1241  0.2562 -0.2325
15494TIP3    H167973   1.529   3.206   2.511  1.1172  1.3802  0.5337
15494TIP3    H267974   1.447   3.224   2.385  3.5562 -1.7206 -1.6774
15495TIP3   OH267975   4.193   1.979  13.835 -0.0814  0.4929  0.6613
15495TIP3    H167976   4.129   1.970  13.764  0.2564 -1.2199  0.5404
15495TIP3    H267977   4.240   1.896  13.836  1.8167  1.5084  1.0918
15496TIP3   OH267978   0.491   6.096   6.203  0.4090 -0.3356  0.5031
15496TIP3    H167979   0.489   6.002   6.188  0.5553 -0.4056  0.9036
15496TIP3    H267980   0.423   6.112   6.268 -0.6598  0.0533 -0.6799
15497TIP3   OH267981   0.619   5.206   4.233  0.3530  0.1896 -0.5169
15497TIP3    H167982   0.666   5.265   4.291  0.9903 -1.0068  0.2214
15497TIP3    H267983   0.549   5.260   4.196 -0.3277  0.9055  1.6420
15498TIP3   OH267984   6.155   0.493   4.386 -0.9438  0.5150  0.1049
15498TIP3    H167985   6.248   0.474   4.392 -1.3473 -1.3662  1.3911
15498TIP3    H267986   6.142   0.523   4.296  0.8506  0.5519 -0.1676
15499TIP3   OH267987   3.703   4.726  16.905  0.6022  0.3972 -0.5634
15499TIP3    H167988   3.656   4.643  16.900 -0.3481  0.8043  0.9980
15499TIP3    H267989   3.665   4.779  16.835 -1.1370  0.6258  0.5065
15500TIP3   OH267990   3.841   5.682   2.877 -0.0854  0.0458 -0.7424
15500TIP3    H167991   3.923   5.653   2.918 -1.6800 -2.9905  0.6517
15500TIP3    H267992   3.869   5.728   2.798  2.9764 -1.2224 -0.5581
15501TIP3   OH267993   5.675   0.255  15.908 -0.9408 -0.1892 -0.6311
15501TIP3    H167994   5.609   0.186  15.905 -0.8048 -0.2927 -1.5670
15501TIP3    H267995   5.693   0.267  16.001  0.5206 -2.8396 -0.4868
15502TIP3   OH267996   0.116   0.651  15.049  0.1120  0.0188 -0.2148
15502TIP3    H167997   0.173   0.686  15.118  0.0481  2.4418 -1.3100
15502TIP3    H267998   0.176   0.614  14.985  0.2751 -0.3415  0.1408
15503TIP3   OH267999   0.397   0.991  16.196 -0.3310 -0.1841  0.4976
15503TIP3    H168000   0.440   1.061  16.245 -0.7692 -0.7852  1.7650
15503TIP3    H268001   0.307   0.990  16.230 -0.1421 -1.8084  1.0041
15504TIP3   OH268002   0.062   3.400  13.526 -0.5170  0.2909 -0.1570
15504TIP3    H168003   0.095   3.311  13.516 -0.8967 -0.1311  1.9444
15504TIP3    H268004  -0.008   3.406  13.462 -0.0118 -0.6579 -0.8354
15505TIP3   OH268005   2.088   3.068   3.586 -0.1910  0.2990  0.3303
15505TIP3    H168006   2.160   3.080   3.648 -0.2134  0.8508  0.2507
15505TIP3    H268007   2.054   3.156   3.570 -1.3858 -0.0231  0.9494
15506TIP3   OH268008   4.129   3.193  16.663  0.3438 -0.1612 -0.9152
15506TIP3    H168009   4.175   3.266  16.621  0.6230  0.2199  0.0301
15506TIP3    H268010   4.070   3.160  16.596  1.5864 -0.3038 -1.9821
15507TIP3   OH268011   3.779   1.211  14.098  0.0220  0.0786 -0.4588
15507TIP3    H168012   3.733   1.265  14.033 -0.0626  0.3917 -0.1404
15507TIP3    H268013   3.861   1.258  14.115 -0.2145  0.2990  0.0915
15508TIP3   OH268014   5.444   4.281  11.916  0.1873  0.1267  0.1465
15508TIP3    H168015   5.528   4.319  11.890 -0.4568  1.5901  0.1219
15508TIP3    H268016   5.460   4.246  12.003  0.9637 -0.0921 -0.0752
15509TIP3   OH268017   3.982   3.173   1.590  0.4482  0.4557  0.0187
15509TIP3    H168018   3.929   3.120   1.531  0.0421  0.5177  0.3253
15509TIP3    H268019   3.976   3.262   1.554 -0.0698  0.5538  0.3334
15510TIP3   OH268020   1.627   5.953  14.211  0.3654 -0.1742 -0.7723
15510TIP3    H168021   1.686   6.026  14.230  0.4951 -0.2501 -0.8883
15510TIP3    H268022   1.683   5.883  14.180  0.2761 -0.4449 -0.3338
15511TIP3   OH268023   0.200   3.355   3.094  0.1193 -0.8010  0.4301
15511TIP3    H168024   0.250   3.436   3.097  0.2571 -0.8428 -0.4837
15511TIP3    H268025   0.251   3.294   3.147 -0.0414 -0.2689  1.2119
15512TIP3   OH268026   1.202   6.784  11.420 -0.1642 -0.5408 -0.1525
15512TIP3    H168027   1.155   6.803  11.339 -0.0440  1.1263  0.1206
15512TIP3    H268028   1.191   6.690  11.434 -0.7675 -0.7267 -1.7249
15513TIP3   OH268029   6.155   4.410  14.014 -0.1024 -0.3544 -0.0316
15513TIP3    H168030   6.223   4.343  14.002 -0.1977 -0.2471 -1.3897
15513TIP3    H268031   6.086   4.384  13.952 -0.0329  1.1206 -0.7666
15514TIP3   OH268032   5.685   3.682  11.859  0.1114 -0.0089  0.6288
15514TIP3    H168033   5.712   3.700  11.949 -1.7297  2.6894  0.7801
15514TIP3    H268034   5.590   3.669  11.865  0.1554 -1.2487 -0.7760
15515TIP3   OH268035   1.451   3.413   4.661 -0.1783 -0.3056 -0.4778
15515TIP3    H168036   1.364   3.440   4.688 -0.3586 -0.2040 -1.1504
15515TIP3    H268037   1.501   3.494   4.652  0.3851 -0.4245  1.1826
15516TIP3   OH268038   0.203   5.970   4.387 -0.4725  0.2082  0.3761
15516TIP3    H168039   0.124   5.916   4.393 -0.0917 -0.3149  0.9753
15516TIP3    H268040   0.181   6.050   4.434 -0.8792  0.3564 -0.0702
15517TIP3   OH268041   0.271   4.357  11.603  0.4918  0.2926  0.6494
15517TIP3    H168042   0.232   4.342  11.689 -0.5129  1.5550  0.4458
15517TIP3    H268043   0.253   4.449  11.584  0.8514  0.0862 -0.8457
15518TIP3   OH268044   3.537   0.745  16.292  0.3707 -0.1644  0.5009
15518TIP3    H168045   3.455   0.716  16.251  0.3826 -0.2016  0.5027
15518TIP3    H268046   3.532   0.841  16.289  0.9577 -0.1657 -0.7358
15519TIP3   OH268047   0.013   4.098  12.275  0.2558 -0.1771 -0.0937
15519TIP3    H168048  -0.025   4.066  12.357 -1.0836  1.0812 -0.1663
15519TIP3    H268049   0.000   4.193  12.279  0.8584 -0.0266 -1.4227
15520TIP3   OH268050   1.556   2.645  17.181  0.1445  0.2772  0.0987
15520TIP3    H168051   1.582   2.728  17.142  1.2148  0.4511  1.1203
15520TIP3    H268052   1.503   2.670  17.257  0.4515  0.0275  0.3978
15521TIP3   OH268053   4.234   6.132   0.395  0.0100  0.0594 -0.0972
15521TIP3    H168054   4.309   6.163   0.344  0.5671 -0.4085  0.4355
15521TIP3    H268055   4.172   6.205   0.393  0.7556  0.7048  0.0228
15522TIP3   OH268056   4.337   4.395  16.662  0.0657 -0.1102 -0.4774
15522TIP3    H168057   4.259   4.397  16.607 -0.4753  0.1530  0.2809
15522TIP3    H268058   4.409   4.413  16.602 -0.4907  0.0305 -1.1203
15523TIP3   OH268059   4.677   5.382  13.206  0.1780  0.4897  0.3863
15523TIP3    H168060   4.736   5.401  13.133  1.0984  1.4732  1.3568
15523TIP3    H268061   4.613   5.321  13.169  1.4027 -0.0929 -0.8698
15524TIP3   OH268062   2.254   6.637  16.553  0.6627 -0.9276 -0.1050
15524TIP3    H168063   2.309   6.709  16.583  2.7485 -2.6958  0.4954
15524TIP3    H268064   2.214   6.670  16.472  0.3328  1.4205  0.9313
15525TIP3   OH268065   1.849   6.740   0.090  0.4484 -0.3040 -0.2985
15525TIP3    H168066   1.784   6.802   0.122  1.0663  0.4355 -0.4325
15525TIP3    H268067   1.798   6.669   0.052 -0.2873  0.4318 -0.7234
15526TIP3   OH268068   2.864   0.691  14.670  0.0186  0.4174  0.5760
15526TIP3    H168069   2.922   0.751  14.718  1.8938 -0.2880 -0.6758
15526TIP3    H268070   2.798   0.747  14.631  1.4068  1.6503 -0.1181
15527TIP3   OH268071   1.952   0.219   5.096  0.4399 -0.0298 -0.4084
15527TIP3    H168072   2.046   0.218   5.109  0.6546  1.7355 -1.4617
15527TIP3    H268073   1.919   0.273   5.168  0.2973 -0.2315 -0.3234
15528TIP3   OH268074   4.669   1.074  14.794 -0.1196 -0.6799 -0.1726
15528TIP3    H168075   4.707   0.987  14.787 -0.2716 -0.6869 -0.9264
15528TIP3    H268076   4.658   1.104  14.704  2.1342  1.0907  0.0472
15529TIP3   OH268077   5.990   2.667  17.203  0.0365  0.0107  0.8588
15529TIP3    H168078   5.999   2.593  17.262  0.1912  0.0315  0.8597
15529TIP3    H268079   6.076   2.677  17.162 -0.6283 -1.3938 -1.0353
15530TIP3   OH268080   3.689   0.568  15.799  0.2758  0.6316  0.4946
15530TIP3    H168081   3.604   0.554  15.756 -0.3705  1.5900  1.4078
15530TIP3    H268082   3.742   0.493  15.772 -1.4564 -1.0033  1.3729
15531TIP3   OH268083   5.076   5.974   4.614 -0.3970 -0.1169  0.4190
15531TIP3    H168084   4.986   5.981   4.584 -0.6939  1.7621  1.5562
15531TIP3    H268085   5.083   6.037   4.686  2.8212  2.7550 -2.0635
15532TIP3   OH268086   2.422   3.996   4.163  0.1002 -0.5184  0.1698
15532TIP3    H168087   2.353   4.017   4.226  0.4211  0.0602  0.3410
15532TIP3    H268088   2.485   4.068   4.173  0.9620 -1.2833  0.3691
15533TIP3   OH268089   4.471   5.477   0.282  0.1816  0.5662 -0.0096
15533TIP3    H168090   4.387   5.521   0.293 -0.1864 -0.1420  0.1157
15533TIP3    H268091   4.459   5.392   0.327  0.7598  0.2193 -0.5038
15534TIP3   OH268092   5.086   2.621  13.206 -0.2897 -0.5532 -0.0627
15534TIP3    H168093   5.092   2.638  13.300  0.7753 -3.4499  0.4982
15534TIP3    H268094   5.047   2.534  13.200 -1.8707  0.2402 -2.4083
15535TIP3   OH268095   0.886   3.294  12.906 -0.5890 -0.2511  0.7684
15535TIP3    H168096   0.831   3.364  12.871  0.4263  0.4893  0.6002
15535TIP3    H268097   0.890   3.311  13.000  0.4662  0.5404  0.6031
15536TIP3   OH268098   4.870   1.994   1.711 -0.1476  0.2292 -0.0480
15536TIP3    H168099   4.817   1.981   1.632 -0.0949  1.8754 -0.3774
15536TIP3    H268100   4.810   2.031   1.775  0.6402  2.5792 -0.5774
15537TIP3   OH268101   0.881   4.808  13.167  0.2802  0.5951 -0.3546
15537TIP3    H168102   0.829   4.782  13.243  0.8610  2.0880  0.5812
15537TIP3    H268103   0.971   4.790  13.192  0.4253  0.3338 -1.0277
15538TIP3   OH268104   3.114   2.687   3.175  0.1285 -0.3906 -0.3740
15538TIP3    H168105   3.055   2.760   3.194 -1.0425 -0.9523 -1.6216
15538TIP3    H268106   3.148   2.706   3.088  0.9935 -0.5963 -0.0832
15539TIP3   OH268107   5.765   1.945  14.275 -0.4067  0.0308  0.4270
15539TIP3    H168108   5.681   1.899  14.270 -0.2166 -0.1809 -1.6334
15539TIP3    H268109   5.791   1.936  14.366 -2.1085 -0.8143  0.8828
15540TIP3   OH268110   3.083   1.677  14.306  0.9683 -0.4284 -0.0499
15540TIP3    H168111   3.066   1.761  14.348  1.7405 -0.8347  1.1147
15540TIP3    H268112   3.059   1.612  14.372  0.5442 -1.1311 -0.8748
15541TIP3   OH268113   3.151   5.802   5.281 -0.6999 -0.0091 -0.7927
15541TIP3    H168114   3.075   5.767   5.233 -1.5420  1.7152 -0.7702
15541TIP3    H268115   3.167   5.737   5.349 -3.4765  0.5295  0.5026
15542TIP3   OH268116   4.892   6.352   5.892  0.3869  0.2130  0.3241
15542TIP3    H168117   4.934   6.371   5.976  2.0504 -0.0340 -0.4088
15542TIP3    H268118   4.856   6.263   5.902 -0.4153  0.6086  1.1149
15543TIP3   OH268119   2.347   4.507  11.676 -0.5314  0.4139  0.2005
15543TIP3    H168120   2.260   4.524  11.712 -0.4766  1.8572 -0.3061
15543TIP3    H268121   2.356   4.412  11.680 -2.2521  0.2123 -0.0090
15544TIP3   OH268122   6.583   2.480  13.772 -0.5310  0.3908 -0.1144
15544TIP3    H168123   6.487   2.480  13.771 -0.6076 -1.4654  1.9555
15544TIP3    H268124   6.607   2.573  13.761 -2.4498  0.7367 -2.2840
15545TIP3   OH268125   3.601   2.938  12.872  0.3339  0.8008 -0.5115
15545TIP3    H168126   3.617   3.029  12.846 -2.7613  1.4960 -0.3996
15545TIP3    H268127   3.601   2.890  12.789  4.6308  0.2620 -0.3871
15546TIP3   OH268128   2.446   4.184   1.206  0.1959  0.0251  0.1020
15546TIP3    H168129   2.376   4.203   1.268  0.2695  1.1143 -0.1215
15546TIP3    H268130   2.521   4.162   1.261 -0.2907 -1.0580  0.3425
15547TIP3   OH268131   0.678   0.550   4.638 -0.2777  0.7809  0.4007
15547TIP3    H168132   0.679   0.524   4.546 -1.9326  1.0207  0.2913
15547TIP3    H268133   0.764   0.591   4.651  0.0056  0.7145 -1.0154
15548TIP3   OH268134   0.285   2.043  16.461  0.0130  1.0781  0.2940
15548TIP3    H168135   0.219   1.980  16.490 -0.3707  1.5398  0.4368
15548TIP3    H268136   0.365   2.015  16.504  0.5377 -1.0023 -1.8371
15549TIP3   OH268137   4.915   5.073   2.996 -0.2182  0.3673  0.7790
15549TIP3    H168138   4.857   5.139   2.958 -1.2325 -0.1551  1.3625
15549TIP3    H268139   4.932   5.104   3.085 -1.1114 -0.3669  1.2311
15550TIP3   OH268140   4.056   3.903  14.910 -0.5492  0.3790 -0.4474
15550TIP3    H168141   4.038   3.903  15.004  1.9899  0.2287  0.1083
15550TIP3    H268142   4.064   3.996  14.887  0.5217  0.3792 -0.1189
15551TIP3   OH268143   5.508   1.674   3.188 -0.2925 -0.4337  0.0069
15551TIP3    H168144   5.519   1.720   3.271  1.1145 -1.0395  0.1765
15551TIP3    H268145   5.506   1.743   3.122  0.0746 -0.0352  0.4069
15552TIP3   OH268146   3.025   4.981   2.623 -0.4897  0.2363  0.0330
15552TIP3    H168147   3.047   4.970   2.715  0.1643 -2.0854 -0.3356
15552TIP3    H268148   3.090   5.043   2.590  0.2276 -0.0695  0.8243
15553TIP3   OH268149   0.826   1.592  15.390 -0.5191 -0.1965  0.5541
15553TIP3    H168150   0.815   1.531  15.463 -4.1273  0.6568  0.9165
15553TIP3    H268151   0.755   1.655  15.401 -1.1750  0.0549 -3.6087
15554TIP3   OH268152   1.167   2.881   3.849 -0.5861 -0.1384  0.6550
15554TIP3    H168153   1.176   2.867   3.943 -1.2364  0.8517  0.8833
15554TIP3    H268154   1.089   2.936   3.841 -0.2221  0.2428 -0.4248
15555TIP3   OH268155   4.476   1.542  13.775 -0.0068  0.5130  0.1638
15555TIP3    H168156   4.564   1.569  13.749 -0.4081  0.7917 -0.9855
15555TIP3    H268157   4.481   1.447  13.783  0.5095  0.5728  0.5874
15556TIP3   OH268158   5.217   6.354   0.801  0.3298 -0.1332 -0.2944
15556TIP3    H168159   5.248   6.269   0.770 -0.0756  0.1458 -1.5065
15556TIP3    H268160   5.216   6.346   0.896 -1.9960 -2.3242 -0.3958
15557TIP3   OH268161   3.289   0.912   4.866 -0.0272  0.1148  0.7973
15557TIP3    H168162   3.277   0.925   4.960  0.2218 -0.9924  0.9965
15557TIP3    H268163   3.318   0.821   4.858  1.2743  0.5933 -0.2456
15558TIP3   OH268164   4.829   6.148  10.293  0.6544 -0.2193  0.0271
15558TIP3    H168165   4.806   6.122  10.383  0.1783  1.9402  0.5862
15558TIP3    H268166   4.767   6.101  10.238 -0.0122 -0.4611  0.9521
15559TIP3   OH268167   2.897   5.569  16.756 -0.2833 -0.6160 -0.3738
15559TIP3    H168168   2.877   5.476  16.746 -0.3039 -0.5796 -0.6723
15559TIP3    H268169   2.914   5.580  16.850  0.9118 -1.1569 -0.5038
15560TIP3   OH268170   6.536   6.781   3.742  0.1554 -0.4013 -0.8276
15560TIP3    H168171   6.544   6.850   3.676  1.8465 -0.3698 -0.6325
15560TIP3    H268172   6.442   6.770   3.754 -0.2049  2.2495 -0.4930
15561TIP3   OH268173   4.993   0.996   1.928  0.0700  0.2977 -0.4501
15561TIP3    H168174   5.069   0.945   1.957 -0.0370  0.1756 -0.3823
15561TIP3    H268175   5.029   1.059   1.866  0.5104  1.4106  0.8804
15562TIP3   OH268176   6.056   2.597  14.872 -0.2402  0.2104  0.1660
15562TIP3    H168177   6.149   2.611  14.851  0.3760 -0.2058  2.3901
15562TIP3    H268178   6.049   2.504  14.891 -0.8227  0.4720  1.2966
15563TIP3   OH268179   3.541   2.524   5.127 -0.9909  0.1209 -0.1626
15563TIP3    H168180   3.507   2.590   5.066  0.1269  1.1951  0.3435
15563TIP3    H268181   3.547   2.569   5.211  1.7867  0.0727 -0.2372
15564TIP3   OH268182   1.115   0.758  12.677  0.2447  0.5126 -0.1666
15564TIP3    H168183   1.065   0.751  12.596  1.2627  1.6773 -0.9288
15564TIP3    H268184   1.080   0.836  12.721  1.6454  1.6524 -0.9546
15565TIP3   OH268185   6.408   2.213  15.969  0.7700 -0.1997  0.0356
15565TIP3    H168186   6.449   2.299  15.970  2.0536 -0.7724 -0.2990
15565TIP3    H268187   6.482   2.152  15.975  0.0730 -1.2964 -1.6334
15566TIP3   OH268188   4.600   4.126   4.934  0.3003 -0.3180  0.4598
15566TIP3    H168189   4.540   4.069   4.981  1.1754 -1.7286 -0.0552
15566TIP3    H268190   4.676   4.134   4.991  0.2689  0.1722  0.4372
15567TIP3   OH268191   1.023   6.643   4.471  0.6584 -0.4957 -1.1799
15567TIP3    H168192   1.081   6.569   4.450 -0.0524 -1.3328 -0.2854
15567TIP3    H268193   1.081   6.720   4.467  1.2208 -0.9627 -3.0054
15568TIP3   OH268194   3.552   2.461  11.065 -0.2498  0.3843  0.4580
15568TIP3    H168195   3.611   2.440  10.992 -0.6171  0.5132  0.1185
15568TIP3    H268196   3.608   2.503  11.130 -0.3336  2.4468 -0.7355
15569TIP3   OH268197   2.104   1.051   4.596  0.6354  0.2572 -0.3278
15569TIP3    H168198   2.129   1.139   4.568 -0.2054  0.0669 -1.7969
15569TIP3    H268199   2.026   1.031   4.545 -0.1594 -0.7109  1.1985
15570TIP3   OH268200   1.473   2.743  14.066 -0.1570 -0.1517 -0.0471
15570TIP3    H168201   1.418   2.678  14.108  0.1761 -0.0833  0.5025
15570TIP3    H268202   1.556   2.739  14.113  0.2101 -0.0409 -0.6682
15571TIP3   OH268203   4.052   4.242   3.608 -0.7518  0.2817 -0.3491
15571TIP3    H168204   4.078   4.296   3.683 -0.0060 -0.3284 -0.1491
15571TIP3    H268205   4.084   4.290   3.531  0.9226 -0.3691 -0.1160
15572TIP3   OH268206   1.627   1.069   1.038 -0.2096  0.5805 -0.3393
15572TIP3    H168207   1.590   1.026   0.961  1.0992 -0.7891 -0.2354
15572TIP3    H268208   1.550   1.099   1.087 -1.1304 -0.4898 -1.0740
15573TIP3   OH268209   1.120   1.829   0.708  0.1077 -0.1770 -0.1571
15573TIP3    H168210   1.180   1.891   0.667 -0.7633  0.9451  0.1873
15573TIP3    H268211   1.053   1.812   0.641 -0.1412 -0.0323  0.0519
15574TIP3   OH268212   2.832   3.109  11.920  0.0747 -0.2173  0.3254
15574TIP3    H168213   2.851   3.194  11.959 -0.8841 -0.1326  0.6321
15574TIP3    H268214   2.841   3.123  11.825 -1.8678  0.7241  0.2326
15575TIP3   OH268215   5.230   5.767  11.072  0.4479  0.1298 -0.6575
15575TIP3    H168216   5.222   5.832  11.003 -1.3693 -0.1186 -0.7044
15575TIP3    H268217   5.196   5.810  11.150 -0.1653 -0.5417 -0.5469
15576TIP3   OH268218   0.335   3.522  15.643  0.0914 -0.4782  0.2741
15576TIP3    H168219   0.418   3.474  15.644  0.3639 -0.0298  1.7147
15576TIP3    H268220   0.320   3.546  15.734 -0.9679  0.5858 -0.1471
15577TIP3   OH268221   1.589   4.131  12.332  0.1262  0.1780 -0.3366
15577TIP3    H168222   1.507   4.180  12.333  0.0447  0.0357  0.5036
15577TIP3    H268223   1.640   4.167  12.405  1.4224  1.2700 -1.7222
15578TIP3   OH268224   5.665   2.189   5.988  0.4653  0.3095  0.0457
15578TIP3    H168225   5.650   2.272   5.941 -0.5375  0.6277  0.8937
15578TIP3    H268226   5.626   2.203   6.074  1.6471 -0.5215  0.7450
15579TIP3   OH268227   6.621   3.568   4.633  0.4290  0.2214  0.0475
15579TIP3    H168228   6.697   3.619   4.661  0.1607 -0.2881  1.8632
15579TIP3    H268229   6.546   3.618   4.664  0.0635  0.2243 -0.8421
15580TIP3   OH268230   1.476   2.958  13.624 -0.3005  0.6169 -0.2170
15580TIP3    H168231   1.503   2.906  13.699  0.4080 -0.8399 -1.4250
15580TIP3    H268232   1.380   2.952  13.623 -0.2186 -1.1036 -0.5892
15581TIP3   OH268233   4.116   3.350   3.530  0.5566  0.4085 -0.1839
15581TIP3    H168234   4.093   3.370   3.440 -0.3184 -1.2165 -0.3555
15581TIP3    H268235   4.068   3.269   3.550  3.1607 -1.0415  0.6976
15582TIP3   OH268236   5.351   1.760  11.308 -0.2587  0.1139 -0.5121
15582TIP3    H168237   5.313   1.848  11.298  1.7634  1.1430  0.3149
15582TIP3    H268238   5.364   1.730  11.218  0.6944  1.4631 -0.8583
15583TIP3   OH268239   5.040   4.177   1.012  0.0658  0.4814 -0.0481
15583TIP3    H168240   4.964   4.165   1.068 -0.6207  0.5785 -0.9328
15583TIP3    H268241   5.005   4.221   0.934  0.9770  0.2856 -0.5776
15584TIP3   OH268242   4.440   2.416  15.601  0.2966 -0.3297 -0.6687
15584TIP3    H168243   4.393   2.490  15.637  1.1594 -0.0053 -0.1927
15584TIP3    H268244   4.495   2.453  15.532 -0.6090 -0.8013 -1.6801
15585TIP3   OH268245   1.035   3.321  14.871  0.0018  0.0678  0.1133
15585TIP3    H168246   1.123   3.324  14.908  0.1041 -0.2398 -0.1082
15585TIP3    H268247   0.999   3.408  14.888  0.2580  0.1114  0.4255
15586TIP3   OH268248   0.400   3.794  12.596  0.1502 -0.3558  0.3996
15586TIP3    H168249   0.351   3.826  12.521  0.7846 -2.1477 -0.8569
15586TIP3    H268250   0.336   3.744  12.647 -0.9050  2.8025  2.4992
15587TIP3   OH268251   4.226   0.568  11.565 -0.0875 -0.1580 -0.1244
15587TIP3    H168252   4.184   0.503  11.507 -0.7715 -0.3456  0.5592
15587TIP3    H268253   4.162   0.582  11.635 -0.3879  2.0042 -0.7659
15588TIP3   OH268254   4.986   0.399  16.415 -0.6171  0.2351  0.3701
15588TIP3    H168255   4.997   0.457  16.489 -0.5321  0.3431  0.2727
15588TIP3    H268256   4.930   0.448  16.354 -0.4074  0.2836  0.2148
15589TIP3   OH268257   2.496   5.036  13.245 -0.5508  0.1863  0.2914
15589TIP3    H168258   2.421   4.984  13.273 -0.4207 -0.4395 -0.4795
15589TIP3    H268259   2.560   5.025  13.315 -0.7772 -0.1382  0.4509
15590TIP3   OH268260   6.320   6.797  12.344 -0.6129 -0.2572 -0.2821
15590TIP3    H168261   6.326   6.703  12.363 -0.3833  0.1606  2.1055
15590TIP3    H268262   6.228   6.819  12.358 -0.3108  0.1918  1.2400
15591TIP3   OH268263   4.904   4.326  13.141 -1.1354 -0.0658 -0.2021
15591TIP3    H168264   4.902   4.369  13.055  0.5303 -1.0158 -0.7735
15591TIP3    H268265   4.819   4.345  13.179 -1.0031  2.5625 -0.9687
15592TIP3   OH268266   0.426   3.785   2.020  0.2209 -0.1657  0.3213
15592TIP3    H168267   0.396   3.850   1.957  1.2642 -0.0838 -0.1132
15592TIP3    H268268   0.397   3.819   2.105  0.7560  0.8731  0.1049
15593TIP3   OH268269   5.414   3.886   3.497  0.2983  0.5991  0.2526
15593TIP3    H168270   5.384   3.924   3.415 -0.1171  1.1206  0.6411
15593TIP3    H268271   5.456   3.958   3.544  0.8298  0.2289  0.3598
15594TIP3   OH268272   5.599   5.138   3.440 -0.7112  0.5149 -0.3236
15594TIP3    H168273   5.621   5.212   3.496 -0.7350 -1.6974  2.8963
15594TIP3    H268274   5.505   5.126   3.453 -0.5282 -0.6544  0.0345
15595TIP3   OH268275   4.011   2.092  10.963 -0.1510  0.3778  0.0211
15595TIP3    H168276   4.067   2.042  10.904 -0.7306  0.4770 -0.6179
15595TIP3    H268277   4.022   2.183  10.937  1.5110  0.7245  1.6854
15596TIP3   OH268278   3.388   0.844   0.751 -0.0377  0.3499  0.2959
15596TIP3    H168279   3.386   0.896   0.672 -2.6151  1.5372  1.0156
15596TIP3    H268280   3.323   0.775   0.736 -0.2791  0.3594  1.1876
15597TIP3   OH268281   2.607   3.445  11.127  1.0092 -0.1199  0.3976
15597TIP3    H168282   2.514   3.461  11.144  0.3753 -1.1649 -1.6696
15597TIP3    H268283   2.651   3.522  11.162 -0.4218 -0.3501  2.9248
15598TIP3   OH268284   5.398   0.414  14.273 -0.1581 -0.6664 -0.2685
15598TIP3    H168285   5.384   0.436  14.365  0.1274 -1.1241 -0.1156
15598TIP3    H268286   5.422   0.321  14.273  3.5451  0.1344 -0.4273
15599TIP3   OH268287   4.488   1.289  14.138  0.0537 -0.1215  0.3862
15599TIP3    H168288   4.454   1.225  14.200 -0.3271  0.3393  0.6633
15599TIP3    H268289   4.424   1.360  14.140  0.0568 -0.0879 -0.5128
15600TIP3   OH268290   2.005   1.318  15.024 -0.2095  0.1110 -0.4553
15600TIP3    H168291   1.960   1.391  15.065 -0.0355 -0.3813  0.6503
15600TIP3    H268292   2.098   1.336  15.039 -0.1850 -0.7634  0.6539
15601TIP3   OH268293   4.744   4.602  14.202 -0.4817 -0.1620 -0.6710
15601TIP3    H168294   4.671   4.541  14.192 -0.1035 -0.4948 -1.4516
15601TIP3    H268295   4.822   4.549  14.187 -0.1744  0.6631 -2.1774
15602TIP3   OH268296   2.607   2.202  16.617 -0.3288  0.4975  0.3471
15602TIP3    H168297   2.678   2.219  16.556  0.8226 -0.4149  1.3743
15602TIP3    H268298   2.650   2.166  16.695 -1.7348  1.5396  1.6786
15603TIP3   OH268299   4.751   2.789   0.546 -0.4453 -0.0523  0.3864
15603TIP3    H168300   4.729   2.729   0.617  1.1001 -1.0701  0.0546
15603TIP3    H268301   4.738   2.738   0.466 -0.1474  0.4130  0.0342
15604TIP3   OH268302   1.760   6.406   0.789  0.6213  0.2536  0.1367
15604TIP3    H168303   1.726   6.344   0.725  0.6192  0.7034 -0.3031
15604TIP3    H268304   1.698   6.479   0.787 -1.4079 -1.1725  3.1756
15605TIP3   OH268305   3.645   2.202   4.795  0.0432  0.0657 -0.0263
15605TIP3    H168306   3.586   2.245   4.733 -1.2055 -1.4370  0.0508
15605TIP3    H268307   3.676   2.272   4.851 -2.1823  0.8578  0.3160
15606TIP3   OH268308   2.511   2.433  13.630  0.9065  0.0004 -0.1451
15606TIP3    H168309   2.514   2.529  13.623  0.2560  0.0556  0.2307
15606TIP3    H268310   2.602   2.407  13.646  1.0320  0.5900  0.1267
15607TIP3   OH268311   0.014   2.438   2.636 -0.4746 -0.4928 -0.0430
15607TIP3    H168312  -0.041   2.484   2.698 -0.8639 -0.3286 -0.5017
15607TIP3    H268313  -0.007   2.477   2.551  0.3766 -0.4030 -0.2196
15608TIP3   OH268314   5.038   2.303  14.896  0.5904 -0.5723  0.7138
15608TIP3    H168315   5.104   2.239  14.923  1.2228  0.3059  1.3279
15608TIP3    H268316   5.010   2.274  14.809 -0.4609 -2.6838  1.7076
15609TIP3   OH268317   5.956   0.423  13.522  0.3267 -0.3690 -0.7288
15609TIP3    H168318   6.018   0.358  13.489  0.3817  0.0899 -1.5604
15609TIP3    H268319   5.944   0.483  13.449  2.6304  2.3387  0.9071
15610TIP3   OH268320   6.747   3.989   2.598  0.2465 -0.4291  0.0549
15610TIP3    H168321   6.768   4.071   2.554 -0.1097 -0.7623 -0.7611
15610TIP3    H268322   6.662   3.963   2.562 -0.4959 -0.2679  1.5963
15611TIP3   OH268323   6.095   2.449  12.510 -0.4098 -0.4838  0.1344
15611TIP3    H168324   6.096   2.541  12.538 -0.0237 -0.8332  1.2951
15611TIP3    H268325   6.047   2.451  12.427 -1.7548  0.5617  0.8878
15612TIP3   OH268326   4.773   1.840  13.643 -0.0380  0.1498 -0.0038
15612TIP3    H168327   4.842   1.895  13.679  0.2537 -0.6604  0.7110
15612TIP3    H268328   4.695   1.865  13.692 -0.3498  1.2801 -1.0190
15613TIP3   OH268329   4.479   5.446  14.160 -0.1284  0.2757  0.0914
15613TIP3    H168330   4.499   5.494  14.081 -1.7235 -0.4523 -0.8067
15613TIP3    H268331   4.555   5.388  14.173 -0.6001 -0.8935 -1.9532
15614TIP3   OH268332   3.198   0.467  10.778  1.0610  0.3401 -0.6922
15614TIP3    H168333   3.210   0.411  10.702  1.7254  0.4992 -0.7112
15614TIP3    H268334   3.159   0.547  10.743  0.1684 -0.0797 -0.6734
15615TIP3   OH268335   2.585   3.804   4.013  0.7889  0.4250 -0.0483
15615TIP3    H168336   2.543   3.839   4.091 -0.2757 -0.9751  0.0472
15615TIP3    H268337   2.513   3.778   3.956  1.5319  1.8159 -1.7216
15616TIP3   OH268338   0.244   4.094   6.448  0.2067 -0.5337  0.3119
15616TIP3    H168339   0.294   4.160   6.496 -1.1103  0.8270 -0.1141
15616TIP3    H268340   0.254   4.014   6.499  0.6996  0.3317  1.6077
15617TIP3   OH268341   4.445   6.166  16.648 -0.4649 -0.2584 -0.4257
15617TIP3    H168342   4.491   6.237  16.692 -0.8015 -0.5384  0.3965
15617TIP3    H268343   4.400   6.209  16.575 -0.0576  0.2453 -0.3906
15618TIP3   OH268344   5.532   2.742  12.133 -0.3385 -0.0019 -0.3105
15618TIP3    H168345   5.449   2.737  12.181 -0.1041  0.3765  0.1455
15618TIP3    H268346   5.569   2.654  12.140 -0.7470 -0.2024 -0.6096
15619TIP3   OH268347   6.565   5.427   3.007 -0.0386 -0.4788 -0.4053
15619TIP3    H168348   6.632   5.453   2.944 -0.5075 -0.4493 -0.9057
15619TIP3    H268349   6.585   5.475   3.087 -1.2639  1.9699 -1.4817
15620TIP3   OH268350   5.858   2.153  12.016  0.3258 -0.0974 -0.6452
15620TIP3    H168351   5.928   2.146  11.951 -0.2530  0.4118 -1.3444
15620TIP3    H268352   5.904   2.157  12.100  1.0845 -0.7879 -1.0095
15621TIP3   OH268353   5.808   2.401   1.467  0.2057  0.0913  0.2086
15621TIP3    H168354   5.715   2.414   1.481  0.4791  0.8560  1.4109
15621TIP3    H268355   5.836   2.477   1.415  0.4871  0.7997  1.3714
15622TIP3   OH268356   2.697   4.746   2.722 -0.7400  0.3627  0.6542
15622TIP3    H168357   2.604   4.728   2.710 -0.6614  0.4969 -0.2019
15622TIP3    H268358   2.717   4.816   2.660  0.1454 -0.3462  0.1085
15623TIP3   OH268359   1.831   1.313   3.535  0.3402  0.1522  0.0392
15623TIP3    H168360   1.783   1.368   3.598 -0.2010 -0.6666  0.3558
15623TIP3    H268361   1.880   1.252   3.589  1.1275  0.4715 -0.3084
15624TIP3   OH268362   6.583   3.053  16.925 -0.1315  0.1208 -0.3987
15624TIP3    H168363   6.639   3.122  16.890 -1.2952  2.4888  2.0258
15624TIP3    H268364   6.495   3.091  16.926 -1.2432 -2.2252 -0.9437
15625TIP3   OH268365   0.176   2.211  16.699 -0.2866 -0.2524 -0.2560
15625TIP3    H168366   0.086   2.239  16.714 -0.3605 -0.5454 -0.1508
15625TIP3    H268367   0.170   2.148  16.627  0.0274  0.9178 -1.3651
15626TIP3   OH268368   0.924   4.583  12.970 -0.1907  0.7642  0.1975
15626TIP3    H168369   0.915   4.665  13.020 -0.7038  0.9918 -0.2667
15626TIP3    H268370   0.835   4.557  12.950 -0.1776 -1.0678  2.1759
15627TIP3   OH268371   4.129   4.279  13.907  0.9876  0.0815 -0.1581
15627TIP3    H168372   4.056   4.254  13.964  1.5377 -0.6925  0.2320
15627TIP3    H268373   4.128   4.375  13.907  0.1963  0.0824  0.1278
15628TIP3   OH268374   0.953   0.971   0.756 -0.1625 -0.2085  0.0068
15628TIP3    H168375   1.026   0.964   0.817 -1.9967  0.4360  2.4078
15628TIP3    H268376   0.988   1.020   0.682  1.9639 -0.4269  0.7977
15629TIP3   OH268377   5.431   6.071  11.943 -0.5960 -0.0203 -0.0347
15629TIP3    H168378   5.360   6.010  11.926 -1.1403  0.9891 -1.5427
15629TIP3    H268379   5.450   6.060  12.036 -1.6303 -1.4440  0.0387
15630TIP3   OH268380   0.091   3.732  15.962  0.1527  0.2501 -0.2713
15630TIP3    H168381   0.172   3.695  15.925 -0.1148 -0.0977 -0.5125
15630TIP3    H268382   0.115   3.822  15.985  0.3367  0.4613 -1.2479
15631TIP3   OH268383   4.960   6.233  15.665 -0.2968  0.0399  0.1784
15631TIP3    H168384   5.053   6.246  15.679  0.0268  0.5431 -2.0937
15631TIP3    H268385   4.921   6.243  15.752  1.6735  0.4568  1.0635
15632TIP3   OH268386   1.289   4.533   5.482  0.1971 -0.3630 -0.1236
15632TIP3    H168387   1.379   4.559   5.501  0.4599 -2.2640  1.5660
15632TIP3    H268388   1.273   4.457   5.538 -2.7952  0.4774  0.3754
15633TIP3   OH268389   0.487   5.125  16.731 -0.0396 -0.7352 -0.3694
15633TIP3    H168390   0.469   5.143  16.823 -1.5343 -0.2868 -0.7098
15633TIP3    H268391   0.545   5.049  16.731  0.1188 -0.6224  0.9451
15634TIP3   OH268392   2.633   6.798  15.238  0.3097 -0.4400 -0.1761
15634TIP3    H168393   2.573   6.872  15.232  1.1054  0.3664  1.3893
15634TIP3    H268394   2.584   6.731  15.286  0.6697  0.2698  1.2289
15635TIP3   OH268395   0.224   0.321   2.964  0.3857  0.3827 -0.3069
15635TIP3    H168396   0.193   0.246   2.912 -0.6062  0.3993  0.2407
15635TIP3    H268397   0.280   0.370   2.904  0.5558 -0.4633 -0.8638
15636TIP3   OH268398   3.418   0.477   3.643  0.0878  0.4130 -0.0588
15636TIP3    H168399   3.416   0.404   3.581  0.4017 -0.1253  0.5501
15636TIP3    H268400   3.358   0.450   3.713  1.0773  0.2124  0.7331
15637TIP3   OH268401   5.589   3.933   1.492 -0.3332  0.1607 -0.3802
15637TIP3    H168402   5.503   3.967   1.471 -0.8670  0.0877  1.5671
15637TIP3    H268403   5.577   3.838   1.496 -0.5191  0.2285  1.2584
15638TIP3   OH268404   1.104   4.182   5.895 -0.0248  0.0199  0.1535
15638TIP3    H168405   1.106   4.087   5.879  2.8454  0.0809 -0.5427
15638TIP3    H268406   1.112   4.191   5.990  0.9484 -0.4890  0.1384
15639TIP3   OH268407   1.956   2.671   2.675  0.4286  0.0624  0.0850
15639TIP3    H168408   2.007   2.689   2.754 -0.6345  0.9626  0.5842
15639TIP3    H268409   1.866   2.662   2.705  0.2036 -1.0380 -0.8504
15640TIP3   OH268410   6.644   4.258  15.832 -0.1716 -0.2539 -0.6644
15640TIP3    H168411   6.602   4.188  15.782  1.4415 -2.0164  0.2900
15640TIP3    H268412   6.642   4.227  15.922  0.1932  1.1710 -0.1425
15641TIP3   OH268413   2.750   5.768  11.286 -0.1037  0.6730  0.3592
15641TIP3    H168414   2.698   5.702  11.333 -0.3164 -0.1394 -0.9837
15641TIP3    H268415   2.837   5.763  11.326  0.7517 -2.5412 -1.5826
15642TIP3   OH268416   5.734   3.658   2.961  0.2576  0.0565  0.0669
15642TIP3    H168417   5.800   3.695   3.020  0.0578 -2.1507  1.8341
15642TIP3    H268418   5.655   3.652   3.013  0.3108 -2.8121  0.0061
15643TIP3   OH268419   0.807   5.059   2.709  0.5973 -0.0151 -0.4797
15643TIP3    H168420   0.737   5.124   2.703 -0.6142 -1.3841 -1.8476
15643TIP3    H268421   0.877   5.104   2.756 -0.7254  1.8016 -0.1424
15644TIP3   OH268422   3.957   3.819   0.088  0.1900  0.4658  0.4307
15644TIP3    H168423   3.956   3.821  -0.008  1.2279  2.1584  0.4160
15644TIP3    H268424   4.048   3.802   0.110  0.0308  0.5135  1.1259
15645TIP3   OH268425   2.417   6.698  12.222  0.1460 -0.2716  0.8016
15645TIP3    H168426   2.401   6.642  12.146  1.8165 -0.4522  0.5480
15645TIP3    H268427   2.382   6.783  12.196  1.2845 -0.1504 -0.4787
15646TIP3   OH268428   6.598   4.952   1.218  0.3851  0.1153  0.4719
15646TIP3    H168429   6.543   4.883   1.180  1.2081 -1.0043  1.2479
15646TIP3    H268430   6.612   5.013   1.146 -0.1376 -0.6691 -0.3196
15647TIP3   OH268431   0.252   2.157  16.033  0.1931  0.3422 -0.1587
15647TIP3    H168432   0.317   2.089  16.052  1.0667  1.0377 -0.6051
15647TIP3    H268433   0.200   2.163  16.113 -0.6727 -1.6787 -0.5124
15648TIP3   OH268434   0.372   4.323   6.274  0.4198  0.2599  0.2023
15648TIP3    H168435   0.428   4.396   6.248 -0.9061  1.1933 -0.0984
15648TIP3    H268436   0.350   4.339   6.365  1.3934 -0.6237  0.6162
15649TIP3   OH268437   2.787   3.352   4.257 -0.1507  0.3579 -0.3025
15649TIP3    H168438   2.758   3.443   4.250  1.2918  0.7379 -1.8016
15649TIP3    H268439   2.727   3.313   4.321 -1.5512  2.0400 -0.5221
15650TIP3   OH268440   2.974   2.690   5.641  0.0939  0.0471 -0.2970
15650TIP3    H168441   2.921   2.612   5.653 -0.9344  0.2358 -2.8354
15650TIP3    H268442   2.917   2.750   5.592  2.4043  0.4696 -2.7080
15651TIP3   OH268443   0.293   5.833  15.628  0.3795  0.1115  0.0944
15651TIP3    H168444   0.353   5.820  15.702  0.2621 -0.5833  0.0752
15651TIP3    H268445   0.274   5.927  15.629 -0.3290 -0.0122  1.5199
15652TIP3   OH268446   6.306   6.743  13.768 -0.7622 -0.0312  0.4335
15652TIP3    H168447   6.348   6.828  13.772  1.7446 -1.2172  2.0155
15652TIP3    H268448   6.375   6.683  13.740 -2.1033 -1.7300  0.5351
15653TIP3   OH268449   3.008   3.207   3.436 -0.1276  0.6929  0.1890
15653TIP3    H168450   2.981   3.227   3.525  1.7239  2.4102  0.4453
15653TIP3    H268451   2.992   3.288   3.387 -0.3258  0.0480 -0.8604
15654TIP3   OH268452   0.881   6.155  14.064  0.5435 -0.0737 -0.2743
15654TIP3    H168453   0.942   6.102  14.013  0.6229  1.7229 -2.2479
15654TIP3    H268454   0.936   6.225  14.101  0.1083 -0.0620  0.3580
15655TIP3   OH268455   1.108   2.675  11.278 -0.3747 -0.2362 -0.0756
15655TIP3    H168456   1.147   2.631  11.353 -2.3438 -1.9844  0.0173
15655TIP3    H268457   1.052   2.742  11.316  1.3316  1.3407 -0.1734
15656TIP3   OH268458   3.606   6.790   4.121  0.6538 -0.2153  0.1461
15656TIP3    H168459   3.539   6.761   4.183  0.2576 -0.1416 -0.2352
15656TIP3    H268460   3.576   6.756   4.037  1.9156 -1.5299  0.2003
15657TIP3   OH268461   6.028   2.846  14.980  0.2650  0.2557  0.7291
15657TIP3    H168462   6.048   2.768  14.928  1.5657  0.8740  0.2674
15657TIP3    H268463   6.092   2.911  14.951  0.2442  0.9953  2.2662
15658TIP3   OH268464   2.116   5.719   3.667  0.0113  0.1978 -0.1216
15658TIP3    H168465   2.072   5.763   3.595 -0.2229  0.5343  0.2175
15658TIP3    H268466   2.058   5.733   3.742  1.4006  1.9969  0.7150
15659TIP3   OH268467   0.005   0.184   3.996  0.4281 -0.3215 -0.6795
15659TIP3    H168468  -0.075   0.198   4.047  0.4397  1.8174 -1.1405
15659TIP3    H268469   0.069   0.152   4.060 -0.6343 -1.6221 -0.2179
15660TIP3   OH268470   3.100   3.223   2.548  0.2432 -0.0341 -0.0756
15660TIP3    H168471   3.084   3.138   2.506  0.9984  0.0009 -0.4569
15660TIP3    H268472   3.104   3.204   2.641 -1.0773 -0.1754 -0.0372
15661TIP3   OH268473   5.758   0.965  14.190  0.1699  0.7942  1.2075
15661TIP3    H168474   5.730   1.042  14.239 -0.6848 -0.3700  2.6459
15661TIP3    H268475   5.687   0.947  14.129  0.4865  1.2979  0.6936
15662TIP3   OH268476   2.341   3.251  15.145 -0.4752 -0.0842  0.1386
15662TIP3    H168477   2.424   3.203  15.139  1.3192  2.8870 -1.3851
15662TIP3    H268478   2.345   3.296  15.229 -0.9843 -0.5705  0.4349
15663TIP3   OH268479   6.106   3.339   0.509  0.4454 -0.4639 -0.4151
15663TIP3    H168480   6.192   3.357   0.546  0.6711 -0.1283 -1.0764
15663TIP3    H268481   6.072   3.425   0.483 -1.8774  0.0427  3.4634
15664TIP3   OH268482   6.525   1.227  11.959  0.1065 -0.1119  0.1325
15664TIP3    H168483   6.478   1.155  12.000 -0.3955  0.1255 -0.0051
15664TIP3    H268484   6.503   1.220  11.866 -0.8774  0.8719  0.2660
15665TIP3   OH268485   6.388   6.224   0.140  0.2237  0.1049 -0.1936
15665TIP3    H168486   6.319   6.207   0.076  0.5581 -0.5956 -0.3694
15665TIP3    H268487   6.340   6.254   0.218 -0.1665  1.2268 -0.8423
15666TIP3   OH268488   0.082   1.294   1.401 -0.2281  0.0786  0.6734
15666TIP3    H168489   0.064   1.348   1.479 -0.7961  0.1297  0.5095
15666TIP3    H268490   0.172   1.318   1.376 -1.0191  2.2287 -0.3981
15667TIP3   OH268491   5.614   4.965   4.117  0.1142  0.5578  0.1789
15667TIP3    H168492   5.670   4.887   4.108  0.3266  0.7141  0.1514
15667TIP3    H268493   5.526   4.929   4.125  0.2315  0.3046  0.3552
15668TIP3   OH268494   2.042   1.627  15.919  0.0054 -0.3736 -0.0153
15668TIP3    H168495   2.065   1.568  15.991  0.8089  1.3533  1.1908
15668TIP3    H268496   2.059   1.575  15.840  1.8822 -1.3597  0.9697
15669TIP3   OH268497   0.579   6.200   0.686  0.8000 -0.5627  0.4278
15669TIP3    H168498   0.546   6.284   0.654 -2.2840 -2.1057 -0.8852
15669TIP3    H268499   0.612   6.219   0.773  1.1625  2.1797 -0.2045
15670TIP3   OH268500   4.945   6.699  10.863 -0.3673  0.2393  0.1032
15670TIP3    H168501   4.869   6.675  10.916 -0.3521 -1.5830 -0.6629
15670TIP3    H268502   4.908   6.728  10.779 -0.2277 -0.4581 -0.2003
15671TIP3   OH268503   6.597   3.806   2.394 -0.1136  0.4462  0.6843
15671TIP3    H168504   6.534   3.844   2.454 -0.7790  0.6470 -0.1282
15671TIP3    H268505   6.575   3.713   2.391 -1.5352  0.7827 -0.9289
15672TIP3   OH268506   4.845   2.895  11.888  0.1365 -0.3419  0.1640
15672TIP3    H168507   4.771   2.838  11.908 -1.0804  1.2130  0.2972
15672TIP3    H268508   4.878   2.864  11.803 -0.7774 -0.9476  0.0230
15673TIP3   OH268509   2.224   3.264  15.742  0.5406 -0.1319  0.1747
15673TIP3    H168510   2.252   3.354  15.724 -0.5019 -0.0286 -0.9910
15673TIP3    H268511   2.263   3.245  15.828  2.3005  0.7805 -0.3653
15674TIP3   OH268512   1.887   2.617  12.740  0.0670  0.1122 -0.5355
15674TIP3    H168513   1.972   2.623  12.696 -0.4266 -1.1596 -1.7340
15674TIP3    H268514   1.836   2.690  12.704  0.1664 -0.0160 -0.9434
15675TIP3   OH268515   3.548   6.363  13.233 -0.1337  0.1524  0.5117
15675TIP3    H168516   3.590   6.282  13.262 -1.0563 -0.8048 -0.7265
15675TIP3    H268517   3.590   6.383  13.149  0.3964  1.2248  1.0078
15676TIP3   OH268518   0.743   1.525   2.198 -0.3135 -0.3582  0.9191
15676TIP3    H168519   0.659   1.570   2.205  1.1186  2.3791  1.6696
15676TIP3    H268520   0.777   1.525   2.288  2.0466  1.9397  0.1457
15677TIP3   OH268521   1.288   4.903   0.555  0.1845 -0.9208  0.0589
15677TIP3    H168522   1.267   4.924   0.646  1.7321 -0.9362  0.4518
15677TIP3    H268523   1.204   4.878   0.516 -1.2959  2.9166  0.3763
15678TIP3   OH268524   1.935   3.669  14.615 -0.1979  0.1655 -0.4015
15678TIP3    H168525   1.950   3.636  14.704  0.7427 -1.3587 -1.0909
15678TIP3    H268526   1.983   3.752  14.613  0.1485  0.0024  0.3882
15679TIP3   OH268527   5.099   3.593  13.982  0.4491  0.1191 -0.4917
15679TIP3    H168528   5.135   3.662  13.927  1.9478 -0.5840 -0.4459
15679TIP3    H268529   5.174   3.559  14.031  0.2988 -3.1614 -2.2463
15680TIP3   OH268530   6.282   4.847  14.080  0.1850  0.1148  0.3470
15680TIP3    H168531   6.251   4.924  14.127 -1.9236 -0.7520  0.4835
15680TIP3    H268532   6.294   4.877  13.990 -1.7208  0.3649  0.1490
15681TIP3   OH268533   1.097   1.899   3.715 -0.1240 -0.1554 -0.0486
15681TIP3    H168534   1.165   1.960   3.744 -0.5293  1.9482 -3.0663
15681TIP3    H268535   1.145   1.833   3.665  0.0066 -0.8095  0.8972
15682TIP3   OH268536   3.310   4.885  16.974 -0.0257 -0.3795  0.0658
15682TIP3    H168537   3.218   4.895  16.998 -0.6131 -2.4640 -1.0895
15682TIP3    H268538   3.311   4.884  16.879  1.2419 -0.1377  0.0560
15683TIP3   OH268539   2.307   2.469  11.887 -0.4353  0.3255 -0.3768
15683TIP3    H168540   2.376   2.535  11.877 -0.1728  0.1400  0.1949
15683TIP3    H268541   2.237   2.499  11.830 -1.1213  2.1750  1.3215
15684TIP3   OH268542   1.113   5.194  16.802 -0.3129  0.3400  0.1671
15684TIP3    H168543   1.174   5.136  16.757  0.9522  2.2942 -0.7842
15684TIP3    H268544   1.031   5.184  16.754 -0.0601 -0.4892 -0.1129
15685TIP3   OH268545   2.125   5.893  13.181  0.3660 -0.3879  0.5630
15685TIP3    H168546   2.100   5.983  13.203  0.9411  0.1458 -0.8596
15685TIP3    H268547   2.042   5.851  13.158  0.4088  0.7815 -2.0882
15686TIP3   OH268548   0.399   5.819  13.494 -0.3219 -0.3576  0.5637
15686TIP3    H168549   0.410   5.824  13.589 -0.3924 -0.0256  0.5543
15686TIP3    H268550   0.395   5.910  13.466 -0.1498 -0.4555  0.2243
15687TIP3   OH268551   6.378   6.075   1.157 -0.4298 -0.2457 -0.4925
15687TIP3    H168552   6.399   6.096   1.248 -1.6592 -0.4683 -0.1397
15687TIP3    H268553   6.442   6.123   1.106 -0.9921  1.5459  0.4119
15688TIP3   OH268554   4.731   5.102  14.029  0.2989 -0.4417  0.3938
15688TIP3    H168555   4.693   5.073  14.112  2.0620 -0.0575  1.3852
15688TIP3    H268556   4.783   5.179  14.051 -0.0755  0.3475 -1.2874
15689TIP3   OH268557   5.421   4.683  15.606 -0.1035 -0.5062 -0.4125
15689TIP3    H168558   5.435   4.756  15.666 -1.5463 -2.3611  2.4287
15689TIP3    H268559   5.348   4.711  15.550 -0.1638  0.4835  0.1366
15690TIP3   OH268560   1.956   3.755  15.070 -0.0398  0.1540  1.0021
15690TIP3    H168561   1.867   3.772  15.039  0.3886 -0.4521 -0.6885
15690TIP3    H268562   1.960   3.660  15.082  0.9313 -0.1032 -0.9382
15691TIP3   OH268563   0.877   0.073   3.022 -0.1247  0.1625  0.0786
15691TIP3    H168564   0.957   0.030   3.050 -0.3632 -1.7959 -1.9997
15691TIP3    H268565   0.896   0.167   3.030  3.1237 -0.1445 -2.1211
15692TIP3   OH268566   1.692   2.541  15.776 -0.2161  0.1647 -0.6488
15692TIP3    H168567   1.640   2.503  15.847  0.3925 -0.6544 -0.6270
15692TIP3    H268568   1.779   2.501  15.785  0.8248  2.4244  0.0797
15693TIP3   OH268569   0.941   5.684   4.611  0.0265  0.4759  0.2074
15693TIP3    H168570   0.998   5.737   4.556  0.1801 -0.2312 -0.3374
15693TIP3    H268571   0.917   5.741   4.683  2.3731  0.4269  1.1094
15694TIP3   OH268572   6.168   2.302  15.887 -0.2343  0.6351 -0.6492
15694TIP3    H168573   6.192   2.323  15.797  0.6326 -2.1485 -1.1814
15694TIP3    H268574   6.250   2.271  15.926 -1.4839 -2.9403 -0.5101
15695TIP3   OH268575   0.608   1.910   2.184 -0.0790  0.0058  0.3944
15695TIP3    H168576   0.560   1.967   2.244  0.0432  0.0835  0.4197
15695TIP3    H268577   0.700   1.934   2.198  0.1118 -1.2425  1.5104
15696TIP3   OH268578   4.801   5.119  11.567  0.4809 -0.0653  0.2350
15696TIP3    H168579   4.779   5.033  11.603  0.9151  0.4221  1.7312
15696TIP3    H268580   4.813   5.103  11.473 -0.0973 -1.4995  0.3723
15697TIP3   OH268581   4.092   0.218   4.780 -0.2683  0.3827  0.0663
15697TIP3    H168582   4.126   0.280   4.844  1.3985 -1.0825  0.6832
15697TIP3    H268583   4.027   0.167   4.828  0.9435 -0.6807  0.6446
15698TIP3   OH268584   3.864   6.323   4.352 -0.2391 -0.1344 -0.1610
15698TIP3    H168585   3.792   6.319   4.289  1.3933 -1.9616 -2.0458
15698TIP3    H268586   3.882   6.416   4.362 -1.2336  0.2411 -1.5809
15699TIP3   OH268587   3.050   5.359  12.339  0.8154 -0.2258  0.1796
15699TIP3    H168588   3.056   5.373  12.244 -0.5515 -0.9489 -0.0532
15699TIP3    H268589   3.026   5.266  12.347  1.2777 -0.2623  1.2491
15700TIP3   OH268590   5.865   1.308   2.419 -0.1750 -0.2247 -0.3546
15700TIP3    H168591   5.927   1.259   2.473 -1.4069 -1.1796  0.2405
15700TIP3    H268592   5.820   1.242   2.367 -0.3539  0.4987 -1.1379
15701TIP3   OH268593   6.516   2.023  14.326  0.0651 -0.0115 -0.1173
15701TIP3    H168594   6.486   1.940  14.364  0.5892 -0.2185 -0.1515
15701TIP3    H268595   6.610   2.011  14.315 -0.1711 -0.2518 -2.1797
15702TIP3   OH268596   1.296   3.677  14.449 -0.3970  0.7733 -0.1278
15702TIP3    H168597   1.390   3.662  14.461 -0.7270  0.1374  2.2624
15702TIP3    H268598   1.275   3.635  14.366  0.9318 -1.6985  0.6943
15703TIP3   OH268599   2.008   2.400   0.888  1.2086  0.1232 -0.2320
15703TIP3    H168600   2.035   2.332   0.826  0.2458 -1.0925  0.6134
15703TIP3    H268601   2.065   2.474   0.869  3.7386 -1.5902  0.1083
15704TIP3   OH268602   3.153   2.204  13.941 -0.1879 -0.2424  0.2734
15704TIP3    H168603   3.208   2.272  13.981  0.4552 -0.0907 -0.8136
15704TIP3    H268604   3.210   2.127  13.937  0.5431  0.3474 -2.2758
15705TIP3   OH268605   2.666   3.049   4.444  0.0552  0.2331 -0.0295
15705TIP3    H168606   2.623   3.134   4.435  0.6839  0.4665 -0.9265
15705TIP3    H268607   2.707   3.052   4.531  0.5428  1.0614 -0.2819
15706TIP3   OH268608   4.296   4.126  11.327 -0.5364  0.4928  0.0763
15706TIP3    H168609   4.223   4.087  11.280  0.1679 -1.5995  0.5973
15706TIP3    H268610   4.325   4.057  11.388  1.3324  1.5418  0.4510
15707TIP3   OH268611   3.425   4.003  12.336 -0.1002  0.3888 -0.0315
15707TIP3    H168612   3.474   3.989  12.255 -0.1528  0.9724 -0.1728
15707TIP3    H268613   3.343   4.044  12.308 -0.5422 -0.3043  0.2306
15708TIP3   OH268614   4.295   2.454  16.881 -0.1678 -0.1866 -0.5824
15708TIP3    H168615   4.371   2.451  16.824  1.5831 -2.1062  1.6374
15708TIP3    H268616   4.253   2.368  16.870 -1.1501  0.2972 -0.6826
15709TIP3   OH268617   3.082   3.514   2.556  0.6143  0.4689  0.0767
15709TIP3    H168618   3.172   3.505   2.585  0.3657  1.3339  1.1868
15709TIP3    H268619   3.054   3.425   2.537  2.8511  0.3939 -4.1236
15710TIP3   OH268620   0.465   6.581  14.251 -0.3563 -0.2432  0.2253
15710TIP3    H168621   0.494   6.639  14.322 -2.8995 -0.4714  1.5443
15710TIP3    H268622   0.373   6.604  14.237 -1.0039 -2.8309 -0.3378
15711TIP3   OH268623   6.743   5.011  11.203 -0.0337 -0.1422 -0.0867
15711TIP3    H168624   6.684   4.964  11.144 -2.0608  1.1805  0.7621
15711TIP3    H268625   6.794   5.069  11.146  0.2690 -1.1039 -0.8119
15712TIP3   OH268626   2.359   1.260  12.603 -0.0596 -0.1685 -0.0586
15712TIP3    H168627   2.447   1.270  12.637 -0.1385  1.8649 -0.2809
15712TIP3    H268628   2.369   1.205  12.525  1.2136  0.9546 -0.7317
15713TIP3   OH268629   3.351   2.795  15.336 -0.1474  0.0464 -0.4327
15713TIP3    H168630   3.443   2.817  15.321 -0.0852  0.0531 -0.0519
15713TIP3    H268631   3.353   2.733  15.409 -0.4750  0.3401 -0.1717
15714TIP3   OH268632   6.027   5.142  13.121 -0.0614 -0.1786  0.4232
15714TIP3    H168633   6.061   5.056  13.146  1.1308 -0.0023 -0.5353
15714TIP3    H268634   6.088   5.204  13.161  0.1172  0.1672 -0.3631
15715TIP3   OH268635   1.427   4.037  13.218 -0.6847  0.0474  0.3665
15715TIP3    H168636   1.455   3.946  13.227  1.8856  0.6936 -0.4432
15715TIP3    H268637   1.352   4.033  13.159 -0.1703 -1.4742 -0.2232
15716TIP3   OH268638   4.144   3.037   4.349 -0.0732  0.1321  0.4841
15716TIP3    H168639   4.224   3.012   4.395  1.2024  0.6838 -1.3180
15716TIP3    H268640   4.155   3.130   4.330 -0.3310 -0.1553 -1.2484
15717TIP3   OH268641   1.743   5.837   5.248 -0.4233 -0.1824  0.2100
15717TIP3    H168642   1.829   5.877   5.263 -0.0829 -0.6062 -0.5430
15717TIP3    H268643   1.719   5.800   5.332  0.0006  0.1880  0.5034
15718TIP3   OH268644   4.986   2.637   0.057  0.5508  0.0854 -0.3910
15718TIP3    H168645   4.943   2.723   0.051  0.2333 -0.0563 -0.2003
15718TIP3    H268646   4.913   2.575   0.061  0.6916 -0.0076  2.5423
15719TIP3   OH268647   0.011   5.394   0.052 -0.1861 -0.1032 -0.4395
15719TIP3    H168648   0.082   5.382   0.116 -0.8210  1.5537  0.6308
15719TIP3    H268649   0.002   5.308   0.010  2.4191 -0.3672 -0.6077
15720TIP3   OH268650   2.636   0.323   3.184 -0.1206 -0.8094 -0.5891
15720TIP3    H168651   2.663   0.389   3.120  0.6302 -1.0841 -0.5645
15720TIP3    H268652   2.718   0.291   3.222 -0.5410 -0.8004  0.3640
15721TIP3   OH268653   0.379   0.327  13.237  0.2757  0.1580  0.1392
15721TIP3    H168654   0.440   0.253  13.239  0.1270  0.0052  3.2145
15721TIP3    H268655   0.436   0.404  13.223  0.8226 -0.2254  0.2224
15722TIP3   OH268656   6.686   4.169   3.552  0.1778 -0.0882  0.1591
15722TIP3    H168657   6.645   4.217   3.624 -1.8712 -1.1020 -0.2355
15722TIP3    H268658   6.727   4.236   3.498  0.3062  0.8550  1.3912
15723TIP3   OH268659   4.741   6.577   5.243 -0.1807  0.6847  0.1126
15723TIP3    H168660   4.673   6.512   5.227 -0.9202  1.4969 -0.1498
15723TIP3    H268661   4.821   6.527   5.253 -0.5706 -0.1924 -1.0437
15724TIP3   OH268662   2.405   0.010   2.363 -0.2795 -0.0139 -0.1361
15724TIP3    H168663   2.371  -0.074   2.332  1.4989 -0.7282 -0.2738
15724TIP3    H268664   2.480   0.028   2.306  1.5355 -0.1116  2.0680
15725TIP3   OH268665   6.615   1.856   3.336  0.0777  0.2318  0.2884
15725TIP3    H168666   6.522   1.835   3.335  0.4723 -1.7320  1.4296
15725TIP3    H268667   6.656   1.790   3.281  0.9471  0.2261  0.9133
15726TIP3   OH268668   0.194   1.564  15.856 -0.2498 -1.0949  0.1590
15726TIP3    H168669   0.219   1.605  15.938 -1.9128 -1.8097  1.0581
15726TIP3    H268670   0.171   1.637  15.798 -2.7023 -0.6649  1.5705
15727TIP3   OH268671   1.912   4.189   1.396  0.4520 -0.8425 -0.4766
15727TIP3    H168672   1.869   4.137   1.327 -1.9660  1.3826 -0.8233
15727TIP3    H268673   1.923   4.128   1.469 -0.3397 -2.3385 -1.5449
15728TIP3   OH268674   3.962   0.976  14.127  0.2737 -0.0760 -0.0354
15728TIP3    H168675   3.925   1.055  14.166 -0.3254 -0.0594 -0.6140
15728TIP3    H268676   3.895   0.909  14.141  0.7256 -0.4579  0.3433
15729TIP3   OH268677   1.360   4.636  15.761 -0.3228 -0.2666  0.1003
15729TIP3    H168678   1.272   4.644  15.723  0.4390 -0.3033 -1.8200
15729TIP3    H268679   1.391   4.726  15.769  0.0769 -0.3053 -0.8472
15730TIP3   OH268680   5.558   3.578   2.059  0.3005 -0.5139  0.2755
15730TIP3    H168681   5.553   3.639   1.985 -0.3746 -1.5204 -0.5498
15730TIP3    H268682   5.651   3.574   2.081  0.4128  0.4210  0.0208
15731TIP3   OH268683   6.086   6.467   5.767  0.2898  1.0584  0.8663
15731TIP3    H168684   6.033   6.489   5.844  0.8039  1.5124  1.0918
15731TIP3    H268685   6.098   6.550   5.722 -0.2799  0.7417  0.1174
15732TIP3   OH268686   6.762   3.322  11.998 -0.0002 -0.3822 -0.4394
15732TIP3    H168687   6.671   3.296  11.994  0.4794 -2.0127 -3.2551
15732TIP3    H268688   6.774   3.381  11.923  0.4925  2.9571  2.0206
15733TIP3   OH268689   3.044   1.989   4.709  0.2878  0.6509 -0.1931
15733TIP3    H168690   3.135   2.006   4.737  0.0864  1.6040 -0.0589
15733TIP3    H268691   2.992   2.050   4.761 -0.4692 -0.1005 -0.0514
15734TIP3   OH268692   5.905   1.790  11.883 -0.1051  0.1898 -0.1006
15734TIP3    H168693   5.947   1.874  11.900  1.6048 -0.5327 -0.5220
15734TIP3    H268694   5.813   1.812  11.867  0.1043  1.8485  0.7741
15735TIP3   OH268695   0.202   0.178  14.336 -0.1104 -0.2589  0.3487
15735TIP3    H168696   0.110   0.166  14.360  0.4395 -0.8240  2.3592
15735TIP3    H268697   0.240   0.225  14.411  0.9167  1.3967 -1.1403
15736TIP3   OH268698   5.766   3.870  14.485  0.3948 -0.0165  0.2443
15736TIP3    H168699   5.857   3.843  14.482  0.7690  1.2469 -1.5632
15736TIP3    H268700   5.736   3.864  14.394 -1.0485  0.4601  0.6629
15737TIP3   OH268701   3.548   4.887  16.439  0.6475  0.0871  0.1896
15737TIP3    H168702   3.613   4.931  16.384  1.3203  0.3818  1.1871
15737TIP3    H268703   3.464   4.926  16.413  1.2062  1.9039  0.9485
15738TIP3   OH268704   2.456   0.363  15.939 -0.2273 -0.3017  0.2125
15738TIP3    H168705   2.541   0.404  15.955  0.2695 -0.8928 -0.8305
15738TIP3    H268706   2.404   0.432  15.898 -1.5974  1.3240  4.1412
15739TIP3   OH268707   5.169   2.866  16.858  0.3295 -0.0913  0.0314
15739TIP3    H168708   5.186   2.870  16.952  0.5524  1.6235 -0.0595
15739TIP3    H268709   5.255   2.857  16.818  0.2356 -0.8158 -0.0210
15740TIP3   OH268710   5.633   4.236   3.979 -0.5622  0.6317  0.1323
15740TIP3    H168711   5.623   4.220   4.073 -1.0311  0.1201 -0.0030
15740TIP3    H268712   5.549   4.211   3.941  0.6485 -2.3108 -0.8461
15741TIP3   OH268713   3.887   5.180  16.070 -0.0269  0.3322 -0.5598
15741TIP3    H168714   3.950   5.141  16.010  0.6694 -0.6039  0.7292
15741TIP3    H268715   3.909   5.143  16.156 -0.3104  2.3882  0.4713
15742TIP3   OH268716   5.495   2.135  13.008 -0.3377  0.9963  0.0477
15742TIP3    H168717   5.564   2.187  12.966 -0.4657  0.7147 -0.5270
15742TIP3    H268718   5.419   2.145  12.951 -0.5644  0.7444  0.3038
15743TIP3   OH268719   3.404   4.916  13.506  0.3658 -0.5615  0.8235
15743TIP3    H168720   3.447   4.956  13.581 -2.0707  1.5765  1.2255
15743TIP3    H268721   3.464   4.932  13.433  1.3280  0.1662  1.7446
15744TIP3   OH268722   0.188   5.207  10.705  0.6258  0.0841 -0.0279
15744TIP3    H168723   0.238   5.238  10.629  1.6839  1.0062  1.0001
15744TIP3    H268724   0.192   5.112  10.699 -1.1236  0.0770 -2.2547
15745TIP3   OH268725   6.060   4.516   5.966  0.6584  0.0149 -0.0599
15745TIP3    H168726   6.038   4.531   6.058 -2.3207 -2.5877 -0.1851
15745TIP3    H268727   6.100   4.429   5.965  1.7955  0.5277 -1.1379
15746TIP3   OH268728   0.906   6.475   2.381 -0.3484  0.0822  0.2447
15746TIP3    H168729   0.822   6.474   2.335 -1.0129 -0.0723  1.4158
15746TIP3    H268730   0.896   6.410   2.450  1.3242 -1.1090 -0.5738
15747TIP3   OH268731   2.062   0.531  13.833 -0.0158 -0.2393 -0.4459
15747TIP3    H168732   2.125   0.594  13.799 -0.1057  0.0269 -0.1161
15747TIP3    H268733   2.069   0.538  13.928 -0.7482 -0.0031 -0.4094
15748TIP3   OH268734   3.347   0.072   0.995  0.0595  0.3238  0.3800
15748TIP3    H168735   3.318   0.163   0.996  1.8055  0.9222  0.3429
15748TIP3    H268736   3.407   0.066   1.069 -1.9491 -1.5157  1.9936
15749TIP3   OH268737   6.295   5.277  12.749  0.2051  0.4304  0.3503
15749TIP3    H168738   6.214   5.327  12.748 -0.1703 -0.1095  1.8186
15749TIP3    H268739   6.276   5.199  12.697  0.1477  0.8288 -0.2308
15750TIP3   OH268740   3.088   5.557   2.751  0.4507 -0.0374  0.4799
15750TIP3    H168741   3.147   5.522   2.685 -0.1597  0.2964 -0.2542
15750TIP3    H268742   3.105   5.651   2.750  0.1697  0.0133  0.5324
15751TIP3   OH268743   1.842   3.661  14.289  0.1355  0.1040 -0.0146
15751TIP3    H168744   1.928   3.626  14.312  1.3229  2.7807 -0.0187
15751TIP3    H268745   1.840   3.658  14.193 -0.1755 -0.7707  0.0093
15752TIP3   OH268746   0.887   4.514  13.521  0.4682  0.2963  0.2856
15752TIP3    H168747   0.854   4.425  13.524  2.2676 -0.4006  0.8489
15752TIP3    H268748   0.916   4.533  13.610 -0.7976  1.8482  0.4238
15753TIP3   OH268749   3.770   2.665   6.803 -0.1967  0.0531 -0.4675
15753TIP3    H168750   3.859   2.673   6.837  0.2696 -1.0643 -1.3738
15753TIP3    H268751   3.755   2.745   6.754  1.1787 -0.6996 -2.2229
15754TIP3   OH268752   3.687   0.664  14.543 -0.2782 -1.0618  0.6609
15754TIP3    H168753   3.618   0.638  14.604 -0.7540 -0.1011  0.5650
15754TIP3    H268754   3.639   0.702  14.469  0.3574  1.1323  1.3043
15755TIP3   OH268755   1.678   5.004  12.872  0.1086 -0.0291  0.3272
15755TIP3    H168756   1.692   4.959  12.956 -0.4545 -1.8234 -0.4922
15755TIP3    H268757   1.757   4.987  12.821 -0.6063 -1.1899 -0.4379
15756TIP3   OH268758   5.724   5.559   4.992 -0.0109 -0.3706  0.0323
15756TIP3    H168759   5.673   5.613   4.931  1.1342  0.0874 -0.5443
15756TIP3    H268760   5.737   5.476   4.944  0.2001 -0.3064 -0.0230
15757TIP3   OH268761   3.453   2.882   3.965  0.3067  0.8422 -0.4442
15757TIP3    H168762   3.429   2.811   3.906  1.4482  1.0861 -1.2447
15757TIP3    H268763   3.457   2.842   4.051 -1.5199  0.5091 -0.4821
15758TIP3   OH268764   3.591   5.496  11.644 -0.0588  0.0768  0.2428
15758TIP3    H168765   3.496   5.509  11.645 -0.4365 -2.1795  1.9826
15758TIP3    H268766   3.603   5.408  11.608  1.3597  0.2933  0.1265
15759TIP3   OH268767   4.540   4.993   3.527 -0.3735  0.3465  0.0204
15759TIP3    H168768   4.622   5.008   3.574 -1.0092  0.5951  1.0914
15759TIP3    H268769   4.566   4.976   3.437  0.8200  0.9225  0.2445
15760TIP3   OH268770   6.239   6.782   1.309 -0.1185 -0.0449 -0.1543
15760TIP3    H168771   6.184   6.850   1.348  0.9182  0.9190 -0.3377
15760TIP3    H268772   6.312   6.773   1.370  1.7304  1.7406 -1.9672
15761TIP3   OH268773   5.950   3.083   3.015  0.4474 -1.0707  0.1883
15761TIP3    H168774   5.896   3.008   2.991 -1.2942 -0.1050  0.8820
15761TIP3    H268775   5.888   3.155   3.026  1.9687  0.2871  0.3316
15762TIP3   OH268776   3.326   6.757   0.640 -0.3906  0.3070 -0.6303
15762TIP3    H168777   3.281   6.829   0.684 -0.0415  0.6371 -0.8027
15762TIP3    H268778   3.310   6.773   0.547 -0.1506  0.2692 -0.6778
15763TIP3   OH268779   0.871   1.573  16.267  0.6870 -0.5065 -0.1447
15763TIP3    H168780   0.784   1.595  16.236  0.5335 -1.2746 -0.2908
15763TIP3    H268781   0.930   1.598  16.196  0.4670 -1.0492 -0.5244
15764TIP3   OH268782   4.733   4.683  12.854  0.1122 -0.7009  0.3936
15764TIP3    H168783   4.682   4.689  12.773 -0.4911 -2.8245  0.5601
15764TIP3    H268784   4.669   4.700  12.924  0.3113 -0.3871  0.5055
15765TIP3   OH268785   5.279   0.105   6.362 -0.4835  0.0218  0.2519
15765TIP3    H168786   5.230   0.046   6.304 -1.8236 -1.5395  2.7588
15765TIP3    H268787   5.363   0.061   6.375 -0.9966 -0.7821  1.0879
15766TIP3   OH268788   2.648   0.773  13.099 -0.5015 -0.8391  0.4701
15766TIP3    H168789   2.676   0.757  13.189  2.7429  2.2779  0.2516
15766TIP3    H268790   2.591   0.850  13.106  2.4658  1.6255 -0.2058
15767TIP3   OH268791   3.968   5.770  17.065  0.4609 -0.6454  0.1441
15767TIP3    H168792   4.032   5.818  17.118  1.0652 -0.1790 -0.9667
15767TIP3    H268793   3.941   5.832  16.998 -1.2834 -0.7923  0.6613
15768TIP3   OH268794   1.159   0.068   4.755 -0.2383 -0.7101  0.1528
15768TIP3    H168795   1.221   0.007   4.796  1.3504 -0.5539 -1.8174
15768TIP3    H268796   1.158   0.042   4.663 -3.2273 -0.7222  0.1102
15769TIP3   OH268797   2.836   1.003  17.005  0.1186  0.4822 -0.0155
15769TIP3    H168798   2.845   1.053  17.086  0.0239  0.3272  0.0904
15769TIP3    H268799   2.878   1.058  16.939  1.0217  0.1991  0.3035
15770TIP3   OH268800   5.005   6.404   4.940  0.0447 -0.1778  0.5679
15770TIP3    H168801   4.992   6.498   4.948 -1.7060 -0.4266  1.0026
15770TIP3    H268802   5.015   6.373   5.030 -2.2573 -0.7403  0.6809
15771TIP3   OH268803   3.880   1.551   0.561  0.2830  0.4057 -0.4907
15771TIP3    H168804   3.956   1.493   0.553 -0.4816 -0.6925 -0.0590
15771TIP3    H268805   3.851   1.540   0.652 -0.6857  0.4190 -0.7824
15772TIP3   OH268806   5.189   3.904   4.670  0.0642 -0.3087 -0.4230
15772TIP3    H168807   5.271   3.934   4.709  0.0528  0.8480 -1.2270
15772TIP3    H268808   5.200   3.810   4.659  1.8846  0.0335 -1.8722
15773TIP3   OH268809   3.922   4.510  10.755  0.2968 -0.2428  0.0064
15773TIP3    H168810   3.938   4.432  10.703  0.2509 -0.8731  0.9248
15773TIP3    H268811   3.980   4.502  10.830  2.4090  1.9862 -1.2469
15774TIP3   OH268812   2.660   5.657   4.872 -0.2838 -0.0513  0.0929
15774TIP3    H168813   2.753   5.646   4.855 -0.1896  0.5205  0.2239
15774TIP3    H268814   2.647   5.751   4.878 -1.3232  0.0245 -2.3525
15775TIP3   OH268815   1.585   0.698  10.784 -0.2341  0.2358 -0.3441
15775TIP3    H168816   1.498   0.711  10.821 -0.7021  0.4298 -1.4741
15775TIP3    H268817   1.619   0.786  10.771 -0.9187  0.2618 -2.2663
15776TIP3   OH268818   4.668   3.668   5.711 -0.4744  0.5776 -0.1719
15776TIP3    H168819   4.703   3.717   5.637 -0.1694  0.4835 -0.0899
15776TIP3    H268820   4.610   3.603   5.671  0.2059  0.0865 -0.3794
15777TIP3   OH268821   0.284   0.693   0.803 -0.0333  0.0200 -0.0401
15777TIP3    H168822   0.282   0.608   0.758 -1.5201  0.5004 -0.9732
15777TIP3    H268823   0.377   0.711   0.817  0.3537 -1.2791 -0.7624
15778TIP3   OH268824   2.742   6.150   5.442  0.0279 -0.3281  0.2778
15778TIP3    H168825   2.790   6.137   5.360 -1.9381  0.0146 -0.9946
15778TIP3    H268826   2.810   6.175   5.505  1.5576 -0.1343 -1.3463
15779TIP3   OH268827   6.644   2.588  12.899 -0.0722 -0.3768 -0.2615
15779TIP3    H168828   6.722   2.541  12.870  0.3503  0.7001 -0.9552
15779TIP3    H268829   6.588   2.591  12.821 -0.1116  0.1838 -0.2216
15780TIP3   OH268830   2.345   1.009  14.474 -0.5435 -0.3961  0.0452
15780TIP3    H168831   2.414   0.948  14.449  1.1374  1.3904  0.0452
15780TIP3    H268832   2.392   1.089  14.498 -2.6313  0.8965  0.0610
15781TIP3   OH268833   0.865   4.624  14.263  0.0406  0.3489  0.2882
15781TIP3    H168834   0.834   4.706  14.224 -0.2256  0.4716  0.7410
15781TIP3    H268835   0.924   4.587  14.198  0.9466  1.3950  0.4830
15782TIP3   OH268836   3.956   5.189  14.612 -0.1750 -0.2620 -0.2730
15782TIP3    H168837   4.008   5.202  14.691 -1.6884  1.4360  0.5338
15782TIP3    H268838   4.011   5.137  14.554  1.6735 -0.0390  1.2150
15783TIP3   OH268839   4.876   6.028  16.334 -0.3390  0.3604  0.1719
15783TIP3    H168840   4.843   6.015  16.245  2.1667  0.2818 -0.8398
15783TIP3    H268841   4.798   6.040  16.387 -2.0088 -1.1165 -1.7733
15784TIP3   OH268842   4.183   5.371   3.106  0.3027  0.2876  0.2350
15784TIP3    H168843   4.158   5.278   3.098  0.3855  0.3668 -1.4282
15784TIP3    H268844   4.131   5.404   3.178 -1.3026 -0.5705 -0.4790
15785TIP3   OH268845   2.068   0.558  12.276 -0.1365  0.0146 -0.0434
15785TIP3    H168846   1.973   0.557  12.271 -0.2752  0.9282  1.5969
15785TIP3    H268847   2.095   0.628  12.217 -0.4117 -0.6555 -0.9912
15786TIP3   OH268848   0.575   5.373   2.561 -0.0781 -0.5605 -0.4797
15786TIP3    H168849   0.557   5.419   2.479 -0.1441 -1.2921 -0.8836
15786TIP3    H268850   0.661   5.332   2.548  0.7242  0.7195  0.4616
15787TIP3   OH268851   0.007   5.121  12.976 -0.2181  0.9004  0.0151
15787TIP3    H168852   0.080   5.071  13.011 -0.4345 -0.3676 -1.2201
15787TIP3    H268853  -0.067   5.100  13.034 -0.0181  0.7842  0.2284
15788TIP3   OH268854   6.452   2.006   4.497 -0.1891  0.1328 -0.1654
15788TIP3    H168855   6.397   2.085   4.491  0.0432  0.2591 -0.6838
15788TIP3    H268856   6.466   1.980   4.407  1.6223  0.8134 -0.1217
15789TIP3   OH268857   5.872   4.198  10.546  0.7394 -0.5938  0.3841
15789TIP3    H168858   5.899   4.244  10.467  0.7084 -1.7242 -0.2906
15789TIP3    H268859   5.839   4.114  10.516  1.8396 -1.5336  1.6912
15790TIP3   OH268860   1.966   3.482  15.126 -0.7631  0.3878 -0.3799
15790TIP3    H168861   2.060   3.486  15.145 -0.5765  1.8704 -1.4396
15790TIP3    H268862   1.925   3.474  15.212  0.3620 -2.2778  0.0116
15791TIP3   OH268863   3.846   0.215   1.529 -0.1218  0.2830 -0.1375
15791TIP3    H168864   3.775   0.209   1.466  0.1527  1.1440 -0.5475
15791TIP3    H268865   3.912   0.153   1.497  0.9817  2.2742 -2.0295
15792TIP3   OH268866   2.123   4.613  11.820 -0.1158 -0.2478 -0.2037
15792TIP3    H168867   2.030   4.626  11.835 -0.2284 -2.0200  0.9281
15792TIP3    H268868   2.165   4.630  11.904  0.8775  2.3710 -1.1220
15793TIP3   OH268869   4.325   6.091   0.842  0.3738  0.5817 -0.1948
15793TIP3    H168870   4.318   6.075   0.936 -1.0080 -0.5705 -0.4643
15793TIP3    H268871   4.235   6.105   0.813  0.4851 -1.4240 -1.7226
15794TIP3   OH268872   3.764   4.820  16.078  0.0308  0.2074 -0.0789
15794TIP3    H168873   3.727   4.885  16.137  1.2275 -0.3869  1.3590
15794TIP3    H268874   3.854   4.849  16.063  0.3221 -0.6850 -0.0777
15795TIP3   OH268875   4.514   0.191   0.703 -0.5965  0.1611  0.3748
15795TIP3    H168876   4.556   0.118   0.658  0.7770  1.0840  0.0813
15795TIP3    H268877   4.435   0.154   0.741 -0.0471 -1.4219  0.0534
15796TIP3   OH268878   2.531   5.761  15.825 -0.1481 -0.1767  0.1364
15796TIP3    H168879   2.547   5.855  15.822  0.0529 -0.2079  0.2182
15796TIP3    H268880   2.617   5.722  15.839 -0.1646 -0.4005 -0.3599
15797TIP3   OH268881   1.824   2.989  14.952 -0.0105 -0.0706 -0.6908
15797TIP3    H168882   1.911   2.990  14.912  1.1088 -1.2517  1.5345
15797TIP3    H268883   1.812   3.078  14.985  1.3006 -0.3999  0.7843
15798TIP3   OH268884   5.710   4.279   2.416  0.0938  0.4044 -0.0524
15798TIP3    H168885   5.726   4.373   2.415  0.7358  0.2990 -0.7641
15798TIP3    H268886   5.671   4.261   2.330 -0.7498  0.1324  0.3714
15799TIP3   OH268887   5.050   2.582   1.253  0.0885 -0.3688  0.0912
15799TIP3    H168888   5.035   2.533   1.172  2.0592 -1.4843  0.3350
15799TIP3    H268889   5.011   2.668   1.236 -0.2169 -0.8171 -1.7566
15800TIP3   OH268890   0.135   2.082   5.744  0.2159 -0.3423 -0.2054
15800TIP3    H168891   0.223   2.059   5.712  0.4313 -0.3580  0.3840
15800TIP3    H268892   0.083   2.003   5.730  0.1997 -0.2230 -0.8755
15801TIP3   OH268893   5.717   6.262   2.567  0.4543 -0.0464 -0.1139
15801TIP3    H168894   5.676   6.180   2.539  0.3086  0.0271 -0.1193
15801TIP3    H268895   5.772   6.288   2.493  0.0041  0.1914 -0.3712
15802TIP3   OH268896   3.039   2.167  14.590  0.3738  0.0841 -0.5161
15802TIP3    H168897   3.006   2.082  14.619 -0.6118  0.2204 -1.1929
15802TIP3    H268898   2.969   2.202  14.535  1.5095  0.5216 -1.7481
15803TIP3   OH268899   0.660   5.958  16.479  0.5863 -0.1270 -0.5067
15803TIP3    H168900   0.656   5.906  16.560 -0.4415 -1.4573 -1.3633
15803TIP3    H268901   0.731   5.917  16.429  0.3098 -0.1878 -0.8493
15804TIP3   OH268902   0.418   4.026   3.148 -0.1161  0.1312  0.7539
15804TIP3    H168903   0.476   4.096   3.179 -1.1304  0.6836  1.4351
15804TIP3    H268904   0.478   3.957   3.118  0.9289  1.5536 -0.6057
15805TIP3   OH268905   6.374   6.804   3.135  0.0184  0.0893  0.1985
15805TIP3    H168906   6.466   6.808   3.160 -0.6379  0.4584  2.7703
15805TIP3    H268907   6.349   6.713   3.148 -0.1247  0.1005  0.0089
15806TIP3   OH268908   0.092   6.777  11.605  0.1237  0.0705 -0.3768
15806TIP3    H168909   0.079   6.734  11.690  1.7403  2.1188  1.0498
15806TIP3    H268910   0.185   6.763  11.585 -0.3199 -0.6725 -2.0090
15807TIP3   OH268911   4.944   2.344   1.929  0.0530 -0.1990  0.4585
15807TIP3    H168912   4.930   2.391   2.011 -0.0677 -0.1950  0.4364
15807TIP3    H268913   5.021   2.385   1.890 -0.3897  0.3637  0.1672
15808TIP3   OH268914   2.500   0.357  11.283  0.6912 -0.1683 -0.3761
15808TIP3    H168915   2.578   0.410  11.270  0.5322  0.5383  1.3045
15808TIP3    H268916   2.430   0.405  11.239  0.8493  0.2172 -0.2101
15809TIP3   OH268917   0.619   6.604  13.452  0.0269  0.3983 -0.2320
15809TIP3    H168918   0.668   6.548  13.512  1.1531  0.4096 -1.1214
15809TIP3    H268919   0.571   6.664  13.509 -0.7702 -1.0867  0.7288
15810TIP3   OH268920   3.310   6.604   2.313 -0.5176  0.1332  0.3755
15810TIP3    H168921   3.244   6.564   2.368 -0.0248  2.1467  2.6117
15810TIP3    H268922   3.262   6.665   2.257 -1.1622 -2.7072 -2.4538
15811TIP3   OH268923   5.296   1.478  12.653  0.3344  0.0465  0.1731
15811TIP3    H168924   5.319   1.386  12.669  0.8031  0.3109  1.1061
15811TIP3    H268925   5.210   1.474  12.610 -0.4580 -0.7920  1.7406
15812TIP3   OH268926   5.168   5.064  13.203 -0.4384 -0.1584  0.2777
15812TIP3    H168927   5.117   5.069  13.122 -0.3550 -1.1104  0.1565
15812TIP3    H268928   5.175   5.155  13.233  0.6895  0.4147 -1.5170
15813TIP3   OH268929   4.386   6.730  11.522  0.2222 -0.6566 -0.3598
15813TIP3    H168930   4.389   6.684  11.438  1.0055 -0.6279 -0.3497
15813TIP3    H268931   4.477   6.744  11.546  0.0034  0.5664 -0.1745
15814TIP3   OH268932   5.931   5.871  14.090 -0.6383 -0.0902 -0.1902
15814TIP3    H168933   5.950   5.789  14.136  1.3456  0.4085 -0.0444
15814TIP3    H268934   5.966   5.858  14.002  0.4248  0.8729  0.0748
15815TIP3   OH268935   2.480   5.570  15.283 -0.6125 -0.2227  0.1667
15815TIP3    H168936   2.468   5.657  15.322 -0.3914 -0.2214  0.2323
15815TIP3    H268937   2.486   5.587  15.189  0.1969 -0.0853  0.2398
15816TIP3   OH268938   2.593   0.851   6.232  0.3117 -0.2985 -0.2450
15816TIP3    H168939   2.592   0.756   6.242 -1.2733 -0.4584 -1.5086
15816TIP3    H268940   2.539   0.884   6.304  0.2242 -0.4242 -0.2533
15817TIP3   OH268941   5.311   6.699  13.836  0.0628 -0.1304  0.1694
15817TIP3    H168942   5.326   6.774  13.894  1.8211 -1.8934  2.1718
15817TIP3    H268943   5.396   6.682  13.795 -0.9763  0.6036 -2.4443
15818TIP3   OH268944   5.392   3.803  15.065  0.4381  0.1655  0.0019
15818TIP3    H168945   5.445   3.872  15.105  0.7536 -0.6780  1.0790
15818TIP3    H268946   5.451   3.728  15.060 -0.2950 -0.4247  0.0958
15819TIP3   OH268947   6.700   6.142   3.675 -0.5641 -0.3932  0.5773
15819TIP3    H168948   6.727   6.145   3.767  0.0603 -1.7668  0.4701
15819TIP3    H268949   6.781   6.140   3.626 -0.8927 -0.0889  0.0161
15820TIP3   OH268950   1.634   3.156   4.717  0.3781 -0.6236  0.1493
15820TIP3    H168951   1.713   3.208   4.703 -0.6688  1.6649  2.0440
15820TIP3    H268952   1.666   3.070   4.745  2.2283  0.6170  2.0996
15821TIP3   OH268953   0.307   2.723  14.102  0.3679 -0.3284 -0.2451
15821TIP3    H168954   0.387   2.683  14.069  0.4788  0.9696 -1.6818
15821TIP3    H268955   0.326   2.816  14.107 -0.9297 -0.0301 -0.3023
15822TIP3   OH268956   2.821   1.945   3.719  0.3974  0.1198 -0.4847
15822TIP3    H168957   2.828   1.945   3.624 -0.8874  1.7393 -0.6228
15822TIP3    H268958   2.908   1.919   3.750  0.5554 -1.4055 -2.0814
15823TIP3   OH268959   4.401   6.617   1.579 -0.0073  0.2421 -0.8525
15823TIP3    H168960   4.370   6.560   1.509 -0.3040  0.1025 -0.6147
15823TIP3    H268961   4.466   6.566   1.626  0.1102  0.2945 -0.9602
15824TIP3   OH268962   5.361   3.180   1.108  0.1088  0.1851  0.1694
15824TIP3    H168963   5.290   3.140   1.057 -1.1144 -0.2404  2.0975
15824TIP3    H268964   5.440   3.164   1.057 -0.3470 -4.3167  0.5229
15825TIP3   OH268965   3.355   3.063  13.217  0.0622  0.2743  0.0013
15825TIP3    H168966   3.294   3.136  13.229  1.0273  0.9636  0.8950
15825TIP3    H268967   3.437   3.105  13.189  0.3233 -0.5776 -0.5462
15826TIP3   OH268968   1.636   4.137   1.894  0.2036 -0.8768  0.8475
15826TIP3    H168969   1.617   4.141   1.800 -1.4160  0.2885  1.1688
15826TIP3    H268970   1.719   4.183   1.904  0.0253 -0.3669  0.0562
15827TIP3   OH268971   3.362   1.693  12.390 -0.1478  0.5279 -0.2460
15827TIP3    H168972   3.312   1.637  12.331 -0.2338 -0.0794  0.3922
15827TIP3    H268973   3.327   1.675  12.477 -1.0362  2.5081 -0.1420
15828TIP3   OH268974   3.423   2.783  13.180  0.4277  0.3810  0.1309
15828TIP3    H168975   3.405   2.875  13.199 -2.0652  0.0687 -0.3099
15828TIP3    H268976   3.517   2.779  13.164  0.6628  2.7599  0.5582
15829TIP3   OH268977   0.038   5.018  16.670 -0.8365  0.3944  0.3181
15829TIP3    H168978   0.063   5.066  16.749 -0.0431  1.2529 -0.4280
15829TIP3    H268979   0.103   5.044  16.605  0.9609 -3.2411  0.3828
15830TIP3   OH268980   1.264   0.193   0.196 -0.1264 -0.1536 -0.1459
15830TIP3    H168981   1.181   0.216   0.237  0.3784  1.4935  0.0423
15830TIP3    H268982   1.324   0.180   0.270  0.7920  2.8502 -0.2221
15831TIP3   OH268983   2.860   4.532   4.744  0.5223 -0.4867 -0.2545
15831TIP3    H168984   2.825   4.592   4.678 -1.7827 -0.8379  0.5336
15831TIP3    H268985   2.796   4.460   4.747  1.2345 -1.1006  1.4451
15832TIP3   OH268986   2.448   4.408  15.153  0.1384  0.4223 -0.0481
15832TIP3    H168987   2.491   4.324  15.138 -1.1988 -0.4574  0.8494
15832TIP3    H268988   2.500   4.450  15.221  0.9665  0.4541 -0.6830
15833TIP3   OH268989   3.404   5.803   5.324  0.0516 -0.1328  0.1542
15833TIP3    H168990   3.316   5.803   5.287 -1.2342 -0.5120  2.9691
15833TIP3    H268991   3.428   5.896   5.329 -0.7897  0.0637  0.6549
15834TIP3   OH268992   5.729   3.536   4.300  0.1692 -0.2287  0.4483
15834TIP3    H168993   5.644   3.509   4.264  0.4523  1.7643 -2.0473
15834TIP3    H268994   5.707   3.585   4.379 -0.6580 -2.9074  2.0068
15835TIP3   OH268995   2.633   1.404   0.065 -0.0244 -0.2968  0.5385
15835TIP3    H168996   2.579   1.337   0.106 -0.0681 -1.3230 -1.1002
15835TIP3    H268997   2.576   1.444  -0.001 -0.3428  2.1319  2.1582
15836TIP3   OH268998   2.994   1.454  13.481  0.3875 -0.1594  0.0671
15836TIP3    H168999   2.971   1.369  13.517  0.4874  0.3889  1.5152
15836TIP3    H269000   3.009   1.509  13.558  0.0459  1.2432 -0.8266
15837TIP3   OH269001   3.088   1.018  11.662  0.3572  0.1870  0.0181
15837TIP3    H169002   3.063   1.106  11.691  0.8182 -0.0355  1.1469
15837TIP3    H269003   3.165   0.997  11.715  0.3460 -0.8287 -0.3591
15838TIP3   OH269004   6.424   1.867  15.077  0.2669 -0.2091  0.0642
15838TIP3    H169005   6.442   1.832  15.164  1.0132  0.2046  0.0892
15838TIP3    H269006   6.511   1.892  15.043 -0.2203  1.6256  0.0690
15839TIP3   OH269007   6.457   3.481   5.585  0.1495  0.0316  0.3740
15839TIP3    H169008   6.520   3.414   5.557  0.5146  0.5745 -0.1202
15839TIP3    H269009   6.483   3.560   5.538 -1.1183  0.1857 -0.1025
15840TIP3   OH269010   1.554   0.133  11.190  0.2164  0.4687  0.3997
15840TIP3    H169011   1.593   0.046  11.174  1.3928  1.1933 -0.8598
15840TIP3    H269012   1.524   0.129  11.281  3.0877 -0.2279  1.4060
15841TIP3   OH269013   6.606   6.308   5.593  0.3346 -0.4093  0.1385
15841TIP3    H169014   6.557   6.240   5.639 -2.4688  0.2139 -1.6385
15841TIP3    H269015   6.543   6.343   5.529  2.4184  2.1773 -0.6689
15842TIP3   OH269016   4.169   1.108   1.649 -0.1549  0.1311 -0.2152
15842TIP3    H169017   4.087   1.065   1.622  0.7156 -1.2994 -0.7352
15842TIP3    H269018   4.142   1.190   1.688 -1.8254 -0.1659 -0.6740
15843TIP3   OH269019   2.481   2.830  11.055 -0.4774  0.5518 -0.6800
15843TIP3    H169020   2.492   2.785  10.971  0.4083  0.1198 -0.3398
15843TIP3    H269021   2.544   2.788  11.114 -0.2917  1.6069 -0.1027
15844TIP3   OH269022   6.336   0.547  13.811  0.2154  0.4716  0.2016
15844TIP3    H169023   6.305   0.473  13.864  0.4840  0.5329  0.4445
15844TIP3    H269024   6.265   0.611  13.815  0.2906  0.5305  0.5948
15845TIP3   OH269025   6.458   2.282   3.759  0.7333 -0.6285  0.2162
15845TIP3    H169026   6.545   2.283   3.721  1.6424 -0.2541  2.1582
15845TIP3    H269027   6.405   2.232   3.697  2.2932 -0.7826 -1.0589
15846TIP3   OH269028   6.317   6.108   1.824 -0.7153 -0.9397 -0.3118
15846TIP3    H169029   6.398   6.074   1.784 -1.3710 -0.6900 -1.9215
15846TIP3    H269030   6.317   6.070   1.912  0.6687 -1.7175 -0.6046
15847TIP3   OH269031   2.864   1.666   3.492  0.4751  0.5418 -0.1918
15847TIP3    H169032   2.897   1.752   3.518 -1.1484  1.6356 -1.5070
15847TIP3    H269033   2.770   1.671   3.507  0.3975 -1.1903  0.0992
15848TIP3   OH269034   2.926   0.390  14.428 -0.8734 -0.0146  0.4688
15848TIP3    H169035   2.999   0.342  14.387  0.1155 -1.1683  3.3342
15848TIP3    H269036   2.957   0.481  14.433  0.3323 -0.4579  1.4806
15849TIP3   OH269037   4.073   4.427   3.825 -0.1967 -0.2518 -0.0355
15849TIP3    H169038   4.077   4.448   3.918  2.6245 -2.4719  0.4720
15849TIP3    H269039   4.155   4.462   3.789  0.2420 -2.1032 -0.9741
15850TIP3   OH269040   1.953   5.212   0.236 -0.3153  0.3607  0.0370
15850TIP3    H169041   2.046   5.190   0.236 -0.1212  1.0905 -1.1072
15850TIP3    H269042   1.938   5.251   0.150 -1.2216  2.2081  0.9751
15851TIP3   OH269043   3.577   5.672   3.214 -0.1957  0.3795  0.5001
15851TIP3    H169044   3.652   5.615   3.197 -2.0511 -2.0241 -0.1607
15851TIP3    H269045   3.548   5.647   3.302 -1.3705 -0.1019 -0.0167
15852TIP3   OH269046   3.987   1.319   5.382 -0.3491 -0.5388 -0.6470
15852TIP3    H169047   3.912   1.264   5.405  0.3864 -1.6782 -0.8839
15852TIP3    H269048   4.063   1.261   5.389  0.3915  0.2746 -1.5286
15853TIP3   OH269049   6.294   0.970   1.575 -0.5655  0.3458  0.1119
15853TIP3    H169050   6.237   1.043   1.599  0.0625  1.4886 -1.6899
15853TIP3    H269051   6.374   0.985   1.625 -1.1156 -0.2404  1.2266
15854TIP3   OH269052   5.841   0.598   0.750  0.5554  0.0761 -0.0573
15854TIP3    H169053   5.752   0.622   0.775  1.0015  0.9818  0.7231
15854TIP3    H269054   5.831   0.516   0.701 -0.3630 -2.2119  3.5665
15855TIP3   OH269055   1.884   3.460  15.390 -0.0472  0.4793  0.4385
15855TIP3    H169056   1.906   3.518  15.462  2.0481 -0.2424  0.4494
15855TIP3    H269057   1.926   3.377  15.412 -1.4984 -0.5472 -0.4209
15856TIP3   OH269058   3.701   3.721  15.219 -0.3987 -0.4012  0.4121
15856TIP3    H169059   3.763   3.706  15.290 -0.2885 -0.5091  0.2951
15856TIP3    H269060   3.738   3.673  15.145 -0.1262  0.3146  0.0762
15857TIP3   OH269061   3.115   0.594  12.466 -0.4264  0.0200 -0.0306
15857TIP3    H169062   3.177   0.522  12.460 -0.7859 -0.4023  1.0446
15857TIP3    H269063   3.037   0.562  12.419  0.0775  0.4872 -1.2365
15858TIP3   OH269064   5.141   0.483   1.987  0.8767  0.1615 -0.0475
15858TIP3    H169065   5.191   0.402   1.979 -0.5111 -0.7960  0.5946
15858TIP3    H269066   5.182   0.529   2.061  2.9797  1.0911 -1.6736
15859TIP3   OH269067   6.697   0.875   3.118  0.4002  0.6655  0.3333
15859TIP3    H169068   6.765   0.808   3.115  2.3349  2.5201  0.4767
15859TIP3    H269069   6.620   0.829   3.152  1.4307 -1.6049 -0.1953
15860TIP3   OH269070   2.788   3.415  16.707  0.3466  0.3294 -0.5071
15860TIP3    H169071   2.851   3.464  16.655  0.4175 -0.2958 -1.0208
15860TIP3    H269072   2.813   3.432  16.798  1.3229 -0.0066 -0.7054
15861TIP3   OH269073   3.711   4.393   0.224  0.6482 -0.1805 -0.4736
15861TIP3    H169074   3.635   4.392   0.165  0.4843 -1.0982 -0.2662
15861TIP3    H269075   3.786   4.386   0.165  0.7863  3.0196 -0.8837
15862TIP3   OH269076   6.104   3.148   5.688  0.3653 -0.4975  0.1123
15862TIP3    H169077   6.060   3.106   5.614  0.6058 -0.1276 -0.2430
15862TIP3    H269078   6.051   3.226   5.706  1.6758  0.7803 -1.2889
15863TIP3   OH269079   3.194   1.765  16.016  0.7113 -0.5110  0.0746
15863TIP3    H169080   3.133   1.743  16.087  0.0375 -2.7143 -1.0804
15863TIP3    H269081   3.243   1.684  16.002  0.3514 -0.3825 -2.3893
15864TIP3   OH269082   0.122   3.107   5.093  0.5776 -0.0852 -0.5132
15864TIP3    H169083   0.208   3.075   5.065  0.3981 -1.3029  0.2457
15864TIP3    H269084   0.106   3.184   5.038  1.8694 -0.2041 -1.0989
15865TIP3   OH269085   6.163   0.421  15.909 -0.3399  0.4394 -0.1010
15865TIP3    H169086   6.218   0.386  15.979 -1.0921 -0.0143  0.2728
15865TIP3    H269087   6.147   0.512  15.934  0.7840  0.7949 -0.5646
15866TIP3   OH269088   6.729   2.263  13.616  0.2004 -0.4042 -0.2103
15866TIP3    H169089   6.685   2.186  13.652  1.1825 -1.0168 -0.2752
15866TIP3    H269090   6.691   2.337  13.663  0.1373 -1.0333  0.7492
15867TIP3   OH269091   0.122   0.818  14.134  0.5603 -0.2447 -0.0085
15867TIP3    H169092   0.099   0.730  14.164 -4.0913  0.1464 -1.6817
15867TIP3    H269093   0.144   0.807  14.042  0.4103  0.2992 -0.1105
15868TIP3   OH269094   0.732   2.377   1.242  0.4222 -0.0139 -0.1628
15868TIP3    H169095   0.776   2.292   1.238  0.8719  0.1271  1.0894
15868TIP3    H269096   0.663   2.365   1.307  1.5875  1.0056  1.3549
15869TIP3   OH269097   6.179   3.446   5.586  0.1620  0.0453  0.2714
15869TIP3    H169098   6.148   3.451   5.677 -0.4376  2.4130  0.0040
15869TIP3    H269099   6.275   3.445   5.594  0.1201  0.3900  0.9403
15870TIP3   OH269100   4.904   0.254   1.913  0.3180  0.1958 -0.1899
15870TIP3    H169101   4.956   0.287   1.840  2.0714 -1.3775  0.2638
15870TIP3    H269102   4.947   0.172   1.937 -1.7334 -0.5952  0.9812
15871TIP3   OH269103   6.292   2.720  14.828 -0.0345 -0.6370  0.6662
15871TIP3    H169104   6.302   2.795  14.769  0.9820 -1.1328  0.1758
15871TIP3    H269105   6.303   2.643  14.771 -2.2474 -1.2139  0.9419
15872TIP3   OH269106   4.064   1.273   3.792  0.0013  0.3677 -0.5336
15872TIP3    H169107   4.115   1.207   3.745  0.7858  0.7509 -0.2374
15872TIP3    H269108   4.128   1.338   3.820 -0.8957  1.9325 -1.9030
15873TIP3   OH269109   4.360   4.259  12.877  0.6235 -0.4359  0.2378
15873TIP3    H169110   4.291   4.193  12.885 -0.3459  0.3714 -1.2131
15873TIP3    H269111   4.350   4.294  12.789  1.2553  1.5177  0.9015
15874TIP3   OH269112   4.162   3.227   1.794  0.3101 -0.0468 -0.6699
15874TIP3    H169113   4.238   3.196   1.744  0.9115 -2.3577  1.5065
15874TIP3    H269114   4.087   3.206   1.739  1.1016  0.8958 -2.1904
15875TIP3   OH269115   1.018   2.594   1.064  0.4383 -0.0701 -0.3917
15875TIP3    H169116   1.004   2.681   1.101 -0.2196 -0.1744 -0.3849
15875TIP3    H269117   1.100   2.601   1.015  0.3647  0.5627 -0.4268
15876TIP3   OH269118   3.082   4.249  16.195  0.0138  0.5489 -0.2120
15876TIP3    H169119   3.034   4.307  16.253  0.3432  0.1390  0.4762
15876TIP3    H269120   3.120   4.183  16.252 -0.5741 -0.5086 -0.9979
15877TIP3   OH269121   3.742   5.343  14.805  0.4876  0.0161  0.3509
15877TIP3    H169122   3.729   5.420  14.750  1.0942  0.6635  1.0811
15877TIP3    H269123   3.775   5.276  14.745 -1.1972 -0.0814 -0.5257
15878TIP3   OH269124   5.849   6.734   3.976  0.2444 -0.0372  0.3490
15878TIP3    H169125   5.870   6.745   4.069  1.3334 -1.6754  0.3303
15878TIP3    H269126   5.768   6.684   3.976  0.7385 -0.8630  0.4465
15879TIP3   OH269127   4.942   0.656   2.188 -0.0187 -0.5339  0.4574
15879TIP3    H169128   4.911   0.741   2.218 -1.5872 -1.4661  1.6543
15879TIP3    H269129   5.010   0.631   2.251  0.2903 -0.2596  0.2318
15880TIP3   OH269130   4.034   4.100  13.092  0.3173  0.7178 -0.4351
15880TIP3    H169131   4.071   4.103  13.180 -1.3797 -1.3896  0.4358
15880TIP3    H269132   4.103   4.062  13.037 -0.1360 -2.4007  0.9780
15881TIP3   OH269133   1.147   2.453  15.275 -0.1501  0.0578 -0.0325
15881TIP3    H169134   1.147   2.359  15.260  0.5082 -0.2211  1.5467
15881TIP3    H269135   1.065   2.469  15.323 -0.0955  0.2402 -0.0012
15882TIP3   OH269136   0.696   2.908   3.052  0.4158 -0.4100 -0.1010
15882TIP3    H169137   0.658   2.923   2.965  0.2330 -1.0351 -0.1373
15882TIP3    H269138   0.620   2.898   3.109  0.5187 -1.2941 -0.1061
15883TIP3   OH269139   3.894   6.020   0.972 -0.3443  0.2317 -0.1674
15883TIP3    H169140   3.972   6.064   0.937 -0.0766 -0.1561 -0.0701
15883TIP3    H269141   3.835   6.011   0.897  0.0504 -0.2173 -0.4294
15884TIP3   OH269142   1.331   4.553  16.540 -0.1201 -0.0204 -0.0813
15884TIP3    H169143   1.376   4.625  16.585 -0.9661  0.6033 -0.2049
15884TIP3    H269144   1.396   4.483  16.535  0.6148  0.6212  0.3339
15885TIP3   OH269145   3.333   3.639   1.439  0.1153  0.7510  0.3440
15885TIP3    H169146   3.326   3.610   1.348 -0.0617 -1.3096  0.9703
15885TIP3    H269147   3.384   3.570   1.482  0.7112  1.9941  1.6931
15886TIP3   OH269148   4.518   3.667  15.544 -0.3499 -0.1841 -0.0460
15886TIP3    H169149   4.598   3.616  15.554  0.1482  0.4155 -0.8522
15886TIP3    H269150   4.520   3.696  15.453 -2.3024 -1.5243 -0.5801
15887TIP3   OH269151   3.857   2.349  14.430 -0.5108  0.2492  0.2766
15887TIP3    H169152   3.915   2.318  14.361  0.0872 -0.4619  1.0792
15887TIP3    H269153   3.907   2.337  14.511 -2.5513 -2.5121  1.2548
15888TIP3   OH269154   2.897   3.851  11.611  0.0072 -0.1961  0.3671
15888TIP3    H169155   2.855   3.770  11.642  0.1397 -0.1551  0.6569
15888TIP3    H269156   2.862   3.863  11.523  0.0642 -0.6257  0.2811
15889TIP3   OH269157   2.983   1.776  11.047  0.3106 -0.0502  0.3569
15889TIP3    H169158   2.925   1.700  11.057 -0.5241  0.3692 -1.0430
15889TIP3    H269159   2.932   1.838  10.995  1.0000  1.4641  1.4305
15890TIP3   OH269160   4.685   1.593   6.937  0.3503 -0.0304 -0.7396
15890TIP3    H169161   4.756   1.625   6.992 -0.3164 -0.8891  0.6901
15890TIP3    H269162   4.721   1.516   6.894  0.5437  0.0098 -0.6508
15891TIP3   OH269163   3.243   5.213  11.403  0.3062 -0.2376 -0.2909
15891TIP3    H169164   3.266   5.137  11.456  2.1435 -0.9105 -1.9161
15891TIP3    H269165   3.326   5.259  11.391 -0.4382  0.9735 -0.9307
15892TIP3   OH269166   6.106   3.887  15.106  0.3198  0.3437  0.2907
15892TIP3    H169167   6.070   3.808  15.146 -1.6541  0.8540 -0.3324
15892TIP3    H269168   6.156   3.854  15.031 -0.9988 -0.3316 -0.3388
15893TIP3   OH269169   5.802   4.469   1.084 -0.1868 -0.1622 -0.0890
15893TIP3    H169170   5.848   4.385   1.091  1.0479  0.5974  1.5240
15893TIP3    H269171   5.833   4.508   1.003  1.1282 -0.2070  0.3690
15894TIP3   OH269172   4.777   0.403  12.897  0.4502  0.5477  0.0067
15894TIP3    H169173   4.820   0.317  12.893  0.7318  0.6299  1.0457
15894TIP3    H269174   4.697   0.392  12.845  0.6976 -0.2154 -0.2286
15895TIP3   OH269175   6.766   5.116  16.394  0.1559 -0.0539 -0.4075
15895TIP3    H169176   6.690   5.171  16.374 -1.1281 -1.7825 -0.5301
15895TIP3    H269177   6.755   5.094  16.487  0.2545 -0.6696 -0.5392
15896TIP3   OH269178   4.613   1.177   5.939 -0.2375  0.1396 -0.0178
15896TIP3    H169179   4.598   1.164   5.846 -1.4269  0.7353  0.0692
15896TIP3    H269180   4.632   1.090   5.973 -2.4888 -0.5662 -0.3775
15897TIP3   OH269181   2.736   3.328  15.613 -0.7535  0.4455  0.2848
15897TIP3    H169182   2.658   3.364  15.655 -0.2750  1.4664  0.3338
15897TIP3    H269183   2.777   3.275  15.681 -1.0304  0.4815  0.4824
15898TIP3   OH269184   5.871   2.669   1.322 -0.2192 -0.5805 -0.2383
15898TIP3    H169185   5.784   2.693   1.354 -0.3135  3.1252 -2.7176
15898TIP3    H269186   5.932   2.706   1.386 -0.2510 -3.7612  1.8724
15899TIP3   OH269187   5.237   2.183  12.842 -0.1749 -0.0635  0.2977
15899TIP3    H169188   5.243   2.168  12.747 -1.2011 -0.9349  0.3598
15899TIP3    H269189   5.182   2.112  12.874 -1.2893  1.2027  1.3109
15900TIP3   OH269190   4.822   3.314  12.130  0.3394  0.0039  0.2110
15900TIP3    H169191   4.829   3.261  12.051 -1.1138 -0.1446  0.1564
15900TIP3    H269192   4.813   3.404  12.098  1.3749  0.1492  0.2728
15901TIP3   OH269193   2.098   5.096   3.551  0.2828 -0.1093  0.5426
15901TIP3    H169194   2.120   5.072   3.642  2.8173  0.4506  0.1491
15901TIP3    H269195   2.183   5.107   3.508 -0.8194  2.2343 -1.2317
15902TIP3   OH269196   1.748   2.829  10.173 -0.2517  0.4966  0.0733
15902TIP3    H169197   1.796   2.803  10.251  0.1862 -1.5039 -0.7927
15902TIP3    H269198   1.815   2.834  10.105 -1.0047 -0.7809 -0.8066
15903TIP3   OH269199   3.103   3.973  15.059  0.1344  0.3974  0.7630
15903TIP3    H169200   3.145   4.058  15.043  2.1023 -0.5977  0.2333
15903TIP3    H269201   3.102   3.965  15.155  1.7011  0.2533  0.7981
15904TIP3   OH269202   0.053   1.571  11.766  0.5408 -0.0028  0.3918
15904TIP3    H169203  -0.033   1.598  11.797 -0.2459 -2.2431  0.3019
15904TIP3    H269204   0.097   1.536  11.843  0.8666 -0.0647  0.1815
15905TIP3   OH269205   1.131   2.766   1.961 -0.1170 -0.0125 -0.1338
15905TIP3    H169206   1.038   2.768   1.979 -0.2377  1.5269 -0.7744
15905TIP3    H269207   1.137   2.762   1.865  0.5123 -2.4362 -0.0780
15906TIP3   OH269208   5.111   5.153  12.168 -0.2060 -0.0002  0.6705
15906TIP3    H169209   5.113   5.072  12.117 -1.9603 -0.0731  0.6589
15906TIP3    H269210   5.154   5.218  12.112 -2.2986 -0.0142 -1.0858
15907TIP3   OH269211   6.147   0.475   1.208  0.2908 -0.4860 -0.2763
15907TIP3    H169212   6.081   0.425   1.160  0.1593 -1.3879  0.7934
15907TIP3    H269213   6.149   0.433   1.295  1.3676  0.3331  0.1034
15908TIP3   OH269214   3.210   3.996   1.195 -0.5366 -0.0022  0.3598
15908TIP3    H169215   3.201   3.901   1.198  0.0861 -0.1561 -1.4194
15908TIP3    H269216   3.127   4.027   1.157 -0.7432  0.1926  0.9450
15909TIP3   OH269217   3.914   4.346   4.386 -0.3214 -0.5592 -0.5455
15909TIP3    H169218   3.975   4.293   4.334 -0.0037  1.6621 -2.6406
15909TIP3    H269219   3.964   4.370   4.464  1.0659  0.1181 -1.5952
15910TIP3   OH269220   5.722   0.612   1.251  0.1621 -0.1524  0.6054
15910TIP3    H169221   5.637   0.654   1.239  0.6869  0.7433 -0.2243
15910TIP3    H269222   5.762   0.615   1.164  0.3921 -2.0664  0.5989
15911TIP3   OH269223   6.412   1.074  12.330  0.0682  0.4195 -0.2486
15911TIP3    H169224   6.347   1.089  12.261 -0.8721 -2.9299 -0.2571
15911TIP3    H269225   6.496   1.069  12.283 -0.2668  0.3610 -0.8583
15912TIP3   OH269226   1.539   0.210  12.567  0.3416 -0.0843  0.0705
15912TIP3    H169227   1.621   0.256  12.554  0.0121 -0.1709 -3.2267
15912TIP3    H269228   1.474   0.261  12.518 -1.0684 -1.3487  0.5221
15913TIP3   OH269229   3.925   0.940   3.462 -0.4984 -0.0228  0.2058
15913TIP3    H169230   3.955   0.922   3.373 -1.1043  0.6525 -0.1477
15913TIP3    H269231   3.874   1.021   3.454 -1.2405 -0.3946  1.0207
15914TIP3   OH269232   6.504   5.329   2.092  0.2262 -0.4725 -0.4296
15914TIP3    H169233   6.419   5.356   2.127  1.6079  2.1159  1.3110
15914TIP3    H269234   6.548   5.287   2.166  0.4925 -1.8111 -1.3185
15915TIP3   OH269235   0.023   1.380   0.610 -0.2513 -0.4307 -0.3660
15915TIP3    H169236  -0.055   1.383   0.666 -0.6166  1.2002 -0.9098
15915TIP3    H269237   0.053   1.289   0.616 -1.4503 -0.7802  0.8628
15916TIP3   OH269238   2.751   1.157   0.640  0.5050 -0.0522 -0.0960
15916TIP3    H169239   2.780   1.077   0.682  0.4119 -0.1360 -0.1923
15916TIP3    H269240   2.754   1.138   0.547 -1.6050 -0.6812 -0.0776
15917TIP3   OH269241   5.104   5.319  14.643 -0.6142  0.3632 -0.0229
15917TIP3    H169242   5.016   5.356  14.649 -0.3647  1.3451 -1.8517
15917TIP3    H269243   5.159   5.379  14.693 -0.7691  0.4456  0.0493
15918TIP3   OH269244   5.840   1.520   4.167 -0.3433  0.5093  0.1182
15918TIP3    H169245   5.900   1.594   4.177  0.6119 -0.1585 -0.4908
15918TIP3    H269246   5.759   1.559   4.133  1.1690  0.9417 -3.4365
15919TIP3   OH269247   4.047   6.414   3.357  0.2230  0.3370  0.2136
15919TIP3    H169248   3.956   6.430   3.380  0.1969 -0.0644  0.3820
15919TIP3    H269249   4.097   6.460   3.425  0.1489 -0.9582  1.1710
15920TIP3   OH269250   0.955   0.163   1.072  0.2269 -0.9786 -0.2798
15920TIP3    H169251   0.863   0.172   1.096 -0.0535 -0.6978 -1.4183
15920TIP3    H269252   0.980   0.249   1.040  0.9900 -0.9614  0.3425
15921TIP3   OH269253   2.847   1.796   0.918 -0.0069 -0.0816  0.3082
15921TIP3    H169254   2.884   1.801   1.006 -1.9993 -0.8506  1.2517
15921TIP3    H269255   2.797   1.714   0.918 -1.8749  0.9954 -0.7753
15922TIP3   OH269256   6.214   4.470   0.866  0.0241  0.2938 -0.2020
15922TIP3    H169257   6.162   4.441   0.941  0.2205 -0.8110 -0.4734
15922TIP3    H269258   6.159   4.536   0.824 -1.5379 -1.3673 -0.9188
15923TIP3   OH269259   5.315   6.389  15.993  0.5431  0.4989  0.0476
15923TIP3    H169260   5.394   6.337  16.006  0.0309 -1.1426 -2.6559
15923TIP3    H269261   5.274   6.352  15.915 -1.9763  2.4590  0.3003
15924TIP3   OH269262   4.091   0.790  10.582  0.3264  0.2887 -0.2616
15924TIP3    H169263   4.185   0.801  10.592  0.5676 -0.0125 -1.9651
15924TIP3    H269264   4.064   0.860  10.522 -0.6375  0.7008  0.6210
15925TIP3   OH269265   0.821   6.123  16.206  0.4452  0.8323  0.8468
15925TIP3    H169266   0.857   6.067  16.138 -1.3510 -0.9462  1.2516
15925TIP3    H269267   0.739   6.157  16.169 -0.9285 -0.7282  2.2806
15926TIP3   OH269268   3.926   5.047   3.144 -0.4213  0.5343 -0.3277
15926TIP3    H169269   3.903   5.039   3.051 -0.1727  0.0613 -0.3504
15926TIP3    H269270   4.020   5.032   3.147 -0.8019 -2.2501  0.3169
15927TIP3   OH269271   0.413   1.676   0.907  0.0092 -0.6996  0.0280
15927TIP3    H169272   0.385   1.749   0.853 -0.6518 -0.9944 -0.0409
15927TIP3    H269273   0.411   1.600   0.849  0.0948 -0.8768  0.2507
15928TIP3   OH269274   5.997   5.969  14.724  0.0094 -0.6236 -0.1761
15928TIP3    H169275   6.039   5.884  14.732  0.1372 -0.7243 -1.6140
15928TIP3    H269276   6.066   6.032  14.740  0.2223 -0.7986 -0.3914
15929TIP3   OH269277   2.373   0.570  12.326  0.3140  0.2284 -0.0382
15929TIP3    H169278   2.282   0.578  12.297  0.0305 -0.1324  0.7282
15929TIP3    H269279   2.423   0.563  12.245 -0.2532  1.2462 -0.5023
15930TIP3   OH269280   0.495   6.114  13.490  0.4857 -0.0291 -0.0043
15930TIP3    H169281   0.516   6.204  13.464  0.8068 -0.0887  0.0385
15930TIP3    H269282   0.442   6.123  13.569  0.3595  0.1286 -0.1072
15931TIP3   OH269283   0.003   2.661  12.105  0.0009 -0.1426  0.5816
15931TIP3    H169284   0.093   2.671  12.135 -0.1632  0.5212  0.8786
15931TIP3    H269285  -0.003   2.716  12.027 -0.0204 -0.5732  0.2729
15932TIP3   OH269286   0.917   4.184  13.268  0.4452  0.2142 -1.0840
15932TIP3    H169287   1.003   4.192  13.310  0.2834 -2.3074 -0.1009
15932TIP3    H269288   0.857   4.225  13.330  0.6370 -0.4005 -0.4751
15933TIP3   OH269289   5.638   1.215  14.985  0.2375  0.0106  0.6571
15933TIP3    H169290   5.706   1.272  15.021 -1.2479  2.3659  0.0068
15933TIP3    H269291   5.557   1.247  15.025 -0.5577 -2.8078  1.5425
15934TIP3   OH269292   2.264   2.797  14.107 -0.2155 -0.3221  0.2718
15934TIP3    H169293   2.302   2.736  14.170 -1.1465 -0.5172  0.6577
15934TIP3    H269294   2.171   2.799  14.128 -0.4517  0.0527 -0.7282
15935TIP3   OH269295   3.110   4.120  10.825 -0.0055 -0.2224 -0.7195
15935TIP3    H169296   3.196   4.161  10.816 -0.0512  0.1286  0.2869
15935TIP3    H269297   3.054   4.168  10.765 -0.5392  2.6310  1.8336
15936TIP3   OH269298   2.463   3.746   4.970 -0.0314 -0.2231 -0.0856
15936TIP3    H169299   2.414   3.676   4.926  0.9097 -0.2230 -1.1694
15936TIP3    H269300   2.548   3.707   4.988 -0.1574  0.0184  1.1157
15937TIP3   OH269301   4.637   0.393   6.098 -0.3044 -0.0376  0.2719
15937TIP3    H169302   4.547   0.379   6.129 -0.3648  3.8732  2.5565
15937TIP3    H269303   4.630   0.467   6.038  1.3613  0.2158  0.3455
15938TIP3   OH269304   6.619   1.392  13.624 -0.1022 -0.6399  0.1543
15938TIP3    H169305   6.684   1.394  13.554 -1.1390  0.6214 -0.8224
15938TIP3    H269306   6.546   1.343  13.588  0.0544 -1.5615  1.0444
15939TIP3   OH269307   1.674   0.512  14.368 -0.2927 -0.3062  0.0832
15939TIP3    H169308   1.743   0.457  14.332  1.0041 -0.2456  2.3071
15939TIP3    H269309   1.653   0.573  14.297  1.4574 -0.7332 -0.8754
15940TIP3   OH269310   0.686   4.146  12.210  0.2617  0.1116  0.1130
15940TIP3    H169311   0.766   4.117  12.167  0.2601 -0.5501  0.5361
15940TIP3    H269312   0.623   4.077  12.192  0.2758 -0.2002  1.2067
15941TIP3   OH269313   3.908   6.710   1.149 -0.2599  0.3134 -0.1768
15941TIP3    H169314   3.938   6.733   1.237  0.9488  0.5477 -0.6347
15941TIP3    H269315   3.818   6.680   1.162  0.3474 -0.9817  1.3243
15942TIP3   OH269316   5.544   6.686   6.150 -0.1342  0.4861  0.7997
15942TIP3    H169317   5.523   6.642   6.067 -0.8205 -1.8504  2.1076
15942TIP3    H269318   5.629   6.649   6.176 -0.0330  1.0172  1.2401
15943TIP3   OH269319   3.078   1.924   5.891  0.2690  0.3721 -0.4142
15943TIP3    H169320   3.144   1.864   5.924  1.0164  1.1334 -0.4842
15943TIP3    H269321   3.084   2.001   5.948 -0.8106  0.3130 -0.1942
15944TIP3   OH269322   5.982   2.627  13.713  0.2747  0.6908 -0.2290
15944TIP3    H169323   5.937   2.606  13.631  0.0348 -0.3781  0.1660
15944TIP3    H269324   5.912   2.644  13.775  0.3660 -1.2997  0.4751
15945TIP3   OH269325   6.279   6.270  16.019 -0.2658  0.4917  0.8673
15945TIP3    H169326   6.361   6.263  15.970  0.4149  2.2895  1.6793
15945TIP3    H269327   6.215   6.298  15.954  0.0620  0.4103  0.5033
15946TIP3   OH269328   4.627   3.353   6.348 -0.3657  0.4077 -0.2740
15946TIP3    H169329   4.633   3.276   6.404 -1.2195  0.3262 -0.2773
15946TIP3    H269330   4.718   3.376   6.328 -0.0734  0.1593  0.7501
15947TIP3   OH269331   0.228   5.056  15.467  0.1328 -0.1027 -0.0521
15947TIP3    H169332   0.172   5.087  15.538 -0.3971  0.7837 -0.8262
15947TIP3    H269333   0.284   4.990  15.507 -2.3678 -2.0340  0.4522
15948TIP3   OH269334   6.107   0.891   3.931  0.3278  0.2309 -0.2998
15948TIP3    H169335   6.022   0.931   3.949  0.3348  1.1977 -2.2103
15948TIP3    H269336   6.171   0.958   3.954  0.5293  0.0050 -0.1846
15949TIP3   OH269337   0.436   1.673  12.991 -0.1998  1.1413  0.3432
15949TIP3    H169338   0.487   1.640  12.917 -1.8388  1.6590 -1.0848
15949TIP3    H269339   0.498   1.726  13.041  0.9001  0.9448 -0.7579
15950TIP3   OH269340   0.494   5.498  13.638  1.0913  0.7239  0.0963
15950TIP3    H169341   0.478   5.489  13.544 -1.1573  0.6356  0.4399
15950TIP3    H269342   0.567   5.560  13.644 -0.3102  2.6738 -1.6741
15951TIP3   OH269343   0.513   2.298   1.925 -0.1005  0.2003  0.7945
15951TIP3    H169344   0.446   2.312   1.992  0.7340 -0.4846  1.8035
15951TIP3    H269345   0.463   2.280   1.845 -1.1781 -2.2453  1.9233
15952TIP3   OH269346   3.774   1.945  12.663 -0.0717 -0.2563  0.0685
15952TIP3    H169347   3.733   2.019  12.619 -0.5781 -0.2689  0.5128
15952TIP3    H269348   3.823   1.985  12.736  0.3714 -0.2807 -0.2077
15953TIP3   OH269349   0.210   5.704   0.115 -0.3325 -0.5134  0.0066
15953TIP3    H169350   0.229   5.610   0.110  2.1220 -0.0798 -0.2364
15953TIP3    H269351   0.295   5.744   0.132 -1.4704  1.6212  1.0050
15954TIP3   OH269352   3.209   3.327   1.514 -0.2716 -0.0153  0.0692
15954TIP3    H169353   3.146   3.398   1.503 -0.9442 -0.6965 -0.6300
15954TIP3    H269354   3.260   3.327   1.434  1.7707  1.5694  1.2712
15955TIP3   OH269355   1.573   0.900   5.668  0.3604 -0.6308 -0.1382
15955TIP3    H169356   1.525   0.828   5.708 -0.2786  0.0159  0.3033
15955TIP3    H269357   1.642   0.921   5.731 -1.1291  0.9072  1.0821
15956TIP3   OH269358   6.590   3.160  13.802 -0.0564 -0.3244  0.3859
15956TIP3    H169359   6.623   3.238  13.846  2.2260 -0.4611 -0.9311
15956TIP3    H269360   6.562   3.192  13.716  0.8166 -0.9201 -0.1293
15957TIP3   OH269361   1.503   2.929   3.761  0.4942  0.3344  0.1718
15957TIP3    H169362   1.501   2.977   3.844 -1.1590  0.9175 -0.1666
15957TIP3    H269363   1.411   2.920   3.736  0.9552  0.9519 -2.0269
15958TIP3   OH269364   1.489   1.373  16.330 -0.1087  0.5230 -0.0043
15958TIP3    H169365   1.573   1.399  16.367 -0.0328  0.0049  0.1904
15958TIP3    H269366   1.470   1.288  16.369 -1.8585  1.6542  1.7720
15959TIP3   OH269367   1.852   5.466  12.447 -0.5401  0.0252  0.3354
15959TIP3    H169368   1.791   5.402  12.484 -1.0915 -0.0939 -0.7377
15959TIP3    H269369   1.840   5.544  12.501 -2.6280  0.4450 -0.6079
15960TIP3   OH269370   6.141   5.834   5.287  0.2468 -0.3775  0.4896
15960TIP3    H169371   6.113   5.821   5.196 -1.6843 -2.6886  1.3027
15960TIP3    H269372   6.079   5.897   5.323  0.1767 -0.4891  0.5645
15961TIP3   OH269373   2.730   6.685  15.720  0.1353 -0.3002  0.2209
15961TIP3    H169374   2.702   6.762  15.768  2.4624  0.5594  0.3243
15961TIP3    H269375   2.773   6.629  15.785 -0.9016 -1.3810  0.0136
15962TIP3   OH269376   6.527   4.432  12.229 -0.1081  0.8253 -0.0651
15962TIP3    H169377   6.505   4.492  12.299  0.4908  0.9208  0.0513
15962TIP3    H269378   6.443   4.399  12.197 -0.3975  1.0442  0.4624
15963TIP3   OH269379   5.100   5.038   1.557 -0.1251 -0.6415 -0.4645
15963TIP3    H169380   5.193   5.060   1.557  0.0330 -1.1522  1.0376
15963TIP3    H269381   5.097   4.947   1.526 -0.2657 -0.2517 -1.6556
15964TIP3   OH269382   4.841   2.533   5.076 -0.0229  0.5510 -0.6606
15964TIP3    H169383   4.789   2.504   5.001 -0.4416 -0.0582 -0.1458
15964TIP3    H269384   4.920   2.479   5.074 -0.0440  0.5198 -0.6560
15965TIP3   OH269385   4.507   3.474   5.631  0.0150  0.1419  0.3702
15965TIP3    H169386   4.414   3.452   5.621  0.2734 -0.9637  0.3285
15965TIP3    H269387   4.554   3.401   5.590  0.9144  0.4252  0.8683
15966TIP3   OH269388   3.758   1.811  13.447  0.3355  0.3774  0.4893
15966TIP3    H169389   3.716   1.895  13.467 -1.2305 -0.5070  1.0683
15966TIP3    H269390   3.708   1.746  13.496 -0.2339 -1.2586 -2.0544
15967TIP3   OH269391   2.272   0.131   0.852  0.1935 -0.3826  0.3520
15967TIP3    H169392   2.351   0.139   0.798  0.2810 -0.3958  0.4787
15967TIP3    H269393   2.200   0.150   0.791  0.1915 -1.7720 -0.1203
15968TIP3   OH269394   2.711   4.070   5.412 -0.0302  0.1312 -0.1233
15968TIP3    H169395   2.792   4.080   5.461 -0.3174  1.4811  0.0998
15968TIP3    H269396   2.672   3.989   5.447  0.1656  0.6225  1.2874
15969TIP3   OH269397   4.518   4.916   3.008  0.4884 -0.1020 -0.4632
15969TIP3    H169398   4.591   4.939   2.950 -0.7212  2.4509 -1.1062
15969TIP3    H269399   4.444   4.965   2.973 -0.5466  0.7918  2.6910
15970TIP3   OH269400   2.698   4.470  15.656 -0.4829  0.2764 -0.0588
15970TIP3    H169401   2.744   4.514  15.585 -1.1325  0.5772 -0.3006
15970TIP3    H269402   2.705   4.530  15.731 -0.2493  0.1952 -0.0144
15971TIP3   OH269403   1.071   0.580   3.063 -0.1976 -0.3892  0.5423
15971TIP3    H169404   1.037   0.595   3.152  0.2375 -0.0841  0.6589
15971TIP3    H269405   1.020   0.505   3.031 -1.4318  0.4584  0.4688
15972TIP3   OH269406   0.516   6.676   1.643 -0.6914  0.5285 -0.1352
15972TIP3    H169407   0.546   6.653   1.555 -0.1669  2.1216 -0.4052
15972TIP3    H269408   0.476   6.762   1.633  1.4778  1.8413  1.5522
15973TIP3   OH269409   4.686   4.628   5.458  0.1134  0.0788  0.3234
15973TIP3    H169410   4.616   4.574   5.420 -0.4364  1.4744 -0.7594
15973TIP3    H269411   4.664   4.717   5.431  1.9300  0.6446  0.5992
15974TIP3   OH269412   4.529   6.045   3.717  0.3747 -0.1375 -0.0927
15974TIP3    H169413   4.532   6.010   3.806  1.8022  2.0491  0.7881
15974TIP3    H269414   4.499   5.971   3.664  0.2897 -1.7521  2.0556
15975TIP3   OH269415   5.257   0.972  13.751  0.0096  0.1381 -0.1762
15975TIP3    H169416   5.259   0.935  13.839 -1.1396  0.5689  0.0429
15975TIP3    H269417   5.303   1.055  13.760  1.7510 -0.7432 -0.4640
15976TIP3   OH269418   3.185   4.963   3.938 -0.0885 -0.3083  0.1019
15976TIP3    H169419   3.167   5.055   3.916 -0.6454 -0.0488  1.5498
15976TIP3    H269420   3.154   4.914   3.862  2.4281  0.7946 -1.8231
15977TIP3   OH269421   2.180   1.402  13.424 -0.6731  0.0539 -0.0060
15977TIP3    H169422   2.092   1.419  13.459 -0.1197 -0.2497  1.6152
15977TIP3    H269423   2.237   1.461  13.474  0.1807 -0.5526 -0.2461
15978TIP3   OH269424   3.718   3.192   1.386  0.0968  0.3411 -0.5735
15978TIP3    H169425   3.774   3.269   1.394 -0.1348  0.6387 -1.5895
15978TIP3    H269426   3.771   3.130   1.335  0.1081  0.0012 -0.1508
15979TIP3   OH269427   2.737   3.081   4.720  0.6186  0.0780 -0.3191
15979TIP3    H169428   2.756   3.173   4.738  0.1655 -0.1257  1.4228
15979TIP3    H269429   2.658   3.063   4.771 -0.3680 -0.8156 -2.0936
15980TIP3   OH269430   3.230   3.886  12.499  0.1937  0.6215 -0.0132
15980TIP3    H169431   3.189   3.935  12.571  0.1033  0.9306 -0.2716
15980TIP3    H269432   3.314   3.930  12.485  0.9256 -0.4234  0.9615
15981TIP3   OH269433   2.093   2.160  15.337  0.7414 -0.6585 -0.0113
15981TIP3    H169434   2.059   2.072  15.325 -3.0976  0.7724 -1.2293
15981TIP3    H269435   2.071   2.182  15.428 -2.2628  0.3254 -0.8407
15982TIP3   OH269436   3.566   3.702  12.395 -0.2238 -0.4276  0.4647
15982TIP3    H169437   3.607   3.616  12.402  0.2095 -0.2118  0.5923
15982TIP3    H269438   3.639   3.763  12.380 -0.5638 -0.1349 -0.0374
15983TIP3   OH269439   2.825   0.953   0.310  0.1187  0.2455 -0.1592
15983TIP3    H169440   2.742   0.980   0.349  0.9412 -1.2579  3.0166
15983TIP3    H269441   2.815   0.858   0.296  1.0693  0.1710 -0.3721
15984TIP3   OH269442   1.061   1.609  13.850 -0.3536 -0.5561  0.2287
15984TIP3    H169443   1.111   1.687  13.823 -1.8080  0.0373 -0.9325
15984TIP3    H269444   0.996   1.642  13.912 -0.0244 -1.1090  0.8712
15985TIP3   OH269445   2.295   3.278   4.846  0.0344 -0.2707  0.4120
15985TIP3    H169446   2.216   3.310   4.889  0.1800 -0.1846  0.6148
15985TIP3    H269447   2.342   3.229   4.913 -0.3630 -1.2186  0.0045
15986TIP3   OH269448   6.183   5.111   5.775 -0.0974 -0.3276 -0.4323
15986TIP3    H169449   6.100   5.079   5.810  0.9528 -1.6297  0.9896
15986TIP3    H269450   6.160   5.194   5.732 -2.1199 -0.6734 -0.1285
15987TIP3   OH269451   5.123   2.382   5.682 -0.5118 -0.0268 -0.5172
15987TIP3    H169452   5.119   2.325   5.605  2.0101 -1.6677  0.4084
15987TIP3    H269453   5.134   2.322   5.755 -2.1736  1.5227  1.0881
15988TIP3   OH269454   1.965   1.739   1.082  0.0386 -0.0870 -0.1298
15988TIP3    H169455   2.010   1.816   1.047  0.2093  0.3179  0.9149
15988TIP3    H269456   1.980   1.670   1.018 -0.6320  0.8975 -1.3893
15989TIP3   OH269457   0.456   5.722   5.157 -0.5750 -0.1213 -0.0961
15989TIP3    H169458   0.401   5.795   5.187 -1.9525 -0.7477 -0.9876
15989TIP3    H269459   0.400   5.645   5.164  0.2483 -0.8195 -0.8866
15990TIP3   OH269460   0.913   0.610   5.213  0.3796 -0.2610  0.6123
15990TIP3    H169461   0.850   0.575   5.150  0.5997 -1.2914  0.9477
15990TIP3    H269462   0.860   0.647   5.283  0.1295  0.8968 -0.1472
15991TIP3   OH269463   3.696   4.336  12.941  0.4691  0.1357  0.1737
15991TIP3    H169464   3.714   4.242  12.950 -0.4328  0.0351  1.1294
15991TIP3    H269465   3.778   4.373  12.908  0.7254 -1.0336 -0.5534
15992TIP3   OH269466   3.180   4.763   0.073 -0.1288  0.6005  0.3745
15992TIP3    H169467   3.275   4.777   0.076  0.0686 -0.4661 -0.3437
15992TIP3    H269468   3.149   4.823   0.006  0.1577  0.3791  0.0417
15993TIP3   OH269469   2.727   5.312  12.656  0.4338  0.0546 -0.4865
15993TIP3    H169470   2.635   5.337  12.656  0.0670 -1.1429 -1.9060
15993TIP3    H269471   2.770   5.377  12.601  0.3992  0.4549 -0.0475
15994TIP3   OH269472   0.988   4.882  16.195  0.0834  0.3248  0.0046
15994TIP3    H169473   1.070   4.926  16.215 -1.0566  1.9790  1.3289
15994TIP3    H269474   1.010   4.821  16.125  2.7539 -0.4757  1.4224
15995TIP3   OH269475   1.463   4.436  11.494 -0.0588 -0.3336  0.2359
15995TIP3    H169476   1.543   4.436  11.545 -1.1372  0.3972  2.0411
15995TIP3    H269477   1.400   4.386  11.547 -1.4954  1.2860  0.1799
15996TIP3   OH269478   6.404   3.875  13.732  0.0227 -0.0470  0.0878
15996TIP3    H169479   6.443   3.809  13.790  0.1001 -0.6123 -0.5960
15996TIP3    H269480   6.314   3.885  13.764 -0.3022 -1.2168 -0.3892
15997TIP3   OH269481   5.226   1.002   0.430  0.3708  0.6893  0.1410
15997TIP3    H169482   5.175   0.983   0.509  2.5181  1.1946  1.7562
15997TIP3    H269483   5.294   0.935   0.428  1.4070  1.7132 -0.2650
15998TIP3   OH269484   2.543   1.954   3.265  0.6277 -0.6252 -0.3520
15998TIP3    H169485   2.591   1.917   3.191 -1.0449  0.1968 -1.9540
15998TIP3    H269486   2.456   1.973   3.229  0.0213  0.6157  1.6145
15999TIP3   OH269487   2.447   2.047   2.520 -0.3974  0.3479 -0.7217
15999TIP3    H169488   2.373   2.038   2.460 -0.9249 -1.5766  0.1367
15999TIP3    H269489   2.411   2.096   2.594 -0.7783 -0.4350 -0.3809
16000TIP3   OH269490   3.280   5.318   0.401  0.1526  0.1434 -0.0604
16000TIP3    H169491   3.333   5.245   0.371 -0.0984 -0.3495  0.6663
16000TIP3    H269492   3.291   5.318   0.496  0.2979  1.1672 -0.0600
16001TIP3   OH269493   0.528   4.772   2.316  0.7812  0.3646  0.6844
16001TIP3    H169494   0.597   4.705   2.317  0.6830  0.1612 -1.5021
16001TIP3    H269495   0.574   4.855   2.329  1.1925  0.0758  1.0979
16002TIP3   OH269496   5.941   1.553   1.250 -0.3157 -0.7550  0.0898
16002TIP3    H169497   5.989   1.550   1.333 -0.0394 -2.2397 -0.0904
16002TIP3    H269498   6.005   1.586   1.187 -0.5944  0.5981  0.4848
16003TIP3   OH269499   0.781   5.757  15.317  0.0714  0.0572 -0.5462
16003TIP3    H169500   0.777   5.664  15.336 -1.6342  0.0926 -0.6325
16003TIP3    H269501   0.794   5.799  15.402  2.7881 -0.3042 -0.6899
16004TIP3   OH269502   5.265   6.298  15.292 -0.1160 -0.3702  0.0021
16004TIP3    H169503   5.223   6.213  15.280  1.8682 -1.4279  0.1824
16004TIP3    H269504   5.323   6.286  15.367 -0.9822  1.6518  1.0813
16005TIP3   OH269505   5.730   3.741   0.486 -0.0559  0.2246 -0.1209
16005TIP3    H169506   5.741   3.837   0.484 -2.4649  0.5673 -0.0382
16005TIP3    H269507   5.684   3.721   0.405 -0.4066 -0.7460  0.3105
16006TIP3   OH269508   2.140   1.209   4.005 -0.2164  0.7495  0.0268
16006TIP3    H169509   2.114   1.219   3.913  0.6450  0.4348 -0.2718
16006TIP3    H269510   2.146   1.114   4.018  2.3129  0.7510 -0.4348
16007TIP3   OH269511   1.910   2.280  13.828  0.3548  0.0937 -0.2027
16007TIP3    H169512   1.858   2.201  13.841  1.7322 -0.5742  1.8523
16007TIP3    H269513   1.850   2.352  13.847 -0.3659 -0.5647  0.0616
16008TIP3   OH269514   0.210   6.283  14.512  0.0069 -0.0280 -0.7469
16008TIP3    H169515   0.216   6.293  14.607  0.9961  1.3186 -0.9240
16008TIP3    H269516   0.292   6.242  14.487  0.9213  2.0050 -1.2659
16009TIP3   OH269517   4.613   3.557   4.262  0.1001 -0.5091 -0.2708
16009TIP3    H169518   4.539   3.498   4.252  1.0121 -1.9127  0.8560
16009TIP3    H269519   4.575   3.636   4.302 -1.3894  0.3705 -3.1813
16010TIP3   OH269520   2.193   3.355   3.533  0.6237  0.1583  0.1340
16010TIP3    H169521   2.189   3.354   3.437  1.2632  0.2606  0.1003
16010TIP3    H269522   2.271   3.406   3.553 -0.0681  0.9984  0.7345
16011TIP3   OH269523   6.102   2.600   6.354  0.0664  0.6864  0.2628
16011TIP3    H169524   6.134   2.543   6.423 -2.2672  0.3038  1.1330
16011TIP3    H269525   6.133   2.561   6.273 -0.8740 -1.4807  0.8755
16012TIP3   OH269526   5.491   3.893   5.506  0.0568 -0.5022 -0.0391
16012TIP3    H169527   5.409   3.887   5.457 -1.6018 -1.7595  2.6162
16012TIP3    H269528   5.513   3.986   5.506 -2.0859  0.0507  0.2021
16013TIP3   OH269529   2.395   6.279  11.508  0.0967 -0.0331  0.8946
16013TIP3    H169530   2.470   6.220  11.516 -0.8002 -2.0734 -3.0903
16013TIP3    H269531   2.409   6.325  11.426 -2.4966  0.3238  0.5659
16014TIP3   OH269532   4.600   2.022  16.639 -0.3751  0.8141 -0.0005
16014TIP3    H169533   4.549   1.986  16.566  0.8893  0.2186 -0.6234
16014TIP3    H269534   4.607   1.948  16.700  0.6633  0.5474 -0.4296
16015TIP3   OH269535   0.522   1.010  15.930  0.3502 -0.5813  0.0510
16015TIP3    H169536   0.451   1.026  15.991 -0.0746  0.9193 -0.7696
16015TIP3    H269537   0.489   0.940  15.873  0.1391 -0.9202  0.5798
16016TIP3   OH269538   4.044   6.174  13.982  0.4183 -0.7921  0.1031
16016TIP3    H169539   4.058   6.186  14.076 -2.9212 -0.7126  0.7202
16016TIP3    H269540   4.031   6.263  13.949  0.8200 -0.8861 -0.3185
16017TIP3   OH269541   6.572   1.296   3.731  0.3152 -0.0020  0.2101
16017TIP3    H169542   6.666   1.313   3.738  0.7014 -1.3651 -1.0640
16017TIP3    H269543   6.546   1.272   3.820  1.2687  0.0045  0.5080
16018TIP3   OH269544   4.802   2.394   0.804  0.0631  0.1021  0.1516
16018TIP3    H169545   4.727   2.340   0.830  0.9815 -0.4075  1.9764
16018TIP3    H269546   4.769   2.449   0.733 -1.1551 -2.2492 -1.2124
16019TIP3   OH269547   0.743   2.459   5.836 -0.0341  0.9199  0.0075
16019TIP3    H169548   0.756   2.364   5.826 -2.5223  0.5864 -0.8821
16019TIP3    H269549   0.736   2.473   5.930  1.9075  0.5061  0.2497
16020TIP3   OH269550   0.481   4.691   5.544 -0.1976 -0.1521  0.3406
16020TIP3    H169551   0.429   4.772   5.551  0.0140  0.0364 -0.2650
16020TIP3    H269552   0.483   4.672   5.451  1.8227  0.4944  0.2150
16021TIP3   OH269553   2.242   5.598  13.074  0.0415  0.0292  0.2093
16021TIP3    H169554   2.204   5.656  13.139 -1.4343 -1.4775  0.7585
16021TIP3    H269555   2.169   5.546  13.041  1.1649 -1.0154 -0.7952
16022TIP3   OH269556   1.121   1.216   3.514  0.7517 -0.7534 -0.0287
16022TIP3    H169557   1.083   1.297   3.482 -0.5061 -1.1588  0.4038
16022TIP3    H269558   1.204   1.242   3.554  0.1717  0.3700  0.4585
16023TIP3   OH269559   3.104   4.888  12.895  0.0984  0.1323  0.0206
16023TIP3    H169560   3.148   4.935  12.967 -0.1677  0.1006  0.2053
16023TIP3    H269561   3.021   4.933  12.884  0.4202  0.5585 -0.7246
16024TIP3   OH269562   2.270   4.026   5.549 -0.2730  0.2830 -0.0328
16024TIP3    H169563   2.264   4.081   5.627  2.2600  0.1028  0.3730
16024TIP3    H269564   2.290   3.939   5.584 -0.2405 -0.0313 -0.8330
16025TIP3   OH269565   5.219   0.955  13.126  0.0689 -0.3462  0.0670
16025TIP3    H169566   5.232   1.028  13.066  2.8281 -0.2632  0.6602
16025TIP3    H269567   5.259   0.880  13.082 -0.9390 -1.0757  0.3493
16026TIP3   OH269568   2.223   3.230  12.301 -0.0709  0.2466 -0.0458
16026TIP3    H169569   2.129   3.228  12.315 -0.0271 -1.4573  0.2361
16026TIP3    H269570   2.256   3.154  12.349  1.4973  1.0373  0.1808
16027TIP3   OH269571   2.064   6.057  14.706 -0.5188  0.0980 -1.1911
16027TIP3    H169572   2.125   6.061  14.632 -0.5294  0.3502 -1.1865
16027TIP3    H269573   1.995   6.120  14.683 -1.5327 -1.2084 -1.8718
16028TIP3   OH269574   2.589   0.019  14.743 -0.0138  0.1618 -0.0651
16028TIP3    H169575   2.674   0.057  14.723  0.5965 -1.3955 -0.5713
16028TIP3    H269576   2.576   0.035  14.836  0.2806  1.4350 -0.2272
16029TIP3   OH269577   2.128   6.711   0.003 -0.3453  0.1541  0.1496
16029TIP3    H169578   2.050   6.698   0.056 -0.1364  0.4867  0.5463
16029TIP3    H269579   2.141   6.806   0.002  0.2497  0.0844  0.3855
16030TIP3   OH269580   1.397   3.134  14.423 -0.3732 -0.0610  0.0656
16030TIP3    H169581   1.488   3.162  14.424 -0.3746 -0.0439 -0.2320
16030TIP3    H269582   1.346   3.215  14.422 -0.4486 -0.0040  2.1886
16031TIP3   OH269583   5.402   4.527  13.518 -0.1465 -0.4050 -0.0540
16031TIP3    H169584   5.462   4.508  13.445  0.3776 -0.6066  0.4219
16031TIP3    H269585   5.404   4.622  13.527 -0.6486 -0.3297 -0.6617
16032TIP3   OH269586   0.292   1.291  11.565 -0.1161 -0.1032  0.2503
16032TIP3    H169587   0.335   1.363  11.519 -0.1057  0.6937  1.4512
16032TIP3    H269588   0.232   1.334  11.626 -0.7581 -1.1388  0.3657
16033TIP3   OH269589   1.281   0.651  17.034 -0.0131 -0.8624  0.0602
16033TIP3    H169590   1.356   0.673  16.979 -0.8814 -0.5810 -1.0550
16033TIP3    H269591   1.319   0.623  17.117  1.2938 -0.0307 -0.2319
16034TIP3   OH269592   1.814   4.296  15.532 -0.5896 -0.2169 -0.1824
16034TIP3    H169593   1.805   4.201  15.526 -1.2931 -0.1149 -0.9748
16034TIP3    H269594   1.893   4.310  15.584  0.1603 -1.2485 -1.0153
16035TIP3   OH269595   1.510   1.530  10.198  0.7697  0.0397 -0.2751
16035TIP3    H169596   1.448   1.602  10.191  0.6743  0.2064  1.7433
16035TIP3    H269597   1.594   1.568  10.173  0.9785  1.2842  2.0673
16036TIP3   OH269598   0.512   3.714   1.560  0.2250 -0.5272  1.0841
16036TIP3    H169599   0.471   3.659   1.493 -0.2490  0.1981  0.7690
16036TIP3    H269600   0.464   3.692   1.640 -1.3627  0.8742  0.5763
16037TIP3   OH269601   4.347   3.273   2.531 -0.4000  0.9303  0.2717
16037TIP3    H169602   4.358   3.184   2.499  0.8793  0.6887  1.2906
16037TIP3    H269603   4.403   3.326   2.474 -0.9648  1.0491 -0.1760
16038TIP3   OH269604   5.532   0.098  13.230 -1.1217 -0.5887  0.0808
16038TIP3    H169605   5.497   0.047  13.303  0.7113  0.3436  1.7070
16038TIP3    H269606   5.558   0.033  13.165 -0.9093 -1.5705  1.1219
16039TIP3   OH269607   4.319   0.732   0.709 -0.4669 -0.0879 -0.1354
16039TIP3    H169608   4.252   0.663   0.708  0.3337 -0.8819 -0.1689
16039TIP3    H269609   4.398   0.689   0.676 -0.0772  0.9841 -0.6390
16040TIP3   OH269610   1.490   0.492  11.498 -0.9438 -0.4655  0.0784
16040TIP3    H169611   1.467   0.399  11.493  2.2164 -1.3779  0.4102
16040TIP3    H269612   1.516   0.506  11.589 -0.3173  0.4343 -0.2216
16041TIP3   OH269613   6.599   1.129  13.124 -0.0966 -0.5597  0.4099
16041TIP3    H169614   6.688   1.125  13.088  0.7418  0.9751  2.2024
16041TIP3    H269615   6.544   1.151  13.048  1.5394  2.0606 -0.1156
16042TIP3   OH269616   5.928   1.744  10.881 -0.2993 -0.5239  0.1894
16042TIP3    H169617   6.021   1.733  10.861 -0.7544 -2.9284 -1.0113
16042TIP3    H269618   5.902   1.821  10.830  0.9899  0.1703  0.5174
16043TIP3   OH269619   6.176   0.814  15.227  0.3200  0.2303  0.0707
16043TIP3    H169620   6.271   0.815  15.237  0.6964  3.6230 -2.2106
16043TIP3    H269621   6.162   0.768  15.144 -0.0528 -0.0830  0.3020
16044TIP3   OH269622   1.905   6.830   3.670  0.0173 -0.8271  0.0800
16044TIP3    H169623   1.871   6.822   3.581  0.0739 -0.0762 -0.0151
16044TIP3    H269624   2.000   6.827   3.660  0.0617  0.4342 -0.0239
16045TIP3   OH269625   1.379   6.388  16.921  0.2491  0.2983  0.5273
16045TIP3    H169626   1.414   6.475  16.905 -0.2593  1.0976  3.2849
16045TIP3    H269627   1.286   6.395  16.902  0.4288 -0.0530 -0.5544
16046TIP3   OH269628   3.499   3.923  13.631 -0.3188  0.1148 -0.3278
16046TIP3    H169629   3.427   3.981  13.606 -0.4343  0.7580  1.4055
16046TIP3    H269630   3.473   3.887  13.715  0.5757 -1.0893 -0.5439
16047TIP3   OH269631   6.753   4.702  15.591  0.5606  0.1846 -0.0096
16047TIP3    H169632   6.767   4.678  15.682 -1.2219  0.8726  0.4833
16047TIP3    H269633   6.756   4.618  15.543  0.3574 -0.3172  0.8376
16048TIP3   OH269634   3.033   0.797   5.745 -0.2723  0.0015  0.1451
16048TIP3    H169635   2.969   0.792   5.673  0.0572  0.6113 -0.1975
16048TIP3    H269636   2.990   0.751   5.817 -1.6956  1.5675  0.3623
16049TIP3   OH269637   1.066   1.280  11.896  0.2867 -0.0328  0.0488
16049TIP3    H169638   1.106   1.333  11.965  0.5575  1.1869 -0.9976
16049TIP3    H269639   1.089   1.190  11.919  2.0339  0.4822  0.5119
16050TIP3   OH269640   4.944   0.783  13.469  0.5106  0.2753 -0.1001
16050TIP3    H169641   4.940   0.796  13.374 -0.5533  1.0052  0.0299
16050TIP3    H269642   5.011   0.716  13.481  0.3689 -0.1264 -1.3947
16051TIP3   OH269643   6.534   6.192  13.957 -0.3500  0.6563 -0.6223
16051TIP3    H169644   6.580   6.109  13.950 -1.2763  0.0037  0.5856
16051TIP3    H269645   6.521   6.220  13.866 -0.0455 -0.5350 -1.0498
16052TIP3   OH269646   2.496   5.180   3.026 -0.1363  0.0889 -0.7502
16052TIP3    H169647   2.428   5.216   2.969 -1.4486 -1.2567 -0.0891
16052TIP3    H269648   2.523   5.099   2.983 -0.1230 -0.2141 -0.1785
16053TIP3   OH269649   5.731   4.462   2.649  0.6491 -0.1476  0.1739
16053TIP3    H169650   5.793   4.480   2.578  1.6943 -0.4121  0.9949
16053TIP3    H269651   5.725   4.544   2.697  0.7306 -0.2558  0.3706
16054TIP3   OH269652   5.580   6.616  12.030 -0.3017  0.1810  0.2091
16054TIP3    H169653   5.528   6.545  12.068 -2.1812  1.4784  0.2089
16054TIP3    H269654   5.667   6.578  12.017 -1.0975 -1.9457  0.6835
16055TIP3   OH269655   3.215   3.775   2.606 -0.2480 -0.0599 -0.2791
16055TIP3    H169656   3.169   3.705   2.653 -0.0938  0.4872  0.7264
16055TIP3    H269657   3.207   3.851   2.664  1.2248  0.2593 -0.4539
16056TIP3   OH269658   6.773   1.988  14.709  0.0286  0.8082  0.4489
16056TIP3    H169659   6.854   1.950  14.677 -0.4971 -0.8969  1.0594
16056TIP3    H269660   6.769   2.074  14.667 -0.1730 -0.8731 -3.3574
16057TIP3   OH269661   6.392   3.056  10.919  0.1633  0.0795 -0.0884
16057TIP3    H169662   6.382   2.969  10.958  0.1280  0.4562  0.7494
16057TIP3    H269663   6.311   3.102  10.942  1.7326  1.6385  2.8488
16058TIP3   OH269664   6.338   0.493  11.528 -0.1152 -0.4426 -0.1834
16058TIP3    H169665   6.252   0.518  11.494  0.9080  2.5531 -0.8748
16058TIP3    H269666   6.397   0.502  11.453  1.4213  1.6616  1.1728
16059TIP3   OH269667   0.357   0.711  11.410  0.1943 -0.6635 -0.0170
16059TIP3    H169668   0.277   0.727  11.359  0.1072 -0.7278  0.0979
16059TIP3    H269669   0.397   0.634  11.369  1.3044  0.6024 -1.4027
16060TIP3   OH269670   1.789   4.857  15.596 -0.6468  0.1912 -0.1438
16060TIP3    H169671   1.803   4.771  15.557  0.1877  0.5517 -0.6558
16060TIP3    H269672   1.742   4.907  15.530 -1.5130  0.0094  0.3177
16061TIP3   OH269673   2.361   0.761  13.974 -0.4001  0.3275  0.0715
16061TIP3    H169674   2.448   0.722  13.983 -0.5790  0.0614  0.7413
16061TIP3    H269675   2.306   0.711  14.035 -1.3379 -0.4095 -1.3416
16062TIP3   OH269676   5.176   0.871  11.588  0.2896  0.2180 -0.0799
16062TIP3    H169677   5.208   0.952  11.549 -0.1080  0.1240 -0.6154
16062TIP3    H269678   5.117   0.835  11.522 -2.9861  1.6656  1.7644
16063TIP3   OH269679   0.066   4.451  15.461 -0.7515  0.0975 -0.0323
16063TIP3    H169680   0.098   4.502  15.536 -2.0626 -1.2179  1.4987
16063TIP3    H269681   0.083   4.360  15.484  0.9937 -0.2627 -2.4526
16064TIP3   OH269682   4.768   4.787   2.397 -0.3051 -0.0096 -0.4089
16064TIP3    H169683   4.717   4.735   2.460 -2.7663  0.6933 -1.7107
16064TIP3    H269684   4.713   4.791   2.319  1.2248  1.9098 -1.4683
16065TIP3   OH269685   5.351   2.429   3.855 -0.4298 -0.2968  0.3862
16065TIP3    H169686   5.427   2.370   3.846 -1.4904 -1.5133 -1.1524
16065TIP3    H269687   5.385   2.515   3.831  0.1283 -1.1151 -2.1424
16066TIP3   OH269688   5.316   6.531   5.182  0.0393  0.5745  0.3227
16066TIP3    H169689   5.309   6.504   5.274 -1.2053  0.7068  0.2894
16066TIP3    H269690   5.403   6.570   5.175  1.0926 -1.5167  0.8696
16067TIP3   OH269691   3.515   2.463   5.569 -0.3490  0.5363 -0.6711
16067TIP3    H169692   3.546   2.504   5.488  1.3278 -2.2456 -1.5901
16067TIP3    H269693   3.487   2.376   5.543  0.5580 -0.5876  1.7489
16068TIP3   OH269694   2.889   2.839  14.408 -0.3921 -0.2443 -0.2820
16068TIP3    H169695   2.814   2.834  14.467 -1.0679  0.0983 -1.0980
16068TIP3    H269696   2.932   2.922  14.431 -0.3737 -0.3476  0.0549
16069TIP3   OH269697   2.070   2.375  16.263 -0.1353  0.2982  0.3060
16069TIP3    H169698   2.057   2.432  16.339  1.6635  1.8879 -0.4768
16069TIP3    H269699   2.133   2.422  16.209  0.5874 -1.9602 -0.9568
16070TIP3   OH269700   3.682   4.721  10.047  0.0023 -0.2635 -0.0916
16070TIP3    H169701   3.610   4.694  10.104 -0.4303  0.4659 -0.2781
16070TIP3    H269702   3.697   4.813  10.070  1.4873 -0.6463  0.5843
16071TIP3   OH269703   6.828   4.459   1.074  0.2248 -0.0418  0.5019
16071TIP3    H169704   6.758   4.513   1.036  0.4580  1.0306  1.5458
16071TIP3    H269705   6.900   4.465   1.011 -0.0815  0.1048  0.1625
16072TIP3   OH269706   4.606   4.629   3.426 -0.3261 -0.2100 -0.4841
16072TIP3    H169707   4.679   4.672   3.471 -1.7715  1.5540  0.3390
16072TIP3    H269708   4.549   4.599   3.496 -0.6731 -1.0884 -1.1213
16073TIP3   OH269709   1.658   2.381   5.484 -0.0511  0.3240 -0.0428
16073TIP3    H169710   1.685   2.362   5.574  2.1571  2.0221 -0.2628
16073TIP3    H269711   1.738   2.407   5.440 -1.1135 -0.3330 -2.5141
16074TIP3   OH269712   3.549   5.063  13.713  0.4652  0.0694 -0.1280
16074TIP3    H169713   3.619   5.127  13.699 -0.2338  0.6396 -1.1004
16074TIP3    H269714   3.586   5.001  13.775  1.1812  1.3741  0.7870
16075TIP3   OH269715   2.976   4.622  11.730 -0.6905 -0.1301  0.5168
16075TIP3    H169716   3.070   4.608  11.722 -0.7116  0.8915 -2.8797
16075TIP3    H269717   2.962   4.637  11.823  2.3331 -1.2137  1.2612
16076TIP3   OH269718   4.413   2.827  11.714 -0.0745  0.0768  0.1575
16076TIP3    H169719   4.389   2.867  11.631 -0.8685 -0.8626 -0.0811
16076TIP3    H269720   4.495   2.781  11.695 -0.0875  0.1284 -0.0252
16077TIP3   OH269721   0.685   2.916   0.485  0.3651 -0.0341 -0.1301
16077TIP3    H169722   0.778   2.936   0.483  0.5725 -0.9866 -0.2649
16077TIP3    H269723   0.666   2.884   0.397 -0.4160  1.5054 -0.5721
16078TIP3   OH269724   0.787   3.479  13.536  0.7329  0.6931 -0.5214
16078TIP3    H169725   0.739   3.502  13.616  0.7695  0.1994 -0.3561
16078TIP3    H269726   0.809   3.563  13.497  1.1158  0.9497  0.2265
16079TIP3   OH269727   3.312   4.943   5.015 -0.2005 -0.4392  0.7579
16079TIP3    H169728   3.347   4.996   5.086  1.2350 -0.7013  0.2785
16079TIP3    H269729   3.292   4.858   5.055 -1.2908  0.0390  1.2522
16080TIP3   OH269730   5.221   1.450  15.200  0.3623  0.0689  0.1600
16080TIP3    H169731   5.135   1.450  15.241  0.9918 -0.0633  1.5585
16080TIP3    H269732   5.232   1.360  15.167  0.2218 -0.0929  0.5480
16081TIP3   OH269733   3.563   5.941  16.316  0.1559  0.1279 -0.0341
16081TIP3    H169734   3.658   5.953  16.310  0.1496  0.4725  0.5073
16081TIP3    H269735   3.531   6.022  16.354 -0.1515 -0.6469  1.4752
16082TIP3   OH269736   2.153   3.794  10.378  0.3440  0.3204  0.1624
16082TIP3    H169737   2.078   3.735  10.373 -1.8760  3.0020 -1.0758
16082TIP3    H269738   2.201   3.778  10.297  0.4165 -0.5378  0.3656
16083TIP3   OH269739   1.524   4.715  17.040  0.0831  0.2205  0.0935
16083TIP3    H169740   1.445   4.662  17.049  0.7516 -1.2384 -1.8301
16083TIP3    H269741   1.529   4.765  17.121 -1.4471 -1.5059  1.3372
16084TIP3   OH269742   3.921   2.954   0.416  0.0559 -1.0127 -0.3056
16084TIP3    H169743   3.946   3.012   0.344 -1.0563 -0.0056  0.0753
16084TIP3    H269744   3.917   3.012   0.493  1.1661 -2.0461  0.5765
16085TIP3   OH269745   6.831   1.616  10.654  0.4513  0.2013 -0.3610
16085TIP3    H169746   6.748   1.660  10.672  0.4819 -0.5804  2.0596
16085TIP3    H269747   6.896   1.686  10.657  0.1712  0.4481  0.6171
16086TIP3   OH269748   4.433   4.620  10.899 -0.0643 -0.0997  0.8431
16086TIP3    H169749   4.383   4.698  10.924  0.8660  0.8235 -0.1108
16086TIP3    H269750   4.385   4.584  10.824 -0.0711 -0.0109  0.8045
16087TIP3   OH269751   2.846   2.410  12.640  0.3789  0.8190 -0.3708
16087TIP3    H169752   2.755   2.429  12.659 -0.4835 -1.1030 -2.2222
16087TIP3    H269753   2.884   2.389  12.726 -1.5014 -0.4885  0.2212
16088TIP3   OH269754   6.262   5.147  16.316  0.6995 -0.0612 -0.0297
16088TIP3    H169755   6.328   5.086  16.282 -0.0220 -0.9087  0.0497
16088TIP3    H269756   6.180   5.117  16.278  0.3403  0.9239 -0.0509
16089TIP3   OH269757   2.535   6.294  15.330  0.7551  0.4128 -0.2203
16089TIP3    H169758   2.479   6.310  15.254  1.9085 -1.4593 -1.5448
16089TIP3    H269759   2.616   6.342  15.311  0.5050  1.1633  0.5577
16090TIP3   OH269760   2.083   0.726   3.428  0.3653 -0.1128  0.1401
16090TIP3    H169761   2.101   0.768   3.512  1.8446  0.5999 -0.4892
16090TIP3    H269762   2.170   0.710   3.390 -0.2574  0.8702 -1.8499
16091TIP3   OH269763   1.606   6.182  12.338 -0.0997 -0.5494  0.1192
16091TIP3    H169764   1.701   6.181  12.331 -0.1223  1.1945 -1.4346
16091TIP3    H269765   1.588   6.218  12.425  0.6789 -0.3349  0.1922
16092TIP3   OH269766   1.122   0.856  14.120 -0.5064 -0.3579  0.1783
16092TIP3    H169767   1.177   0.929  14.091 -2.0716  1.0806  0.6790
16092TIP3    H269768   1.064   0.895  14.186 -1.6999 -1.9588  0.1186
16093TIP3   OH269769   6.523   5.890  11.115  0.6984  0.0920 -0.2072
16093TIP3    H169770   6.474   5.883  11.033 -0.4944  0.4226  0.4592
16093TIP3    H269771   6.473   5.951  11.168  2.1209  0.8457  0.3181
16094TIP3   OH269772   3.788   6.710  13.075  0.4123  0.1547  0.1811
16094TIP3    H169773   3.767   6.799  13.047 -0.1829  0.4307  1.4491
16094TIP3    H269774   3.872   6.691  13.032 -0.1184  0.7876 -1.2068
16095TIP3   OH269775   0.698   4.510   0.416 -0.1854 -0.4034 -0.2973
16095TIP3    H169776   0.729   4.421   0.434 -0.7692 -0.5779 -0.1489
16095TIP3    H269777   0.690   4.515   0.321  0.3163 -0.3491 -0.3390
16096TIP3   OH269778   4.960   1.108  17.020 -0.3718  0.4194  0.3043
16096TIP3    H169779   5.021   1.090  16.949 -0.1823  3.7250 -0.5245
16096TIP3    H269780   4.888   1.047  17.005  1.7394 -2.2069  0.1590
16097TIP3   OH269781   1.312   5.185   2.727 -0.1593 -0.1598  0.1691
16097TIP3    H169782   1.267   5.267   2.711  0.3444 -0.0908 -1.0059
16097TIP3    H269783   1.384   5.184   2.663 -0.4132 -1.6905 -0.1297
16098TIP3   OH269784   3.254   1.022  14.008 -0.2684 -0.1234  0.3755
16098TIP3    H169785   3.162   1.009  14.029 -0.6670 -0.0511 -1.2446
16098TIP3    H269786   3.276   0.950  13.948 -0.0217  1.3618 -1.3856
16099TIP3   OH269787   6.118   5.252   2.533  0.4737 -0.6141  0.1200
16099TIP3    H169788   6.141   5.173   2.581  0.3708 -2.0118 -1.9901
16099TIP3    H269789   6.075   5.220   2.453 -0.8062  1.6299 -0.1639
16100TIP3   OH269790   2.461   1.611   0.917  0.6456  0.2616  0.3370
16100TIP3    H169791   2.551   1.583   0.931  0.9637  1.9764  2.0877
16100TIP3    H269792   2.412   1.529   0.911  1.9463 -0.7340  2.1014
16101TIP3   OH269793   2.617   2.147   2.810  0.1783  0.0169 -0.0466
16101TIP3    H169794   2.712   2.162   2.812  0.1771  0.0250 -0.0474
16101TIP3    H269795   2.593   2.136   2.902 -0.0105  1.2106  0.0611
16102TIP3   OH269796   0.314   4.729   3.130 -0.3773  0.4863 -0.2164
16102TIP3    H169797   0.255   4.667   3.088 -0.7195  0.8878 -0.3307
16102TIP3    H269798   0.347   4.784   3.059  0.7848 -0.2475 -0.2829
16103TIP3   OH269799   3.103   2.384   3.165  0.5372  0.1395 -0.0218
16103TIP3    H169800   3.108   2.480   3.173 -2.0932  0.2744  1.1645
16103TIP3    H269801   3.076   2.355   3.252  1.0246 -1.6863 -0.4536
16104TIP3   OH269802   0.472   2.164   5.809  0.5209  0.7497  0.0719
16104TIP3    H169803   0.422   2.083   5.803  1.5953 -0.0485  1.3279
16104TIP3    H269804   0.461   2.206   5.724  0.6151 -1.1113 -0.8913
16105TIP3   OH269805   0.608   6.651   4.374 -0.0244 -0.4084  0.1257
16105TIP3    H169806   0.527   6.689   4.407  0.4411  2.3293 -1.5396
16105TIP3    H269807   0.676   6.688   4.430  0.2458 -1.1103  0.2696
16106TIP3   OH269808   5.133   0.853   6.490  0.0196  0.0032  1.2089
16106TIP3    H169809   5.074   0.913   6.535  0.6694 -0.2436  2.4259
16106TIP3    H269810   5.203   0.909   6.455  0.4233  0.0116  2.0133
16107TIP3   OH269811   2.298   2.751   5.980 -0.1578 -0.2427  0.0517
16107TIP3    H169812   2.295   2.779   5.888  1.1045 -0.9904 -0.2548
16107TIP3    H269813   2.324   2.829   6.028  1.4071 -0.3601 -0.5360
16108TIP3   OH269814   5.067   6.132   5.484 -0.0461 -0.0805  0.3313
16108TIP3    H169815   5.051   6.038   5.498  1.4487 -0.1742  1.6095
16108TIP3    H269816   5.094   6.165   5.569  0.3956  1.3203 -0.3243
16109TIP3   OH269817   4.888   2.939   1.010 -0.2063  0.5314  0.0433
16109TIP3    H169818   4.817   3.002   1.018  0.4113  1.1249  0.9945
16109TIP3    H269819   4.898   2.903   1.098 -0.7704 -1.1632 -0.5521
16110TIP3   OH269820   4.171   1.110   5.368 -0.4952  0.3506 -0.8231
16110TIP3    H169821   4.256   1.071   5.386 -0.9489 -0.2207  0.1671
16110TIP3    H269822   4.136   1.058   5.295  0.2355  0.9595 -1.6186
16111TIP3   OH269823   0.168   1.076  13.638 -0.3516  0.3101  0.1240
16111TIP3    H169824   0.194   1.135  13.567  1.2623  0.1995  0.5700
16111TIP3    H269825   0.167   1.131  13.716 -1.8433  0.3720  0.0738
16112TIP3   OH269826   4.093   2.825   1.482 -0.3859  0.0989 -0.1876
16112TIP3    H169827   4.176   2.809   1.527  0.4319 -1.5518 -2.1045
16112TIP3    H269828   4.046   2.886   1.539 -0.6728 -3.7549  4.3109
16113TIP3   OH269829   0.998   5.882  12.269  0.1791  0.6227  0.1469
16113TIP3    H169830   0.969   5.973  12.275 -0.1438  0.4560  1.6274
16113TIP3    H269831   1.087   5.882  12.303 -0.0230  0.3121  0.6980
16114TIP3   OH269832   5.921   1.506   1.735 -0.0256 -0.4124  0.5719
16114TIP3    H169833   5.832   1.496   1.700 -0.0969 -0.7739  0.8388
16114TIP3    H269834   5.911   1.567   1.808  0.5769  2.5246 -1.6702
16115TIP3   OH269835   3.424   2.347   4.347 -0.2862  0.0311 -0.4034
16115TIP3    H169836   3.394   2.399   4.272 -2.0248 -0.9272 -0.4242
16115TIP3    H269837   3.350   2.290   4.367  0.7595 -0.8714  1.0271
16116TIP3   OH269838   2.023   5.918   0.281  0.4281  0.0325 -0.3746
16116TIP3    H169839   2.030   5.844   0.341  1.3359  0.0711 -0.4153
16116TIP3    H269840   1.929   5.928   0.266  0.1798 -0.0099  0.9948
16117TIP3   OH269841   3.279   5.552   3.926  0.5398  0.0298 -0.0798
16117TIP3    H169842   3.190   5.518   3.934  0.9469 -0.9824  0.3748
16117TIP3    H269843   3.284   5.585   3.836 -1.2549  3.0544  0.7903
16118TIP3   OH269844   5.357   4.132  16.230 -0.0834 -0.2488  0.2672
16118TIP3    H169845   5.311   4.082  16.163 -1.1722 -0.9737  1.4963
16118TIP3    H269846   5.414   4.068  16.272 -1.4210 -0.5054  1.7976
16119TIP3   OH269847   1.032   2.106   0.904  0.2236 -0.2893  0.3817
16119TIP3    H169848   1.075   2.149   0.830  0.7657 -2.2090 -0.4640
16119TIP3    H269849   1.103   2.061   0.950 -0.4074 -0.7471  0.9225
16120TIP3   OH269850   3.019   2.290  13.298 -0.5103 -0.5069 -0.4903
16120TIP3    H169851   2.966   2.359  13.338  2.0013  1.4070 -0.2149
16120TIP3    H269852   2.979   2.277  13.212 -0.3872  2.2762 -1.0861
16121TIP3   OH269853   1.930   4.251  15.969  0.1820 -0.1087 -0.1206
16121TIP3    H169854   1.903   4.161  15.985 -1.7849  0.2633 -0.9589
16121TIP3    H269855   2.008   4.263  16.022  1.7943 -2.9392 -1.6219
16122TIP3   OH269856   3.230   3.113  16.482 -0.3661  0.3536 -0.5656
16122TIP3    H169857   3.252   3.060  16.406 -1.4211  0.7332 -1.1661
16122TIP3    H269858   3.186   3.190  16.445 -0.9089  0.5328  0.4192
16123TIP3   OH269859   6.163   1.319  14.824  0.3011 -0.0268 -0.0411
16123TIP3    H169860   6.116   1.367  14.756  1.5437  1.3476  0.0127
16123TIP3    H269861   6.119   1.343  14.905  1.1987  1.4755  0.0420
16124TIP3   OH269862   4.606   0.655  17.030  0.5294  0.1314  0.5015
16124TIP3    H169863   4.547   0.697  17.094  0.3395 -0.0262  0.4326
16124TIP3    H269864   4.599   0.562  17.049 -0.2274  0.0034 -0.3308
16125TIP3   OH269865   0.023   0.171   5.386 -0.1194  0.1590  0.1000
16125TIP3    H169866  -0.039   0.145   5.455  0.2999 -1.0963  0.0357
16125TIP3    H269867  -0.032   0.182   5.308 -0.2470 -1.5335 -0.1038
16126TIP3   OH269868   5.058   3.141  15.032  0.1704  0.2562 -0.6299
16126TIP3    H169869   4.997   3.068  15.042 -0.2491  0.9631  4.6094
16126TIP3    H269870   5.008   3.206  14.983 -2.3133 -0.3000  0.9456
16127TIP3   OH269871   1.069   3.646  14.613  0.0495 -0.1150  0.5310
16127TIP3    H169872   1.111   3.676  14.694 -1.1097  0.5718  0.9150
16127TIP3    H269873   1.131   3.667  14.544  0.8030 -0.1578  1.1771
16128TIP3   OH269874   6.403   2.143   3.241  0.4442  0.1317  0.1179
16128TIP3    H169875   6.348   2.211   3.279  0.9937 -0.4249  2.0444
16128TIP3    H269876   6.344   2.088   3.191 -0.6392  0.0233  1.4591
16129TIP3   OH269877   0.238   2.246   3.191 -0.1916 -0.3059  0.0837
16129TIP3    H169878   0.171   2.179   3.178  0.3938 -0.7026 -0.9985
16129TIP3    H269879   0.288   2.216   3.267 -2.4093  0.9971  2.2064
16130TIP3   OH269880   0.565   3.085  11.676  0.2996 -0.6778  0.4431
16130TIP3    H169881   0.479   3.104  11.638  0.6210 -2.4437 -1.3565
16130TIP3    H269882   0.554   3.001  11.720  0.4027  0.5077  2.8923
16131TIP3   OH269883   5.106   6.508  15.386  0.6270 -0.2847  0.7327
16131TIP3    H169884   5.168   6.544  15.449  0.7839  0.0756  0.3795
16131TIP3    H269885   5.155   6.438  15.342  1.5055  1.2948 -0.9487
16132TIP3   OH269886   4.567   4.739  12.633  0.4332  0.1307  0.2697
16132TIP3    H169887   4.609   4.784  12.560  0.0152 -0.8315 -0.5845
16132TIP3    H269888   4.517   4.668  12.592  0.2201 -0.4472  1.4914
16133TIP3   OH269889   0.450   5.521  13.920 -0.1693  0.3775 -0.5983
16133TIP3    H169890   0.409   5.435  13.935  0.3408  0.4878  1.7605
16133TIP3    H269891   0.465   5.523  13.825  0.1155 -2.2716 -0.7010
16134TIP3   OH269892   3.172   1.345  15.507 -0.3003 -0.0813  0.0535
16134TIP3    H169893   3.254   1.392  15.524 -0.7533  1.2971 -1.2855
16134TIP3    H269894   3.107   1.415  15.496 -1.6902 -1.1437  1.1174
16135TIP3   OH269895   2.705   0.459  16.762  0.3232 -0.5531 -0.6001
16135TIP3    H169896   2.801   0.460  16.771  0.3433 -1.3630 -0.6784
16135TIP3    H269897   2.680   0.551  16.772  0.8762 -0.6084  1.9210
16136TIP3   OH269898   0.116   2.298  13.408 -0.3482  0.5540  0.3804
16136TIP3    H169899   0.061   2.314  13.332 -0.7957 -0.8424  0.3805
16136TIP3    H269900   0.054   2.289  13.481  0.0765  2.0028  0.9649
16137TIP3   OH269901   0.133   1.138  17.112 -0.5278 -0.3668 -0.2608
16137TIP3    H169902   0.196   1.198  17.073 -2.8805  2.2458 -0.3689
16137TIP3    H269903   0.088   1.190  17.179 -2.2181 -2.2187  0.1438
16138TIP3   OH269904   5.777   6.507  15.371  0.3149 -0.0386 -0.1496
16138TIP3    H169905   5.733   6.467  15.296 -0.3585 -0.9196  0.6805
16138TIP3    H269906   5.849   6.557  15.333 -0.5709  0.3126 -1.4460
16139TIP3   OH269907   1.762   4.610  11.618  0.2497  0.6913 -0.1114
16139TIP3    H169908   1.844   4.658  11.609  0.3249  0.3796 -1.3002
16139TIP3    H269909   1.704   4.670  11.665  0.3167  2.0048 -1.6209
16140TIP3   OH269910   5.879   5.210   2.353  0.3027  0.4977 -0.0046
16140TIP3    H169911   5.829   5.242   2.278 -1.6670 -2.9429 -0.3572
16140TIP3    H269912   5.859   5.272   2.424  0.9747  2.9210 -1.8087
16141TIP3   OH269913   3.609   3.362  15.771 -0.2352 -0.0341 -0.2913
16141TIP3    H169914   3.516   3.372  15.754 -0.6457  1.2100  2.2268
16141TIP3    H269915   3.618   3.377  15.865  2.4304 -0.8149 -0.3361
16142TIP3   OH269916   2.996   1.362   0.621  0.2332 -0.5422 -0.2599
16142TIP3    H169917   2.938   1.420   0.571  0.4220 -0.0993  0.0250
16142TIP3    H269918   2.990   1.278   0.577  0.4555 -0.1379 -1.0771
16143TIP3   OH269919   0.162   6.051   1.270  0.3522  0.0011 -0.1017
16143TIP3    H169920   0.209   6.107   1.208  0.5023  0.0888  0.0915
16143TIP3    H269921   0.174   6.094   1.355 -1.1986  0.7887 -0.2224
16144TIP3   OH269922   3.456   3.604  13.541 -0.4419  0.1839 -0.2075
16144TIP3    H169923   3.380   3.622  13.485  0.4575 -2.5680 -2.5670
16144TIP3    H269924   3.451   3.509  13.556  1.5465  0.2520  1.1311
16145TIP3   OH269925   1.376   3.696   2.457 -0.1359 -0.4381 -0.0458
16145TIP3    H169926   1.401   3.777   2.500  1.2870  0.5123 -2.4818
16145TIP3    H269927   1.453   3.640   2.464 -0.3216 -0.7280 -0.2797
16146TIP3   OH269928   4.592   6.370  16.268 -0.6159  0.4094  0.1890
16146TIP3    H169929   4.505   6.355  16.307 -0.2209  0.7644  1.2371
16146TIP3    H269930   4.637   6.286  16.277  0.4253  1.1807  3.0316
16147TIP3   OH269931   3.937   1.916   3.806  0.2576 -0.2419  0.1892
16147TIP3    H169932   3.987   1.853   3.755 -0.4201 -0.9659  0.3824
16147TIP3    H269933   3.846   1.887   3.796 -0.1938  1.3633 -0.6031
16148TIP3   OH269934   2.102   1.047   1.289  0.1194 -0.1244 -0.3179
16148TIP3    H169935   2.128   0.977   1.230  0.6102  0.7571 -1.1738
16148TIP3    H269936   2.088   1.003   1.373 -0.3260 -1.3500 -1.0050
16149TIP3   OH269937   3.235   1.091  15.592 -0.6194 -0.9620 -0.0298
16149TIP3    H169938   3.214   1.184  15.587 -0.8374 -1.0528 -1.3276
16149TIP3    H269939   3.261   1.076  15.683 -0.2484  0.4359  0.1130
16150TIP3   OH269940   5.391   4.622   5.178 -0.2993 -0.7892 -0.1791
16150TIP3    H169941   5.312   4.570   5.194 -1.5020  0.7794 -0.7961
16150TIP3    H269942   5.451   4.595   5.248 -1.7459 -1.2902  0.9283
16151TIP3   OH269943   4.477   3.052  16.765 -0.1112  0.0400  0.0675
16151TIP3    H169944   4.425   3.129  16.787  0.1295 -0.4582  2.7470
16151TIP3    H269945   4.488   3.057  16.670 -0.1857  3.2446  0.1033
16152TIP3   OH269946   4.019   1.333  16.825 -0.0293 -0.6344 -0.5896
16152TIP3    H169947   3.941   1.388  16.834 -0.4537 -1.1929 -0.8009
16152TIP3    H269948   4.065   1.342  16.908 -1.7482 -2.4698  0.6553
16153TIP3   OH269949   6.300   2.284  13.137  0.6291  0.6938  0.5379
16153TIP3    H169950   6.298   2.316  13.228  1.6662  1.6049  0.2635
16153TIP3    H269951   6.347   2.353  13.089 -0.3293  0.4530 -0.7846
16154TIP3   OH269952   0.689   4.251   3.029  0.5988  0.4154  0.0944
16154TIP3    H169953   0.723   4.341   3.030  1.8555 -0.0363  0.7457
16154TIP3    H269954   0.605   4.257   2.983 -0.3457  2.2860  1.8916
16155TIP3   OH269955   4.477   4.020  16.080 -0.1081 -0.3474  0.0901
16155TIP3    H169956   4.477   4.095  16.020  0.1383  0.6766  1.3322
16155TIP3    H269957   4.441   3.948  16.028 -0.6818  0.7044 -1.0297
16156TIP3   OH269958   1.257   0.759   3.762 -0.4213  0.0238 -0.0384
16156TIP3    H169959   1.322   0.722   3.703  0.0943  0.6862  0.0970
16156TIP3    H269960   1.173   0.728   3.729  0.0333 -2.1246  0.6928
16157TIP3   OH269961   0.731   5.227   1.285  0.1795 -0.6574 -0.3478
16157TIP3    H169962   0.679   5.197   1.211 -1.3755 -0.5161  0.6509
16157TIP3    H269963   0.762   5.147   1.327  0.1050 -0.7521 -0.4751
16158TIP3   OH269964   3.368   2.662  16.219  0.8912 -0.0845  0.4237
16158TIP3    H169965   3.356   2.735  16.280  1.5306  0.7632 -0.4232
16158TIP3    H269966   3.287   2.611  16.225  0.7599  0.2429  1.6223
16159TIP3   OH269967   4.044   3.114   4.744 -0.2078  0.1676  0.3060
16159TIP3    H169968   4.046   3.124   4.839 -0.9290 -0.0113  0.3428
16159TIP3    H269969   4.041   3.019   4.730  0.2464  0.1787  0.0893
16160TIP3   OH269970   3.110   2.409   5.880 -0.3745  0.7689  0.0661
16160TIP3    H169971   3.169   2.446   5.946  0.1897 -1.0972  0.6656
16160TIP3    H269972   3.129   2.459   5.801  1.8034  0.4656  0.3401
16161TIP3   OH269973   4.022   0.950   5.211 -0.1739 -0.0030  0.8342
16161TIP3    H169974   3.934   0.953   5.250 -0.2810 -2.4705  0.9418
16161TIP3    H269975   4.034   0.858   5.187  1.0986  0.8339 -2.2462
16162TIP3   OH269976   1.189   3.989   0.519  0.4166  0.1164  0.4948
16162TIP3    H169977   1.152   4.049   0.454 -1.9631 -2.1653 -0.4485
16162TIP3    H269978   1.126   3.989   0.591 -0.0822 -1.7397  0.1285
16163TIP3   OH269979   4.018   6.691   5.231 -0.0362 -0.0841  0.0500
16163TIP3    H169980   4.003   6.609   5.278 -2.1414  1.0270  1.4567
16163TIP3    H269981   4.106   6.717   5.258  0.3494 -1.4597  0.2221
16164TIP3   OH269982   3.273   5.297  13.500 -0.4035 -0.1139 -0.1789
16164TIP3    H169983   3.292   5.379  13.544 -1.0133  0.4527 -0.9429
16164TIP3    H269984   3.319   5.231  13.552 -0.6824  0.5822  0.9829
16165TIP3   OH269985   4.584   3.966  13.342  0.1700 -0.3646  0.4147
16165TIP3    H169986   4.578   4.031  13.412 -0.5233 -1.1012  1.0714
16165TIP3    H269987   4.638   3.896  13.379 -0.2988 -0.8123  0.2764
16166TIP3   OH269988   2.142   5.280   0.523 -0.2998  0.0108 -0.0521
16166TIP3    H169989   2.212   5.281   0.458 -2.0741 -0.2182 -2.0891
16166TIP3    H269990   2.159   5.356   0.579  2.0012 -0.5268  0.0801
16167TIP3   OH269991   2.567   4.955  11.921  0.4258  0.1756  0.3840
16167TIP3    H169992   2.523   4.925  12.000  1.4474  0.8715  1.2405
16167TIP3    H269993   2.592   4.875  11.875 -0.5397 -0.2288  0.5301
16168TIP3   OH269994   0.934   2.695   4.384 -0.0234  0.1688 -0.1322
16168TIP3    H169995   0.941   2.615   4.332  0.6560  1.4822 -2.1587
16168TIP3    H269996   1.016   2.700   4.433 -1.3134 -1.9260  2.5270
16169TIP3   OH269997   2.596   6.196  16.862  0.6074  0.7330  0.3316
16169TIP3    H169998   2.567   6.129  16.800  0.8285  1.5587 -0.7082
16169TIP3    H269999   2.567   6.165  16.947  0.3642 -0.4841 -0.1769
16170TIP3   OH270000   3.831   4.002   4.962 -0.4255  0.2933 -0.7398
16170TIP3    H170001   3.831   4.062   4.888  1.0487  0.1169 -0.9221
16170TIP3    H270002   3.895   4.039   5.023 -1.3020  0.2057  0.2549
16171TIP3   OH270003   2.185   4.049   6.400  0.8542  0.8843  0.3153
16171TIP3    H170004   2.269   4.082   6.434  1.1219 -0.4104  0.9790
16171TIP3    H270005   2.187   3.955   6.419 -1.0156  0.9262  0.8767
16172TIP3   OH270006   2.214   3.071   2.781  0.2612 -0.4811  0.4263
16172TIP3    H170007   2.259   2.996   2.743 -0.7961 -1.7574  1.6055
16172TIP3    H270008   2.131   3.075   2.735  0.3875  0.1038  0.2388
16173TIP3   OH270009   0.440   1.275  11.240  0.6973  0.0795  0.0964
16173TIP3    H170010   0.509   1.238  11.295  0.8329  0.3189  0.0912
16173TIP3    H270011   0.408   1.201  11.188  1.1452  0.0272 -0.1048
16174TIP3   OH270012   4.299   5.767   6.537 -0.0329  0.3120 -0.2142
16174TIP3    H170013   4.296   5.740   6.446  0.6429  0.1092 -0.1811
16174TIP3    H270014   4.293   5.685   6.587  0.7981  0.3175 -0.0967
16175TIP3   OH270015   1.010   3.809   1.717 -0.2962  0.1188 -0.3650
16175TIP3    H170016   1.021   3.736   1.777  0.4993  0.1331 -0.4889
16175TIP3    H270017   0.945   3.779   1.654  0.8088 -0.8942 -1.0532
16176TIP3   OH270018   6.498   3.731  15.086  0.3474  0.5028 -0.0518
16176TIP3    H170019   6.426   3.689  15.133 -1.8664  0.6753 -2.9691
16176TIP3    H270020   6.567   3.742  15.152 -1.7042 -1.0250  2.5611
16177TIP3   OH270021   6.437   0.615  12.945 -0.7517 -0.0898 -0.0152
16177TIP3    H170022   6.485   0.696  12.960 -0.1667 -0.0240 -1.9273
16177TIP3    H270023   6.504   0.546  12.949 -0.5289 -0.0650 -1.9970
16178TIP3   OH270024   1.854   6.820   6.452 -0.4026  0.0378  0.1971
16178TIP3    H170025   1.887   6.733   6.476  0.9477  1.4102  3.9477
16178TIP3    H270026   1.758   6.810   6.454 -0.4392 -2.0433 -2.9633
16179TIP3   OH270027   1.907   6.145  15.981 -0.5732 -0.2184  0.1383
16179TIP3    H170028   1.839   6.085  16.013 -0.4183  0.3958  1.7106
16179TIP3    H270029   1.985   6.119  16.029  0.1580 -0.4398 -1.1219
16180TIP3   OH270030   2.563   5.636   5.487 -0.6841 -0.5479 -0.1998
16180TIP3    H170031   2.553   5.723   5.450  0.1897 -0.6749 -0.7760
16180TIP3    H270032   2.577   5.579   5.411 -2.3017 -1.3772  0.0819
16181TIP3   OH270033   5.846   3.924   4.275  0.1787 -0.1180 -0.0006
16181TIP3    H170034   5.855   3.922   4.179  0.2689 -0.1800  0.0088
16181TIP3    H270035   5.752   3.937   4.290  0.0219 -1.1269 -0.0873
16182TIP3   OH270036   1.271   5.538  13.310 -0.6153 -0.0796  0.8039
16182TIP3    H170037   1.207   5.601  13.343  0.5825 -0.3076  3.9175
16182TIP3    H270038   1.223   5.456  13.300 -0.9592 -0.1241  2.6150
16183TIP3   OH270039   3.936   2.410   4.422  0.5169  0.4724 -0.4123
16183TIP3    H170040   4.006   2.351   4.395  0.2342 -1.5696  2.8628
16183TIP3    H270041   3.859   2.379   4.374  0.8934 -0.2090 -0.5808
16184TIP3   OH270042   4.120   5.084  15.940 -0.8314  0.5735 -0.2588
16184TIP3    H170043   4.113   5.164  15.889 -1.1937  1.0812  0.5588
16184TIP3    H270044   4.196   5.097  15.996 -0.7253  0.2278 -0.3201
16185TIP3   OH270045   2.723   4.316  12.236 -0.6877  0.6394  0.7646
16185TIP3    H170046   2.643   4.353  12.199 -1.3814 -0.6920  0.8702
16185TIP3    H270047   2.785   4.312  12.163 -2.2554 -2.5904 -0.5669
16186TIP3   OH270048   6.791   3.141   6.060  0.6719 -0.1198 -0.1461
16186TIP3    H170049   6.733   3.182   6.125 -0.2162  0.2412 -1.1265
16186TIP3    H270050   6.799   3.051   6.090  0.1842  0.0066  0.4037
16187TIP3   OH270051   0.609   2.846   1.690 -0.1234  0.0042 -0.1671
16187TIP3    H170052   0.555   2.800   1.626 -0.1604 -0.8067  0.4239
16187TIP3    H270053   0.686   2.875   1.641  0.2252 -1.2924 -0.4314
16188TIP3   OH270054   0.453   2.946   0.822  0.7870  0.3675  0.3410
16188TIP3    H170055   0.444   3.039   0.840  0.3564  0.2058  0.9843
16188TIP3    H270056   0.441   2.939   0.727  0.0340  0.8812  0.3871
16189TIP3   OH270057   1.505   4.260  12.081 -0.2182 -0.0987 -0.2293
16189TIP3    H170058   1.586   4.306  12.059 -1.9250  2.0676 -2.6867
16189TIP3    H270059   1.492   4.198  12.009 -0.4123 -0.9366  0.5140
16190TIP3   OH270060   6.674   4.493  13.645  0.2084  0.1792  0.2222
16190TIP3    H170061   6.634   4.556  13.704 -0.2909 -0.1595  0.2516
16190TIP3    H270062   6.692   4.543  13.565  2.0975  0.9688  1.0933
16191TIP3   OH270063   1.055   4.244   0.468 -0.1056  0.0367  0.0386
16191TIP3    H170064   1.031   4.304   0.397  1.0778  0.1366 -0.2912
16191TIP3    H270065   1.134   4.283   0.506 -0.7222 -0.0199  1.4225
16192TIP3   OH270066   6.264   4.101  15.098  0.4543 -0.3866  1.0270
16192TIP3    H170067   6.341   4.056  15.131  0.6126 -1.7453 -1.0346
16192TIP3    H270068   6.198   4.033  15.086  0.1360  0.1371 -0.5777
16193TIP3   OH270069   5.541   6.051   0.391  0.3798  0.3257  0.2713
16193TIP3    H170070   5.522   5.966   0.351  0.1371  0.3747  0.2772
16193TIP3    H270071   5.587   6.030   0.472  1.0635  0.2309 -0.1302
16194TIP3   OH270072   3.209   6.601  14.738  0.4054  0.1787  0.3935
16194TIP3    H170073   3.188   6.660  14.666  1.5547  1.5169  1.1130
16194TIP3    H270074   3.277   6.543  14.703 -0.8700 -0.9080 -0.3784
16195TIP3   OH270075   5.240   3.421  11.670 -0.1401  1.0212 -0.2374
16195TIP3    H170076   5.263   3.489  11.606 -1.2529  1.2681 -0.3872
16195TIP3    H270077   5.273   3.340  11.632  1.0650  1.4386 -0.1308
16196TIP3   OH270078   6.152   1.840   1.113 -0.4345 -0.1359 -0.7808
16196TIP3    H170079   6.172   1.747   1.105 -0.6906 -0.6841  2.9883
16196TIP3    H270080   6.231   1.878   1.150 -0.6558  0.9941 -1.4270
16197TIP3   OH270081   6.770   1.411   3.040  0.1033  0.0031 -0.6909
16197TIP3    H170082   6.819   1.335   3.011 -0.1450  0.0603 -1.2696
16197TIP3    H270083   6.787   1.478   2.974  0.9440  0.7083  0.2080
16198TIP3   OH270084   3.169   1.387  14.105  0.5919 -0.1184  0.1078
16198TIP3    H170085   3.242   1.364  14.047  0.7251  1.0003 -0.1953
16198TIP3    H270086   3.211   1.423  14.183  0.4385  2.9275 -1.0593
16199TIP3   OH270087   1.690   6.282   2.615 -0.0252 -0.2007 -0.5578
16199TIP3    H170088   1.625   6.288   2.545  0.5425 -0.8398 -1.1575
16199TIP3    H270089   1.714   6.189   2.616  0.0298 -0.1807  0.4357
16200TIP3   OH270090   0.210   0.405   0.743 -0.5887 -0.7031  0.1230
16200TIP3    H170091   0.152   0.375   0.813  0.0354 -1.8115  0.1779
16200TIP3    H270092   0.278   0.338   0.737  0.3053  0.2231 -0.4166
16201TIP3   OH270093   1.247   2.937  16.189  0.7910  0.0919 -0.3350
16201TIP3    H170094   1.227   3.028  16.211 -0.6319 -0.2376 -0.1726
16201TIP3    H270095   1.333   2.921  16.229  0.2262  0.8083  1.2604
16202TIP3   OH270096   0.086   2.936   0.418  0.6082 -0.1061  0.2491
16202TIP3    H170097   0.037   3.000   0.366  0.0953 -1.4290 -0.9560
16202TIP3    H270098   0.036   2.855   0.410  2.3316 -1.2055 -0.0057
16203TIP3   OH270099   5.811   5.644  14.241  0.4741 -0.1203 -0.4641
16203TIP3    H170100   5.804   5.569  14.181 -1.2469  0.7490 -1.4323
16203TIP3    H270101   5.758   5.712  14.200 -0.2129  0.7357  1.7304
16204TIP3   OH270102   4.314   4.987   2.828 -0.1319 -0.6378 -0.5454
16204TIP3    H170103   4.321   4.984   2.732  0.7147 -1.2125 -0.4804
16204TIP3    H270104   4.258   5.062   2.846  0.7928  0.3068 -1.4582
16205TIP3   OH270105   5.702   5.436  14.109 -0.2601  0.3683  0.4387
16205TIP3    H170106   5.611   5.412  14.129 -0.7649  0.9993 -0.9850
16205TIP3    H270107   5.727   5.379  14.037  0.5106  0.1605  0.8554
16206TIP3   OH270108   3.900   4.556  11.795  0.8347  0.5070  0.4302
16206TIP3    H170109   3.864   4.510  11.870  0.4315 -0.1641 -0.1550
16206TIP3    H270110   3.903   4.648  11.821  0.1892  0.3523  1.0614
16207TIP3   OH270111   1.295   3.960   3.453 -0.0225 -0.0996 -0.6119
16207TIP3    H170112   1.309   3.905   3.530 -0.4875  1.9125  1.0106
16207TIP3    H270113   1.381   3.963   3.410  0.3087 -1.0671 -0.0516
16208TIP3   OH270114   2.339   2.006  15.751 -0.6342  0.7815 -0.1370
16208TIP3    H170115   2.292   2.067  15.693 -1.6098 -0.0324 -0.2422
16208TIP3    H270116   2.365   2.060  15.825 -1.6492  1.3061 -0.1338
16209TIP3   OH270117   4.565   0.162  12.367 -0.4936 -0.8989 -0.3999
16209TIP3    H170118   4.503   0.231  12.345  0.7218 -0.2847 -2.1409
16209TIP3    H270119   4.584   0.119  12.283  0.6443 -1.7452  0.2546
16210TIP3   OH270120   4.700   6.362   4.955  0.3187  0.0181  0.1293
16210TIP3    H170121   4.661   6.296   4.898  1.5692 -0.8008  0.1733
16210TIP3    H270122   4.731   6.312   5.031  0.2557  0.8385  0.7146
16211TIP3   OH270123   0.247   1.687   5.680 -0.3851  0.1909 -0.1461
16211TIP3    H170124   0.309   1.618   5.657 -0.0215  0.5434 -0.2342
16211TIP3    H270125   0.209   1.659   5.763 -2.0058 -1.2978 -1.3196
16212TIP3   OH270126   2.974   0.696   1.866 -0.0066 -0.5486  0.0309
16212TIP3    H170127   3.003   0.627   1.925 -0.1730  0.4285  1.3154
16212TIP3    H270128   2.983   0.659   1.778  2.3758 -1.2879  0.5298
16213TIP3   OH270129   2.734   4.727   0.716  0.1992 -0.0020  0.7667
16213TIP3    H170130   2.747   4.795   0.782 -0.8840  0.6790  0.3035
16213TIP3    H270131   2.757   4.769   0.634  0.5864 -0.5413  0.5994
16214TIP3   OH270132   0.699   2.672   1.305 -0.7513 -0.0001 -0.0603
16214TIP3    H170133   0.768   2.708   1.361 -1.3128 -0.1219  0.7291
16214TIP3    H270134   0.707   2.577   1.316 -0.2745 -0.0746 -0.9241
16215TIP3   OH270135   3.983   3.178  12.920  0.1686 -0.4638  0.2308
16215TIP3    H170136   3.916   3.208  12.859  0.5460  1.5548  0.7319
16215TIP3    H270137   4.000   3.088  12.895  1.7298  0.7617 -4.0047
16216TIP3   OH270138   0.774   1.551   4.646 -0.3941 -0.2397  0.0050
16216TIP3    H170139   0.680   1.549   4.662 -0.8951 -2.8829 -2.4385
16216TIP3    H270140   0.802   1.460   4.661  1.7031  0.4072  0.2632
16217TIP3   OH270141   1.412   1.901   0.759  0.5416 -0.9119 -0.1208
16217TIP3    H170142   1.413   1.971   0.824  1.6488 -0.2522 -0.8427
16217TIP3    H270143   1.374   1.940   0.681  2.9402 -0.4984 -1.1615
16218TIP3   OH270144   1.039   6.782  16.977  0.0373 -0.3730 -0.2787
16218TIP3    H170145   0.946   6.788  16.959  0.1869 -0.1906 -1.0075
16218TIP3    H270146   1.044   6.756  17.069 -0.7305 -0.8426 -0.3645
16219TIP3   OH270147   1.133   5.789  13.316  0.1639 -0.3836 -0.2355
16219TIP3    H170148   1.081   5.853  13.268 -1.1122 -0.8155  0.5253
16219TIP3    H270149   1.170   5.839  13.389 -0.9974 -0.5135  0.4762
16220TIP3   OH270150   5.550   0.995   6.095 -0.0422  0.1076 -0.2039
16220TIP3    H170151   5.483   1.051   6.134  0.0270 -0.2654  0.4612
16220TIP3    H270152   5.530   0.996   6.001 -2.0711 -1.3771  0.1270
16221TIP3   OH270153   1.174   1.822  15.083 -0.3433 -0.2564  0.2033
16221TIP3    H170154   1.207   1.787  15.000 -1.7897 -0.3911 -0.3460
16221TIP3    H270155   1.082   1.796  15.085 -0.2464 -0.5837  2.0451
16222TIP3   OH270156   1.736   2.290   3.891  0.2137 -0.2416  0.8253
16222TIP3    H170157   1.726   2.251   3.978 -0.6295 -0.4900  0.6341
16222TIP3    H270158   1.797   2.362   3.904  0.7715 -0.8088  1.4474
16223TIP3   OH270159   4.047   4.574  14.609  0.0659  0.1605  0.1352
16223TIP3    H170160   4.138   4.588  14.636  0.8441  0.0460 -2.1597
16223TIP3    H270161   4.005   4.659  14.619  0.1189 -0.0131  2.1362
16224TIP3   OH270162   6.772   1.576  16.462  0.0090 -0.0199  1.0293
16224TIP3    H170163   6.798   1.601  16.551  1.9737  1.2208  0.1733
16224TIP3    H270164   6.814   1.641  16.406 -3.0334  0.5901 -0.7205
16225TIP3   OH270165   6.693   0.543   4.541 -0.2562 -0.2065  0.1902
16225TIP3    H170166   6.718   0.491   4.617  0.2655 -0.2135  0.0174
16225TIP3    H270167   6.770   0.597   4.523 -1.0495  1.2144  0.8500
16226TIP3   OH270168   0.562   2.071   1.309 -0.5393 -0.2153 -0.0286
16226TIP3    H170169   0.604   2.054   1.394  1.2029 -0.0743 -0.8206
16226TIP3    H270170   0.598   2.005   1.251  1.3543  2.0302 -1.5866
16227TIP3   OH270171   3.546   6.581  15.876  0.4675 -0.4175  0.1323
16227TIP3    H170172   3.632   6.574  15.917  0.8645 -2.2127 -0.9132
16227TIP3    H270173   3.485   6.547  15.942  0.5124  0.8295  0.8628
16228TIP3   OH270174   0.585   1.242   3.635  0.2567  0.4925  0.0064
16228TIP3    H170175   0.549   1.320   3.678  2.9560  0.7159  2.0961
16228TIP3    H270176   0.587   1.175   3.703 -0.5664 -0.9923 -1.3527
16229TIP3   OH270177   1.180   0.857  13.524  0.0278 -0.2554 -0.3687
16229TIP3    H170178   1.244   0.927  13.541 -0.7441  0.4708 -0.4009
16229TIP3    H270179   1.234   0.780  13.507  0.9397  0.6189 -1.6981
16230TIP3   OH270180   5.961   1.856   3.054  0.2363  0.2383  0.0105
16230TIP3    H170181   5.877   1.854   3.007 -0.1686 -1.5756  0.7539
16230TIP3    H270182   5.990   1.947   3.045 -0.5975  0.3480 -2.3596
16231TIP3   OH270183   4.599   6.807  11.186 -0.8666 -0.0026 -0.2330
16231TIP3    H170184   4.600   6.827  11.280 -1.0823  0.6614 -0.3650
16231TIP3    H270185   4.571   6.889  11.145  0.0651 -0.0261 -0.9444
16232TIP3   OH270186   5.069   1.633  16.022 -0.2532 -0.6779 -0.0862
16232TIP3    H170187   5.140   1.638  16.086 -0.0751  2.6071 -0.3723
16232TIP3    H270188   4.996   1.595  16.071  0.6594 -0.7874  1.2481
16233TIP3   OH270189   3.800   5.033  10.802 -0.0827 -0.6476  0.0138
16233TIP3    H170190   3.777   4.945  10.773  0.4248 -0.5368 -0.7374
16233TIP3    H270191   3.895   5.037  10.794 -0.2016  0.3717 -1.0989
16234TIP3   OH270192   6.466   6.129   2.454  0.6217  0.0005 -0.3552
16234TIP3    H170193   6.518   6.055   2.487 -1.1084 -0.7590  0.8411
16234TIP3    H270194   6.529   6.200   2.442  2.3629 -1.6717 -1.6458
16235TIP3   OH270195   0.902   3.269  13.200  0.2214 -0.6277  0.1063
16235TIP3    H170196   0.814   3.298  13.178  0.3379 -0.4582 -0.1386
16235TIP3    H270197   0.893   3.225  13.285 -0.1956 -1.1039 -0.1799
16236TIP3   OH270198   4.900   3.903   1.579  0.6738 -0.0772 -0.1410
16236TIP3    H170199   4.921   3.925   1.488 -0.4707  0.5859 -0.2587
16236TIP3    H270200   4.838   3.831   1.573  0.9256 -0.3213  0.1314
16237TIP3   OH270201   1.508   5.372  15.858 -0.0803  0.1091 -0.2561
16237TIP3    H170202   1.536   5.389  15.948 -1.6964 -0.5560  0.3972
16237TIP3    H270203   1.483   5.458  15.824 -1.6711  0.0714  0.7347
16238TIP3   OH270204   1.224   2.431   0.158  0.0969 -0.3370  0.4307
16238TIP3    H170205   1.231   2.526   0.172 -1.8579 -0.0485 -0.1633
16238TIP3    H270206   1.147   2.406   0.209 -0.4853 -1.2679 -0.8576
16239TIP3   OH270207   3.528   6.110  15.398  0.1536 -0.0086  0.3669
16239TIP3    H170208   3.501   6.026  15.435  0.7742 -0.2386  0.2999
16239TIP3    H270209   3.596   6.088  15.335 -2.4926  0.0821 -2.7945
16240TIP3   OH270210   4.824   5.330  15.977 -0.6102  0.6081 -0.3585
16240TIP3    H170211   4.799   5.243  16.009 -1.0641  0.6842 -0.4947
16240TIP3    H270212   4.881   5.313  15.902  1.9748  0.3991  1.5167
16241TIP3   OH270213   5.979   0.613   3.815 -0.3206 -0.0714  0.3221
16241TIP3    H170214   5.888   0.622   3.845  0.3996  1.7366  2.2037
16241TIP3    H270215   6.010   0.532   3.854 -0.1660  1.0057  2.6295
16242TIP3   OH270216   0.635   4.329  10.975  0.0821 -0.4623  0.3872
16242TIP3    H170217   0.564   4.355  10.916  1.8700  0.9687 -1.2526
16242TIP3    H270218   0.675   4.253  10.932  1.6704  0.8543 -0.5886
16243TIP3   OH270219   5.177   0.816  14.251  0.2279  0.0370 -1.0145
16243TIP3    H170220   5.103   0.869  14.281 -0.1999 -2.2370  2.4518
16243TIP3    H270221   5.139   0.732  14.227  1.4601 -0.3913 -1.5870
16244TIP3   OH270222   6.364   2.507  16.081 -0.0217 -0.2213 -0.3874
16244TIP3    H170223   6.304   2.544  16.017 -0.5788 -0.9802 -0.3179
16244TIP3    H270224   6.445   2.492  16.032 -0.2740 -0.3069 -0.7849
16245TIP3   OH270225   4.792   5.184   3.907  0.2773  0.6495  0.3134
16245TIP3    H170226   4.818   5.214   3.821 -0.0883  0.2666  0.0657
16245TIP3    H270227   4.845   5.106   3.922  0.6129  0.9295  0.5965
16246TIP3   OH270228   2.843   0.123  14.729  0.0027 -0.1189 -0.1520
16246TIP3    H170229   2.851   0.109  14.824 -0.8000 -0.0411 -0.0632
16246TIP3    H270230   2.931   0.108  14.695  0.1289 -0.9666  0.5022
16247TIP3   OH270231   4.968   0.160  12.901 -0.3944  0.2822  0.6645
16247TIP3    H170232   5.002   0.116  12.823 -1.1436  1.1983 -0.2017
16247TIP3    H270233   5.005   0.110  12.974 -1.6973 -2.1933 -0.2513
16248TIP3   OH270234   5.422   1.230  16.307  0.2442 -0.4631 -0.5848
16248TIP3    H170235   5.333   1.226  16.272 -0.8212  0.7107  1.7221
16248TIP3    H270236   5.466   1.295  16.254 -0.9859  0.5447 -0.4123
16249TIP3   OH270237   5.213   4.380   0.404 -0.3576 -0.4300  0.1892
16249TIP3    H170238   5.136   4.428   0.432  0.4710  1.0559  0.0198
16249TIP3    H270239   5.270   4.446   0.365  0.9906 -1.4852  0.2760
16250TIP3   OH270240   2.756   5.419  17.017  0.2078  0.0215  0.1603
16250TIP3    H170241   2.796   5.434  17.103  0.0084 -0.5639  0.3525
16250TIP3    H270242   2.701   5.496  17.003  0.9728  0.5789  0.1311
16251TIP3   OH270243   0.348   4.336   4.490 -0.8387  0.0155  0.2896
16251TIP3    H170244   0.385   4.406   4.543  1.0000 -1.0563  0.4920
16251TIP3    H270245   0.330   4.377   4.405 -0.5715  0.9200  0.6607
16252TIP3   OH270246   6.746   2.449  11.182  0.1663  0.3945  0.3060
16252TIP3    H170247   6.688   2.507  11.133  0.3428 -0.9102 -1.5370
16252TIP3    H270248   6.825   2.502  11.197  0.1180  0.8350 -0.8510
16253TIP3   OH270249   1.240   6.559   1.138  0.0012 -0.0229 -0.0840
16253TIP3    H170250   1.271   6.509   1.213 -2.8299 -1.5748  0.1942
16253TIP3    H270251   1.221   6.646   1.174 -2.0594 -0.9567  1.3055
16254TIP3   OH270252   4.246   0.602   4.651  0.1856 -0.1146  0.0438
16254TIP3    H170253   4.215   0.600   4.561 -0.2244  0.4439  0.1640
16254TIP3    H270254   4.173   0.640   4.701  0.8873  0.8069  0.4012
16255TIP3   OH270255   5.127   0.303   4.811  0.2250 -0.7003  0.1389
16255TIP3    H170256   5.118   0.384   4.761  3.7725 -1.8598 -2.8182
16255TIP3    H270257   5.084   0.237   4.757  2.7728 -1.7255 -0.7756
16256TIP3   OH270258   1.209   2.880  13.684 -0.4832  0.2876  0.0003
16256TIP3    H170259   1.131   2.936  13.679 -0.4208  0.5978  1.7518
16256TIP3    H270260   1.223   2.869  13.778  1.2855 -0.1950 -0.3038
16257TIP3   OH270261   5.374   3.187  11.996 -0.0052  0.1528  0.1714
16257TIP3    H170262   5.356   3.259  11.935  0.9818 -1.2407 -1.8976
16257TIP3    H270263   5.288   3.165  12.033 -0.7798  0.5971 -1.2798
16258TIP3   OH270264   2.887   3.435   3.556 -0.2322  0.4232  0.1431
16258TIP3    H170265   2.907   3.435   3.650  1.8853  1.5404 -0.2362
16258TIP3    H270266   2.912   3.523   3.527 -1.2026  0.2185 -1.4235
16259TIP3   OH270267   6.173   5.875   3.561  0.0673 -0.1231 -0.0416
16259TIP3    H170268   6.229   5.945   3.595 -0.2730  0.3641 -0.4737
16259TIP3    H270269   6.115   5.919   3.499 -1.0213 -0.5503  0.6374
16260TIP3   OH270270   3.469   5.874  11.501 -0.1454 -0.2887 -0.4863
16260TIP3    H170271   3.386   5.904  11.465 -0.3519 -1.4643 -1.0318
16260TIP3    H270272   3.533   5.940  11.473 -0.7669  0.2698 -0.6293
16261TIP3   OH270273   4.395   5.076  10.889 -0.2181  0.2109  0.7532
16261TIP3    H170274   4.446   5.155  10.906 -0.7369  0.4375  1.2904
16261TIP3    H270275   4.364   5.049  10.975 -0.0131 -0.6047  0.5796
16262TIP3   OH270276   1.721   3.726   2.590  0.5331  0.4763  0.2293
16262TIP3    H170277   1.655   3.658   2.577 -0.2897  1.3769 -0.4506
16262TIP3    H270278   1.798   3.695   2.541  0.1162  0.1038 -0.1978
16263TIP3   OH270279   4.343   5.336  13.216  0.0590  0.3444  0.0029
16263TIP3    H170280   4.397   5.414  13.231  0.2341  0.1451  0.4407
16263TIP3    H270281   4.380   5.296  13.138  2.0565 -1.0360  1.5581
16264TIP3   OH270282   2.582   1.901  10.565  0.4889  0.0014 -0.1064
16264TIP3    H170283   2.617   1.814  10.547  0.3078  0.2539 -1.9130
16264TIP3    H270284   2.497   1.903  10.521 -0.0556  0.7084  0.9205
16265TIP3   OH270285   4.453   2.532   0.876  0.1354  0.0840 -0.5456
16265TIP3    H170286   4.429   2.461   0.816 -0.5191  1.3929 -1.8746
16265TIP3    H270287   4.393   2.522   0.949 -0.8133  0.0131 -1.3138
16266TIP3   OH270288   6.110   0.578   4.651 -0.1168  0.2069 -0.2206
16266TIP3    H170289   6.052   0.654   4.653  0.2586  0.5411 -1.4056
16266TIP3    H270290   6.113   0.553   4.558 -0.2003 -1.2294  0.1458
16267TIP3   OH270291   2.337   3.707   1.790  0.1833  0.4031 -0.1890
16267TIP3    H170292   2.415   3.762   1.784 -0.9475  2.2814  1.2023
16267TIP3    H270293   2.370   3.621   1.814  2.0035  0.4694 -2.1336
16268TIP3   OH270294   1.377   5.274  11.059 -0.0083 -0.3041 -0.4281
16268TIP3    H170295   1.421   5.358  11.073 -1.3152  0.4008 -0.4434
16268TIP3    H270296   1.404   5.248  10.971  2.4027 -1.1736  0.4752
16269TIP3   OH270297   0.416   2.513  14.469 -0.3723  0.1838 -0.1643
16269TIP3    H170298   0.420   2.488  14.377  0.2969  2.2106 -0.7337
16269TIP3    H270299   0.324   2.535  14.484 -0.2790  0.9293 -0.6623
16270TIP3   OH270300   2.707   6.507   6.066 -0.5770  0.0807 -0.1633
16270TIP3    H170301   2.775   6.517   6.132 -0.6525 -0.4974  0.0096
16270TIP3    H270302   2.631   6.552   6.104 -0.9802 -1.2575  0.7036
16271TIP3   OH270303   5.113   3.831   1.331 -0.1492  0.2409 -0.0648
16271TIP3    H170304   5.203   3.822   1.362 -0.2373  0.6495  0.3190
16271TIP3    H270305   5.120   3.885   1.253 -0.0350  0.0558 -0.1836
16272TIP3   OH270306   4.313   0.298   1.700  0.0009 -0.2126 -0.4618
16272TIP3    H170307   4.374   0.293   1.774 -2.1086  1.6193  1.5303
16272TIP3    H270308   4.287   0.207   1.685 -1.1905 -0.4775  2.6040
16273TIP3   OH270309   3.555   0.152   3.226 -0.2781  0.4258  0.2319
16273TIP3    H170310   3.508   0.128   3.306  1.4208  1.9514  1.7625
16273TIP3    H270311   3.599   0.071   3.199 -0.5885 -0.0247  1.0326
16274TIP3   OH270312   2.759   2.705  12.865 -0.0495 -0.0646 -0.7583
16274TIP3    H170313   2.816   2.747  12.801 -0.0327  0.8004 -0.1900
16274TIP3    H270314   2.681   2.760  12.867  0.1261  0.1637  0.2728
16275TIP3   OH270315   6.823   0.893  11.338 -0.5730 -0.1802 -0.0751
16275TIP3    H170316   6.794   0.852  11.256  0.7221 -0.9099 -0.2071
16275TIP3    H270317   6.907   0.934  11.316 -1.9900  3.0215 -0.0489
16276TIP3   OH270318   6.792   1.181   1.935  0.0250  0.0401  0.0585
16276TIP3    H170319   6.726   1.182   2.004  2.3740  2.1611  2.5297
16276TIP3    H270320   6.821   1.090   1.930 -0.2356 -0.1846  1.8879
16277TIP3   OH270321   0.213   3.850   6.026  0.6590  0.7996 -0.2563
16277TIP3    H170322   0.178   3.936   6.007  0.7657  1.1812  1.1477
16277TIP3    H270323   0.196   3.798   5.947 -3.9088  0.6560  0.5950
16278TIP3   OH270324   0.878   1.886  11.773  0.4081  0.3508  0.3018
16278TIP3    H170325   0.809   1.924  11.827  0.2310  1.2901 -0.5570
16278TIP3    H270326   0.832   1.824  11.715  0.2166  1.2386 -0.5141
16279TIP3   OH270327   3.220   1.718  15.217 -0.2477 -0.1070  0.7943
16279TIP3    H170328   3.233   1.684  15.306 -1.9405 -3.0997  0.0622
16279TIP3    H270329   3.279   1.665  15.163  3.5427  4.0635  0.2976
16280TIP3   OH270330   3.626   5.113  14.262  0.2939 -0.2577 -0.1789
16280TIP3    H170331   3.553   5.140  14.318  1.0457  3.1074 -0.6183
16280TIP3    H270332   3.603   5.146  14.175  0.5354 -2.7599 -1.2754
16281TIP3   OH270333   3.348   3.397   3.268  0.5581 -0.1230  0.7197
16281TIP3    H170334   3.370   3.413   3.176  1.1270  1.8219  1.1606
16281TIP3    H270335   3.319   3.306   3.269  0.5605 -0.2083 -1.3784
16282TIP3   OH270336   5.267   2.911   6.068  0.3430 -0.5960  0.3934
16282TIP3    H170337   5.332   2.888   6.134  0.4739  0.7145  0.7614
16282TIP3    H270338   5.185   2.873   6.101  0.5216 -0.4463  1.0214
16283TIP3   OH270339   6.404   0.071   2.294  0.1003  0.3590  0.3141
16283TIP3    H170340   6.412   0.115   2.379  2.3398 -0.3612  0.5641
16283TIP3    H270341   6.495   0.060   2.265 -0.5559 -0.7707 -1.4644
16284TIP3   OH270342   4.274   0.174  14.162  0.2723  0.3204 -0.1897
16284TIP3    H170343   4.201   0.236  14.156 -0.7724 -0.9246 -0.7432
16284TIP3    H270344   4.308   0.187  14.250 -0.1271  1.4431 -0.1743
16285TIP3   OH270345   4.368   3.369   0.392 -0.1844  0.3493  0.3865
16285TIP3    H170346   4.324   3.292   0.356 -1.5695  1.1997  0.1824
16285TIP3    H270347   4.443   3.383   0.334 -0.4836 -0.2625 -0.1555
16286TIP3   OH270348   4.145   4.482  14.933 -0.0737  0.5674  0.3800
16286TIP3    H170349   4.191   4.523  14.859  1.6710 -1.5944  0.1581
16286TIP3    H270350   4.057   4.467  14.901  0.5565 -0.0195 -1.1690
16287TIP3   OH270351   5.885   5.787   6.125  0.5352 -0.0157 -0.1488
16287TIP3    H170352   5.804   5.819   6.085 -0.5365 -0.6129  1.4698
16287TIP3    H270353   5.931   5.866   6.153  1.8140  0.5183 -3.2719
16288TIP3   OH270354   6.395   6.614  14.032 -0.0711 -0.7225 -0.0446
16288TIP3    H170355   6.458   6.543  14.040 -0.1170 -0.7358  0.1890
16288TIP3    H270356   6.309   6.571  14.036 -0.1047 -0.6042  0.5763
16289TIP3   OH270357   0.618   3.194   0.595 -0.3478 -0.1762 -0.0371
16289TIP3    H170358   0.541   3.211   0.541 -0.7857 -0.6502  0.4300
16289TIP3    H270359   0.649   3.108   0.565  0.4333  0.3238 -0.7191
16290TIP3   OH270360   5.229   5.058  14.393  0.0314 -0.5587 -0.2646
16290TIP3    H170361   5.139   5.030  14.378 -0.2330  0.6336 -1.0673
16290TIP3    H270362   5.244   5.126  14.327  1.6810 -1.0793 -0.4615
16291TIP3   OH270363   6.500   3.640  12.677  0.0873 -0.2468 -0.1778
16291TIP3    H170364   6.424   3.634  12.735  0.6536  1.0937  0.7582
16291TIP3    H270365   6.565   3.583  12.717  0.1420 -0.0877 -0.0390
16292TIP3   OH270366   5.998   3.626   0.840  0.3972  0.4654 -0.6953
16292TIP3    H170367   5.997   3.538   0.877  1.8134  0.4469 -0.6677
16292TIP3    H270368   6.031   3.615   0.751  0.9463  1.0037 -0.5657
16293TIP3   OH270369   2.005   5.802  13.486  0.0154  0.6344 -0.0254
16293TIP3    H170370   1.914   5.818  13.461 -0.5342  0.2288  1.5494
16293TIP3    H270371   2.044   5.889  13.494 -0.3664  0.8284 -0.2817
16294TIP3   OH270372   5.884   2.487   0.988  0.1650  0.3104 -0.0240
16294TIP3    H170373   5.835   2.565   0.963  0.2950  0.5603  0.4948
16294TIP3    H270374   5.942   2.470   0.913  0.6903  1.1656  0.1705
16295TIP3   OH270375   5.085   1.564   1.757  0.3809 -0.6221  0.1424
16295TIP3    H170376   5.020   1.600   1.819  2.4987  0.9480  1.5950
16295TIP3    H270377   5.033   1.511   1.696 -2.1291 -0.2531  1.8009
16296TIP3   OH270378   6.410   3.296  16.154 -0.3870 -0.5981 -0.8936
16296TIP3    H170379   6.384   3.234  16.086 -1.4408 -0.2696 -0.7980
16296TIP3    H270380   6.355   3.373  16.139 -1.0157 -0.7198  0.6338
16297TIP3   OH270381   3.603   4.952   5.888 -0.0994 -0.5858 -0.0556
16297TIP3    H170382   3.535   4.885   5.883 -0.1703 -0.7532  2.0634
16297TIP3    H270383   3.685   4.903   5.889 -0.1378 -0.6598  1.1527
16298TIP3   OH270384   2.132   0.512  15.164 -0.0988 -0.1799 -0.4244
16298TIP3    H170385   2.062   0.568  15.130 -0.4627 -0.1929  0.2803
16298TIP3    H270386   2.091   0.425  15.172  0.2276 -0.3643 -0.7559
16299TIP3   OH270387   0.733   5.630   2.165 -0.5875  0.3318 -0.1072
16299TIP3    H170388   0.651   5.593   2.199 -0.3356  0.4648  0.6715
16299TIP3    H270389   0.705   5.686   2.093 -1.0889 -0.3968 -0.4973
16300TIP3   OH270390   2.007   2.225   4.738  0.4172  0.1844  0.2421
16300TIP3    H170391   1.928   2.173   4.752  0.5906  0.4115  2.3910
16300TIP3    H270392   2.059   2.173   4.677  0.5572 -2.2569  2.2580
16301TIP3   OH270393   2.881   0.182   0.769  0.4174  0.4366  0.5067
16301TIP3    H170394   2.832   0.190   0.687 -0.4212 -1.2944  0.7969
16301TIP3    H270395   2.856   0.260   0.819 -1.8130 -0.2120  0.4984
16302TIP3   OH270396   2.694   2.137  11.683 -0.1085 -0.0067 -0.4034
16302TIP3    H170397   2.605   2.153  11.715 -0.1905 -1.1484 -0.0196
16302TIP3    H270398   2.691   2.162  11.591 -1.1569 -1.1114 -0.6957
16303TIP3   OH270399   2.958   6.706   4.004 -0.1105  0.6782 -0.1274
16303TIP3    H170400   2.956   6.794   4.041  1.2420  0.2536  1.0461
16303TIP3    H270401   2.941   6.720   3.911 -2.6473  1.8685  0.4191
16304TIP3   OH270402   6.094   6.616   5.166 -0.2350  0.2016  0.1835
16304TIP3    H170403   6.089   6.705   5.201  0.6379  0.5525 -0.5476
16304TIP3    H270404   6.188   6.596   5.166 -0.3220 -0.2606 -0.7698
16305TIP3   OH270405   1.577   5.678  12.705  0.1483 -0.6338 -0.2352
16305TIP3    H170406   1.597   5.660  12.797  1.7350 -0.5244 -0.5184
16305TIP3    H270407   1.500   5.625  12.685 -0.1854 -0.6852  1.1407
16306TIP3   OH270408   3.523   0.625   3.344 -0.4993 -0.1218 -0.8397
16306TIP3    H170409   3.444   0.646   3.294  0.6271  0.4897 -2.4443
16306TIP3    H270410   3.505   0.659   3.432 -2.7218 -1.6563 -0.6078
16307TIP3   OH270411   0.594   3.523   5.451 -1.0652 -0.0355 -0.5605
16307TIP3    H170412   0.613   3.562   5.366 -3.0825 -0.0419 -1.0590
16307TIP3    H270413   0.635   3.583   5.514  0.0757  0.1993 -1.4869
16308TIP3   OH270414   5.718   1.982   2.126 -0.2098  0.1780 -0.3684
16308TIP3    H170415   5.637   2.009   2.082  0.1513  0.7133 -0.7263
16308TIP3    H270416   5.782   1.976   2.055 -0.6621 -3.4438 -0.6228
16309TIP3   OH270417   5.097   2.855  14.296  0.4267  0.3281 -0.4876
16309TIP3    H170418   5.144   2.790  14.244  1.9964  0.7814  0.2862
16309TIP3    H270419   5.042   2.901  14.233  0.5111 -0.6690 -1.3187
16310TIP3   OH270420   5.063   5.135  12.978 -0.0774 -0.0653 -0.4533
16310TIP3    H170421   5.123   5.104  12.910  0.3167  0.7821 -0.5055
16310TIP3    H270422   5.048   5.227  12.957 -1.8972 -0.3999 -0.7955
16311TIP3   OH270423   1.024   4.534  14.062 -0.3538  0.1903 -0.4521
16311TIP3    H170424   1.111   4.527  14.101  1.2370  0.7996 -3.5777
16311TIP3    H270425   0.984   4.448  14.076  1.2164 -0.5122 -0.0314
16312TIP3   OH270426   2.684   3.850  11.426  0.2753  0.4329 -0.0060
16312TIP3    H170427   2.601   3.803  11.432  0.7935 -0.5940 -0.6439
16312TIP3    H270428   2.659   3.942  11.421 -0.7814  0.1990  0.7455
16313TIP3   OH270429   4.969   4.266   0.740 -0.1027  0.1485  0.3421
16313TIP3    H170430   4.949   4.360   0.735  0.7246  0.5615  2.9452
16313TIP3    H270431   4.906   4.225   0.681 -0.1312  2.3694 -1.2981
16314TIP3   OH270432   6.166   6.003  11.768 -0.5317  0.0127 -0.4158
16314TIP3    H170433   6.231   5.933  11.762  1.1434  1.4410  0.1466
16314TIP3    H270434   6.165   6.043  11.681  0.8330  1.2144  0.0873
16315TIP3   OH270435   5.839   5.957   1.599  0.8379  0.2147 -0.0340
16315TIP3    H170436   5.755   5.994   1.628  0.4131 -0.0830 -0.8483
16315TIP3    H270437   5.905   6.009   1.644  0.3165  2.7443 -1.9965
16316TIP3   OH270438   5.070   0.966  14.742 -0.4470  0.6341  0.4277
16316TIP3    H170439   5.085   1.027  14.814 -1.3351  1.6534 -0.2224
16316TIP3    H270440   4.975   0.954  14.739 -0.4418  0.7460 -0.6751
16317TIP3   OH270441   2.885   0.349   1.631 -0.4417  0.5921  0.2142
16317TIP3    H170442   2.887   0.326   1.724 -0.1995 -0.1345  0.0420
16317TIP3    H270443   2.944   0.424   1.624  0.7049 -0.2593  0.4251
16318TIP3   OH270444   2.924   3.058   0.703  0.2859 -0.4172 -0.6174
16318TIP3    H170445   2.833   3.088   0.703  0.0459 -1.0923  0.1301
16318TIP3    H270446   2.922   2.976   0.754  1.0916 -1.1351 -1.7031
16319TIP3   OH270447   3.413   6.522  17.088  0.4687  0.6918  0.0476
16319TIP3    H170448   3.440   6.593  17.146  0.4941  1.0741 -0.4270
16319TIP3    H270449   3.338   6.557  17.041  1.2553  0.8796 -1.1068
16320TIP3   OH270450   4.143   1.057  12.661 -0.4303  0.6893  0.0154
16320TIP3    H170451   4.086   1.063  12.738 -1.2126 -1.9173 -0.2539
16320TIP3    H270452   4.231   1.063  12.696 -0.8016  2.0700  0.7798
16321TIP3   OH270453   3.699   4.493   4.262  0.1837  0.3811 -0.1383
16321TIP3    H170454   3.757   4.454   4.327  0.1380 -0.1524 -0.4195
16321TIP3    H270455   3.611   4.469   4.290  0.1279  0.6596 -0.0659
16322TIP3   OH270456   3.908   4.395  15.806  0.1677  0.2766 -0.3799
16322TIP3    H170457   3.971   4.324  15.816  1.8379  1.7195 -0.3751
16322TIP3    H270458   3.882   4.417  15.896 -0.4998 -0.4164 -0.3901
16323TIP3   OH270459   3.153   1.367   0.868 -0.2515 -0.2120  0.1447
16323TIP3    H170460   3.091   1.336   0.934 -1.2850  0.8257 -0.3048
16323TIP3    H270461   3.104   1.364   0.786  0.6199 -0.3023 -0.3828
16324TIP3   OH270462   0.962   6.067   5.341 -0.2097  0.3208 -0.2441
16324TIP3    H170463   1.049   6.032   5.321  0.3856  2.5675 -2.0214
16324TIP3    H270464   0.977   6.126   5.415 -0.1673  0.8465 -0.6669
16325TIP3   OH270465   0.785   2.458   0.987  0.0587  0.2791 -0.2897
16325TIP3    H170466   0.759   2.441   1.078 -0.1401 -0.1243 -0.4208
16325TIP3    H270467   0.867   2.507   0.995  0.5762 -0.6224  0.1065
16326TIP3   OH270468   5.118   1.965   5.545 -0.3769  0.2778  0.0119
16326TIP3    H170469   5.057   1.940   5.614 -3.1446 -0.2171 -2.4326
16326TIP3    H270470   5.153   1.881   5.513 -0.3172  0.3935 -0.2256
16327TIP3   OH270471   4.036   0.690   5.140  0.6236 -0.8723  0.2391
16327TIP3    H170472   3.960   0.667   5.087 -1.4036  0.6219  2.2964
16327TIP3    H270473   4.050   0.615   5.197  1.8646 -1.8548 -1.2596
16328TIP3   OH270474   5.719   3.113   0.652 -0.7238 -0.2217 -0.8875
16328TIP3    H170475   5.657   3.142   0.585 -1.4446 -1.7757 -0.9349
16328TIP3    H270476   5.767   3.042   0.611  0.2431  0.1481 -0.4225
16329TIP3   OH270477   3.828   3.117   2.209 -0.0934  0.2017  0.1354
16329TIP3    H170478   3.917   3.100   2.178 -0.0825  0.5276 -0.0153
16329TIP3    H270479   3.777   3.132   2.130  0.1121  1.8823  0.2799
16330TIP3   OH270480   5.817   2.798  15.885 -0.0399  0.0625  0.6436
16330TIP3    H170481   5.770   2.833  15.961 -0.0157  1.5326  0.0098
16330TIP3    H270482   5.907   2.787  15.915 -0.7075 -2.9156  1.9151
16331TIP3   OH270483   0.271   4.082  10.652 -0.1804 -0.5326  0.2215
16331TIP3    H170484   0.267   4.103  10.559 -1.2671  0.3475  0.4469
16331TIP3    H270485   0.204   4.016  10.666 -0.4386 -0.2189  0.4843
16332TIP3   OH270486   1.680   5.723   1.531 -0.8111 -0.3782 -0.2628
16332TIP3    H170487   1.649   5.730   1.441 -1.4551  0.2911  0.0053
16332TIP3    H270488   1.725   5.639   1.534  0.3306  0.1405 -1.5427
16333TIP3   OH270489   4.250   3.554  14.079  0.0239 -0.0576 -0.4218
16333TIP3    H170490   4.242   3.539  14.174 -2.0090 -0.1028 -0.5433
16333TIP3    H270491   4.343   3.568  14.064  0.2629  1.1300  1.7641
16334TIP3   OH270492   1.480   2.661  11.222 -0.2057  0.0269 -0.2985
16334TIP3    H170493   1.509   2.752  11.226 -1.4376  0.4037  0.8204
16334TIP3    H270494   1.553   2.614  11.181  3.2420  0.4048  4.5782
16335TIP3   OH270495   1.885   4.418  15.264 -0.6428  0.5408  0.4712
16335TIP3    H170496   1.896   4.360  15.339  0.5785 -0.5517 -0.4895
16335TIP3    H270497   1.794   4.406  15.237  0.0398 -2.6006 -0.9132
16336TIP3   OH270498   6.725   0.709   6.424 -0.1570 -0.3281  0.0328
16336TIP3    H170499   6.696   0.626   6.461  0.7115 -0.6971 -0.0867
16336TIP3    H270500   6.657   0.733   6.361 -1.0170 -0.3182  0.9527
16337TIP3   OH270501   6.399   4.594  15.506 -0.0242  0.2106  0.0735
16337TIP3    H170502   6.360   4.671  15.548  1.1972  1.1605 -0.4511
16337TIP3    H270503   6.484   4.625  15.474 -0.4244 -0.7670 -2.1023
16338TIP3   OH270504   0.189   0.436   3.664 -0.2606  0.0167  0.6878
16338TIP3    H170505   0.181   0.426   3.759  1.4145  0.6145  0.9238
16338TIP3    H270506   0.260   0.378   3.639  0.3850  1.0316  0.0574
16339TIP3   OH270507   4.616   5.616   0.538  0.5957 -0.7090  0.2846
16339TIP3    H170508   4.670   5.619   0.459 -0.6975 -1.9108 -0.7003
16339TIP3    H270509   4.529   5.591   0.507  0.0118 -1.0801  2.0805
16340TIP3   OH270510   2.943   4.526   5.754  0.3373  0.2291  0.2504
16340TIP3    H170511   2.866   4.544   5.808  0.2955  2.2463 -0.4056
16340TIP3    H270512   2.913   4.460   5.692 -0.4149 -0.1177  0.9611
16341TIP3   OH270513   3.267   6.831   4.889 -0.2492 -0.2509  0.2171
16341TIP3    H170514   3.353   6.796   4.864 -0.1419 -0.6767  1.1321
16341TIP3    H270515   3.232   6.765   4.949 -1.9927 -0.9741 -1.5050
16342TIP3   OH270516   2.650   4.075  12.371 -0.4198 -0.0201  0.6566
16342TIP3    H170517   2.557   4.067  12.350 -0.3123 -1.8566  0.7244
16342TIP3    H270518   2.680   4.149  12.318 -1.6743 -0.1031 -0.2175
16343TIP3   OH270519   0.644   2.436  12.030 -0.1623  0.2712 -0.5208
16343TIP3    H170520   0.719   2.457  11.974  1.2134  1.6497  1.7040
16343TIP3    H270521   0.638   2.509  12.091 -1.1282 -1.4365  1.5894
16344TIP3   OH270522   3.421   0.092  12.919  0.9079 -0.3398 -0.5348
16344TIP3    H170523   3.487   0.161  12.927  0.9113 -0.4135  0.1427
16344TIP3    H270524   3.363   0.106  12.994  0.1157 -0.2405 -1.1448
16345TIP3   OH270525   3.952   6.415   1.712  0.4346 -0.4590  0.6253
16345TIP3    H170526   3.892   6.401   1.639  0.9171 -0.0675  0.1460
16345TIP3    H270527   3.974   6.327   1.743  0.9218 -0.6671 -0.2733
16346TIP3   OH270528   6.318   5.076   2.062  0.5919 -0.3756 -0.2915
16346TIP3    H170529   6.293   5.152   2.009  1.1488 -0.3080 -0.4710
16346TIP3    H270530   6.347   5.114   2.145  1.8987 -0.2948 -0.7648
16347TIP3   OH270531   1.405   0.463   2.365 -0.0371 -0.2669 -0.3145
16347TIP3    H170532   1.476   0.400   2.362 -0.3250 -0.6079 -0.0038
16347TIP3    H270533   1.432   0.532   2.304  0.7496 -0.1801  0.1278
16348TIP3   OH270534   1.697   3.822   4.182  0.4633  0.0068 -0.3024
16348TIP3    H170535   1.629   3.811   4.115  1.5734 -1.2247 -1.2712
16348TIP3    H270536   1.724   3.913   4.173 -0.9383  0.4833  0.0034
16349TIP3   OH270537   4.861   3.893  15.957 -0.0645  0.4086  0.1019
16349TIP3    H170538   4.869   3.801  15.980  2.6629  0.6075  0.2763
16349TIP3    H270539   4.859   3.894  15.861 -1.9524  0.1103  0.1089
16350TIP3   OH270540   5.344   1.548   5.983  0.6323 -0.2087  0.0915
16350TIP3    H170541   5.415   1.607   5.959  0.4071  0.3577  0.7714
16350TIP3    H270542   5.347   1.545   6.079  0.8195 -1.5319  0.0647
16351TIP3   OH270543   5.989   2.986   0.814 -0.1286 -0.0493 -0.0345
16351TIP3    H170544   6.039   3.007   0.735  0.4384 -0.3104  0.2494
16351TIP3    H270545   5.916   3.047   0.812 -0.2883 -0.2509 -0.9171
16352TIP3   OH270546   1.589   3.538   2.406  0.3538 -0.1714  0.6670
16352TIP3    H170547   1.568   3.447   2.424  0.0206 -0.4058 -0.7816
16352TIP3    H270548   1.666   3.534   2.349  0.1540  0.4341  0.3396
16353TIP3   OH270549   6.583   3.454   4.042 -0.1768  0.1770  0.4115
16353TIP3    H170550   6.561   3.546   4.031 -0.5124 -0.0354 -0.8520
16353TIP3    H270551   6.621   3.428   3.958  0.0237 -0.8006  0.7907
16354TIP3   OH270552   6.054   4.420   0.026 -0.6144  0.4379  0.1615
16354TIP3    H170553   6.132   4.378  -0.010 -0.8056  0.9531 -0.9043
16354TIP3    H270554   6.077   4.512   0.033 -0.2400  0.2280  2.3724
16355TIP3   OH270555   2.638   2.030   4.965 -0.1502 -0.0482  0.5966
16355TIP3    H170556   2.730   2.029   4.992 -0.8221  1.0394  3.3750
16355TIP3    H270557   2.589   2.016   5.047 -2.4604  1.1340 -0.4761
16356TIP3   OH270558   1.704   1.753  11.380  0.4918  0.3005  0.0620
16356TIP3    H170559   1.745   1.667  11.388 -1.4506 -0.6770  0.0232
16356TIP3    H270560   1.612   1.734  11.359 -0.4903  2.3138  2.1534
16357TIP3   OH270561   4.051   3.088   2.020  0.2985 -0.2414  0.3804
16357TIP3    H170562   4.096   3.121   1.942  0.1926  1.0959  0.8559
16357TIP3    H270563   4.118   3.038   2.066 -0.0482 -2.4261 -1.3117
16358TIP3   OH270564   4.608   1.699  15.593 -0.0498  0.1503 -0.1072
16358TIP3    H170565   4.637   1.692  15.684 -1.1044  1.5676  0.3791
16358TIP3    H270566   4.686   1.727  15.545  0.8220 -1.7789  0.1222
16359TIP3   OH270567   5.711   6.057   4.599 -0.0284 -0.5921 -0.3375
16359TIP3    H170568   5.690   6.056   4.505 -1.8002 -0.4920  0.0411
16359TIP3    H270569   5.651   6.121   4.637 -0.3211 -1.6713  1.0972
16360TIP3   OH270570   3.121   6.233   0.547  0.0941  0.1582 -0.1966
16360TIP3    H170571   3.181   6.307   0.537  0.0641  0.1492 -0.4521
16360TIP3    H270572   3.171   6.156   0.520 -0.7746  0.4382 -2.9746
16361TIP3   OH270573   4.946   2.210  10.949  0.2379 -0.3607  0.0362
16361TIP3    H170574   5.010   2.259  11.001  0.3479  0.2722 -0.6806
16361TIP3    H270575   4.939   2.259  10.867 -0.7877 -0.7067 -0.0953
16362TIP3   OH270576   0.220   4.456  11.207 -0.1738 -0.5333  0.2932
16362TIP3    H170577   0.216   4.462  11.112  0.5220 -1.6647  0.1772
16362TIP3    H270578   0.296   4.400  11.225 -0.9923 -1.3150  1.4766
16363TIP3   OH270579   5.383   3.475   0.906  0.1390 -0.0672  0.0400
16363TIP3    H170580   5.477   3.493   0.898  0.1263  0.5933  1.1127
16363TIP3    H270581   5.372   3.387   0.870  0.8922  0.4646 -1.5906
16364TIP3   OH270582   2.136   5.771   3.321 -0.0693 -0.2961 -0.2233
16364TIP3    H170583   2.201   5.716   3.364  0.3331  1.0417  0.9597
16364TIP3    H270584   2.052   5.742   3.356  0.0592 -0.7808 -0.3197
16365TIP3   OH270585   3.493   1.782   3.060  0.1790  0.5283  0.0641
16365TIP3    H170586   3.461   1.848   3.122  1.1731  1.3864 -0.3210
16365TIP3    H270587   3.426   1.779   2.991 -0.1838  0.6515  0.4060
16366TIP3   OH270588   4.628   5.633   0.090  0.3902  0.4149  0.2566
16366TIP3    H170589   4.600   5.621   0.181 -0.7594 -1.6813 -0.3044
16366TIP3    H270590   4.690   5.706   0.094 -1.0927  1.6860  2.4091
16367TIP3   OH270591   0.712   1.298  14.025 -0.4458 -0.2463  0.1774
16367TIP3    H170592   0.699   1.205  14.005 -1.0485  0.0168 -0.7502
16367TIP3    H270593   0.693   1.342  13.942  1.6497  0.5763  0.0670
16368TIP3   OH270594   0.117   5.934   3.703  0.1032  0.0353 -0.6011
16368TIP3    H170595   0.141   5.992   3.775 -3.7552  0.5509  0.4931
16368TIP3    H270596   0.116   5.992   3.626 -0.2285  0.5979 -0.1825
16369TIP3   OH270597   2.403   3.992   4.857 -0.4152 -0.1261 -0.0649
16369TIP3    H170598   2.433   3.921   4.915  1.5597  1.2753  0.7245
16369TIP3    H270599   2.312   3.969   4.837 -1.1978 -0.7833  3.4926
16370TIP3   OH270600   6.631   2.242   2.443 -0.0361  0.7114 -0.4825
16370TIP3    H170601   6.625   2.322   2.391  0.0495 -0.2882 -2.1295
16370TIP3    H270602   6.683   2.182   2.388 -2.9273 -1.6208 -0.9338
16371TIP3   OH270603   3.877   6.252  13.014  0.0532 -0.2474  0.0994
16371TIP3    H170604   3.826   6.240  13.094 -0.7140 -0.4672 -0.4102
16371TIP3    H270605   3.841   6.331  12.974  0.8915  0.2468  0.3061
16372TIP3   OH270606   6.643   4.672   1.864 -0.6123 -0.1025 -0.1712
16372TIP3    H170607   6.589   4.750   1.851 -0.4321  0.4641  2.1129
16372TIP3    H270608   6.601   4.625   1.936 -0.6827 -2.1428 -1.4586
16373TIP3   OH270609   1.693   5.451  12.965 -0.1292  0.2525  0.7975
16373TIP3    H170610   1.629   5.400  12.915  1.3500  0.8000 -1.8331
16373TIP3    H270611   1.640   5.512  13.016 -1.7427 -0.7281  0.3850
16374TIP3   OH270612   5.020   3.847  16.332 -0.1785  0.7339  0.2005
16374TIP3    H170613   5.059   3.766  16.365  0.8610  1.6646  1.3606
16374TIP3    H270614   5.079   3.875  16.262  0.3924  1.3024  0.8845
16375TIP3   OH270615   3.220   1.315   1.764 -0.2155 -0.8094 -0.2643
16375TIP3    H170616   3.227   1.404   1.797  0.7832 -1.5450  1.6391
16375TIP3    H270617   3.294   1.268   1.804 -1.4590 -2.7947 -0.1617
16376TIP3   OH270618   3.736   5.316  12.462  0.4902 -0.1224 -0.0469
16376TIP3    H170619   3.820   5.312  12.415  0.7155 -0.2143  0.3561
16376TIP3    H270620   3.760   5.306  12.554 -0.0249 -0.7532  0.0238
16377TIP3   OH270621   2.244   4.950  11.681  0.4411  0.3377 -0.2421
16377TIP3    H170622   2.327   4.911  11.655 -0.3748 -2.4398  0.8952
16377TIP3    H270623   2.207   4.985  11.601  1.8438 -0.0803 -1.1086
16378TIP3   OH270624   1.089   0.711   1.386  0.5026 -0.4689 -0.1384
16378TIP3    H170625   1.085   0.759   1.303 -1.9425 -0.4696 -0.0900
16378TIP3    H270626   1.062   0.775   1.452 -1.4670 -1.4823  0.1077
16379TIP3   OH270627   2.194   2.065  14.464 -0.0504  0.3612  0.1306
16379TIP3    H170628   2.198   1.973  14.490  0.7505  1.0041  2.4989
16379TIP3    H270629   2.103   2.090  14.476 -0.0565  0.1542  0.5251
16380TIP3   OH270630   3.893   6.619  11.570  0.0170 -0.0522 -0.2107
16380TIP3    H170631   3.863   6.611  11.480 -2.4771 -1.7740  0.6540
16380TIP3    H270632   3.989   6.625  11.564 -0.1150  0.2361 -2.9419
16381TIP3   OH270633   6.515   1.940   2.302  0.2234 -0.3869  0.2760
16381TIP3    H170634   6.476   1.879   2.240 -0.3531 -0.0316  0.2938
16381TIP3    H270635   6.449   1.950   2.371  0.6916 -0.4612  0.7482
16382TIP3   OH270636   4.172   6.717   3.255 -0.2334  0.4752  0.2634
16382TIP3    H170637   4.259   6.694   3.223 -0.3180  2.1710 -1.3081
16382TIP3    H270638   4.187   6.748   3.344  0.5543 -0.5514  0.5089
16383TIP3   OH270639   6.771   5.437   0.977  0.1317 -0.4393  0.1419
16383TIP3    H170640   6.858   5.448   1.015 -0.0704 -2.0718  1.1957
16383TIP3    H270641   6.761   5.510   0.916  1.1509  1.3600  2.0054
16384TIP3   OH270642   2.197   1.727  11.399 -0.1047  0.3878  0.0922
16384TIP3    H170643   2.192   1.632  11.388  0.6770  0.3509 -0.0529
16384TIP3    H270644   2.108   1.754  11.422 -0.8038 -0.1306 -1.8062
16385TIP3   OH270645   5.511   0.254   0.870  0.5317 -0.2385 -0.6339
16385TIP3    H170646   5.496   0.339   0.830 -0.3389 -0.4039 -0.6759
16385TIP3    H270647   5.424   0.224   0.896  0.9596 -0.5930  0.4493
16386TIP3   OH270648   5.307   1.989  16.034 -0.1259  0.4482  0.6089
16386TIP3    H170649   5.277   1.987  16.125  0.1642  0.0482  0.6944
16386TIP3    H270650   5.398   1.960  16.037  0.3960  1.9965  0.3810
16387TIP3   OH270651   5.256   0.613   4.401  0.0184  0.4922 -0.1955
16387TIP3    H170652   5.238   0.608   4.307  0.2421  2.1811 -0.3589
16387TIP3    H270653   5.299   0.698   4.412 -0.3510  0.4839  1.4952
16388TIP3   OH270654   2.145   0.613  17.117  0.5675  0.0162 -0.0714
16388TIP3    H170655   2.193   0.531  17.105 -1.2286 -1.3789  1.5432
16388TIP3    H270656   2.206   0.670  17.164  1.2872 -1.0347  0.3184
16389TIP3   OH270657   0.639   4.948   0.003 -0.1341 -0.2552  0.0922
16389TIP3    H170658   0.715   4.909   0.046  0.4917  0.5497 -0.2406
16389TIP3    H270659   0.574   4.958   0.072 -0.6046 -2.5186  0.0399
16390TIP3   OH270660   5.842   3.028   1.977  0.1710  0.4572 -0.0858
16390TIP3    H170661   5.818   3.067   2.061 -0.9111  2.4430 -1.2473
16390TIP3    H270662   5.783   2.952   1.968  1.6280 -1.0121  1.7542
16391TIP3   OH270663   0.318   4.527  15.597  0.3733  0.1077 -0.5842
16391TIP3    H170664   0.376   4.489  15.662  1.4119  4.9183  1.6998
16391TIP3    H270665   0.374   4.547  15.523  0.7591  0.9462 -0.0763
16392TIP3   OH270666   5.595   6.637  13.830 -0.4659 -0.4173 -0.2820
16392TIP3    H170667   5.602   6.647  13.735 -0.5826 -0.5533 -0.3052
16392TIP3    H270668   5.562   6.548  13.842 -0.4558 -0.3982 -0.1138
16393TIP3   OH270669   6.819   0.865   0.137 -0.4995  0.1870  0.0531
16393TIP3    H170670   6.729   0.877   0.168 -1.8725 -2.8327 -2.2239
16393TIP3    H270671   6.869   0.843   0.216 -2.2576 -0.3058  1.0854
16394TIP3   OH270672   1.390   1.043  16.898 -0.1430 -0.0275  0.1646
16394TIP3    H170673   1.379   1.041  16.803  0.7012 -1.5139  0.0672
16394TIP3    H270674   1.361   1.131  16.924 -2.1781 -0.2264 -1.2111
16395TIP3   OH270675   0.717   3.428  10.512 -0.5376 -0.1278 -0.2051
16395TIP3    H170676   0.807   3.395  10.507 -1.2457 -2.1394 -0.1530
16395TIP3    H270677   0.689   3.436  10.421 -0.9251 -1.2826 -0.1925
16396TIP3   OH270678   0.216   2.960   5.821  0.3337 -0.0904 -0.5252
16396TIP3    H170679   0.232   2.998   5.735  0.9594  1.4882  0.2608
16396TIP3    H270680   0.121   2.964   5.831  0.3477  0.8264 -0.6701
16397TIP3   OH270681   1.078   4.814   0.368  0.1196 -0.6069 -0.0185
16397TIP3    H170682   1.056   4.869   0.293  0.1970 -1.3749 -0.6220
16397TIP3    H270683   1.114   4.734   0.329 -0.1454 -1.1511  0.8255
16398TIP3   OH270684   1.130   5.860  15.625  0.4849 -0.0701 -0.0665
16398TIP3    H170685   1.100   5.940  15.582  1.0112  0.3900  0.3997
16398TIP3    H270686   1.180   5.813  15.558 -0.9201 -0.6583 -0.7305
16399TIP3   OH270687   1.538   0.087  11.828  0.8732 -0.2793  0.6599
16399TIP3    H170688   1.576   0.175  11.831  2.6172 -0.9678 -0.0346
16399TIP3    H270689   1.544   0.062  11.736 -0.1097 -0.9485  0.7603
16400TIP3   OH270690   0.586   5.343   4.997 -0.0777 -0.4860  0.2960
16400TIP3    H170691   0.660   5.283   4.982  0.8455  0.6867 -0.0605
16400TIP3    H270692   0.623   5.412   5.052 -0.5656  0.7437 -0.8674
16401TIP3   OH270693   5.328   1.974   5.781  0.5095 -0.1847 -0.4127
16401TIP3    H170694   5.355   1.936   5.697  1.2094 -1.0116  0.1807
16401TIP3    H270695   5.385   2.049   5.793  0.4260 -0.0800 -0.6558
16402TIP3   OH270696   2.136   2.182   4.222 -0.0871 -0.2683  0.2963
16402TIP3    H170697   2.216   2.208   4.175 -0.2492 -0.4567 -0.0902
16402TIP3    H270698   2.167   2.157   4.309  0.3020 -0.5475  0.0805
16403TIP3   OH270699   3.799   3.461   2.146  0.1180  0.7925  0.6940
16403TIP3    H170700   3.882   3.510   2.144  0.8899 -0.4963 -0.7573
16403TIP3    H270701   3.823   3.375   2.180 -0.6058  0.3531  0.1025
16404TIP3   OH270702   2.034   4.375   2.676  0.3498  0.1866 -0.2333
16404TIP3    H170703   2.062   4.328   2.598 -1.5469 -1.5755  0.0672
16404TIP3    H270704   1.947   4.340   2.696  0.9059  0.2666  2.8881
16405TIP3   OH270705   2.839   2.088   0.008 -0.1753 -0.1743  0.5417
16405TIP3    H170706   2.753   2.072  -0.031  0.0174 -1.0089  0.4432
16405TIP3    H270707   2.866   2.173  -0.027 -0.7931 -0.0829  0.2790
16406TIP3   OH270708   1.809   0.529  10.882 -0.4866  0.8630  0.1897
16406TIP3    H170709   1.719   0.556  10.861 -0.7648 -0.2446 -0.1284
16406TIP3    H270710   1.813   0.526  10.977 -1.2227 -0.3896  0.2065
16407TIP3   OH270711   3.935   4.737  15.727  0.2201  0.3623 -0.2223
16407TIP3    H170712   3.883   4.660  15.705 -1.9734  1.1812  1.6392
16407TIP3    H270713   3.933   4.790  15.647  0.0231 -0.6154 -0.8792
16408TIP3   OH270714   3.904   0.246  13.291  0.9256  0.1193 -0.3586
16408TIP3    H170715   3.927   0.215  13.203 -1.3470  1.0694 -1.3780
16408TIP3    H270716   3.884   0.167  13.341 -0.0932 -0.3539 -1.4646
16409TIP3   OH270717   6.691   2.405  14.761 -0.1250  0.0992 -0.1120
16409TIP3    H170718   6.610   2.363  14.790 -0.4284  1.0874  0.5314
16409TIP3    H270719   6.663   2.490  14.726  0.4970 -0.1047 -1.1268
16410TIP3   OH270720   5.643   3.796  11.534  0.7066 -0.0951  0.6358
16410TIP3    H170721   5.578   3.806  11.464  1.4848  0.0240 -0.0858
16410TIP3    H270722   5.591   3.797  11.614 -0.2376 -0.5280  0.0559
16411TIP3   OH270723   2.968   4.436   1.861 -0.7672 -0.7724  0.2229
16411TIP3    H170724   2.968   4.343   1.884 -0.0402 -0.6371  0.8330
16411TIP3    H270725   2.884   4.469   1.895 -0.8415 -1.1225  0.3838
16412TIP3   OH270726   2.187   5.267   1.777 -0.3824 -0.2550  0.7550
16412TIP3    H170727   2.269   5.298   1.738  0.2964 -1.4049  1.2261
16412TIP3    H270728   2.213   5.195   1.834 -1.7937 -1.0297  0.4669
16413TIP3   OH270729   0.230   2.193  16.970  0.0717  0.6302  0.0917
16413TIP3    H170730   0.212   2.176  16.878 -1.0785  0.7479  0.2682
16413TIP3    H270731   0.325   2.189  16.978  0.1538  0.0932 -0.9897
16414TIP3   OH270732   6.090   6.279   4.750 -0.3786  0.3506 -0.3234
16414TIP3    H170733   6.123   6.230   4.825 -2.7869 -2.7685 -1.0878
16414TIP3    H270734   6.014   6.327   4.784 -1.9136 -1.6326 -0.7852
16415TIP3   OH270735   0.111   0.225   0.231 -0.1362  0.0593 -0.3159
16415TIP3    H170736   0.077   0.165   0.298  1.1615 -1.5207 -1.0185
16415TIP3    H270737   0.175   0.279   0.277 -0.9527  0.6110  0.2092
16416TIP3   OH270738   5.112   2.161  16.840  0.5358 -0.3122 -0.0798
16416TIP3    H170739   5.162   2.201  16.768  0.6439  2.3026  1.3487
16416TIP3    H270740   5.178   2.116  16.893  0.5017 -1.9597 -1.3616
16417TIP3   OH270741   0.948   3.792  12.265 -0.1886  0.2618 -0.0178
16417TIP3    H170742   0.885   3.841  12.318  0.4901 -0.2021  1.2388
16417TIP3    H270743   1.028   3.791  12.317  1.1415  1.5033 -1.9177
16418TIP3   OH270744   6.217   1.869   2.391 -0.2597  0.3614 -0.3463
16418TIP3    H170745   6.163   1.790   2.394 -1.0203  0.9077  1.3534
16418TIP3    H270746   6.158   1.938   2.363 -0.4618  0.9429  1.4151
16419TIP3   OH270747   4.707   2.475   3.630 -0.3016 -0.7131 -0.7445
16419TIP3    H170748   4.778   2.537   3.642 -1.6503  1.2313 -2.2047
16419TIP3    H270749   4.743   2.407   3.573 -0.1138  1.2803 -3.1377
16420TIP3   OH270750   0.799   5.493   5.467 -0.9021 -0.1934  0.4529
16420TIP3    H170751   0.831   5.450   5.546 -0.2137  1.3639  1.0634
16420TIP3    H270752   0.731   5.554   5.498 -1.1264 -0.0721 -0.2487
16421TIP3   OH270753   0.165   3.298   2.820  0.3866  0.4777  0.2451
16421TIP3    H170754   0.160   3.314   2.914 -0.3874  1.7135  0.0177
16421TIP3    H270755   0.124   3.212   2.808 -1.8009  1.3691  0.8021
16422TIP3   OH270756   6.446   2.248   0.113  0.0778  0.4121 -0.0692
16422TIP3    H170757   6.387   2.215   0.045  0.1709  0.7075 -0.2930
16422TIP3    H270758   6.501   2.172   0.134  0.1104  0.3443 -0.3896
16423TIP3   OH270759   4.788   6.531   5.587 -0.0876  0.3540 -0.0910
16423TIP3    H170760   4.733   6.496   5.518  1.2460 -0.4016 -0.8156
16423TIP3    H270761   4.826   6.454   5.629  0.4167  0.8485  0.3813
16424TIP3   OH270762   5.367   0.262  16.237 -0.6851  0.4898  0.0665
16424TIP3    H170763   5.357   0.205  16.313 -1.2706  1.6144  0.8646
16424TIP3    H270764   5.436   0.324  16.264  1.2024 -0.8436 -1.4359
16425TIP3   OH270765   0.975   5.773   5.576 -0.2473  0.5518 -0.4815
16425TIP3    H170766   1.015   5.694   5.614 -0.4590 -0.3748 -2.0564
16425TIP3    H270767   1.049   5.826   5.548 -0.0879  1.2786  1.1972
16426TIP3   OH270768   5.246   3.913  12.032  0.2725  0.1079  0.4048
16426TIP3    H170769   5.193   3.930  11.953  1.0523 -0.3938 -0.2450
16426TIP3    H270770   5.333   3.944  12.009  0.3555  0.6185  1.3519
16427TIP3   OH270771   1.986   2.839  14.694  0.6859  0.3899  0.6717
16427TIP3    H170772   2.053   2.778  14.665  0.2404  0.5065 -0.6560
16427TIP3    H270773   2.033   2.921  14.710  0.9019  0.3950  0.0230
16428TIP3   OH270774   4.969   5.122   4.289  0.0271  0.4438 -0.6406
16428TIP3    H170775   4.923   5.178   4.226  0.8386  1.8647 -0.0082
16428TIP3    H270776   5.010   5.183   4.350  0.3809 -0.8746  0.4820
16429TIP3   OH270777   0.527   4.968   1.316 -0.0874 -0.3205  0.6639
16429TIP3    H170778   0.494   4.893   1.367 -0.9884 -0.5218 -0.1852
16429TIP3    H270779   0.456   5.032   1.320 -0.3566 -0.5128 -0.6913
16430TIP3   OH270780   1.391   0.247   5.805 -0.0373 -0.7962  0.0644
16430TIP3    H170781   1.425   0.166   5.766 -0.0085 -1.0613  0.6352
16430TIP3    H270782   1.421   0.244   5.896 -0.0432 -0.1441  0.0905
16431TIP3   OH270783   5.937   3.365   5.764  0.4867 -0.2815  0.3266
16431TIP3    H170784   5.984   3.447   5.780  1.9867 -0.9048 -0.7541
16431TIP3    H270785   5.938   3.320   5.848  2.2208 -0.4673  0.2364
16432TIP3   OH270786   4.192   2.634   3.315  1.1345  0.0933 -0.3823
16432TIP3    H170787   4.131   2.707   3.306  1.2300  0.2079 -0.1000
16432TIP3    H270788   4.219   2.637   3.407  1.5027 -0.0060 -0.4877
16433TIP3   OH270789   0.266   0.363  10.885 -0.0557 -0.2066  0.0381
16433TIP3    H170790   0.340   0.357  10.946 -0.5531  0.2970  0.7049
16433TIP3    H270791   0.189   0.376  10.941 -0.8116 -1.7795 -0.5694
16434TIP3   OH270792   3.988   0.931  15.127  0.2838 -0.2628 -0.5214
16434TIP3    H170793   3.948   0.938  15.214  3.1357 -2.2065  1.1102
16434TIP3    H270794   4.048   1.006  15.123 -1.3871  1.0968 -1.8477
16435TIP3   OH270795   6.081   0.764  17.124 -0.0840  0.2001  0.1517
16435TIP3    H170796   6.055   0.841  17.074  1.3977  1.0010  0.5637
16435TIP3    H270797   6.170   0.783  17.154  0.2407 -1.5779  0.4542
16436TIP3   OH270798   5.482   2.579  15.349  0.2821  0.3430 -0.0114
16436TIP3    H170799   5.416   2.620  15.293  2.4607 -0.6252 -3.6131
16436TIP3    H270800   5.458   2.486  15.349  0.3541  0.3253  0.6113
16437TIP3   OH270801   6.589   0.791  13.128 -0.0806 -0.2010 -0.3388
16437TIP3    H170802   6.560   0.823  13.213 -0.2401  2.6975 -1.3824
16437TIP3    H270803   6.682   0.771  13.139 -0.1482 -0.0617  0.5372
16438TIP3   OH270804   3.297   3.000   1.666 -0.0050  0.5830  0.2692
16438TIP3    H170805   3.278   2.915   1.706 -0.6164  0.7628  0.3702
16438TIP3    H270806   3.219   3.020   1.614 -1.7727  2.9910  3.4584
16439TIP3   OH270807   1.219   2.335   5.000 -0.0903 -0.1297  0.3902
16439TIP3    H170808   1.185   2.388   5.073  0.8138  0.3117  0.5057
16439TIP3    H270809   1.271   2.267   5.042  0.8134  0.3974  0.1573
16440TIP3   OH270810   6.780   0.601  13.988  0.1108  0.6186 -0.2923
16440TIP3    H170811   6.707   0.553  13.949  0.3343 -0.5804  0.7056
16440TIP3    H270812   6.827   0.536  14.040  1.1618  1.6514  0.1052
16441TIP3   OH270813   4.745   0.982  14.063 -0.0045 -0.7672 -0.0514
16441TIP3    H170814   4.735   1.065  14.110  1.1986 -0.7957  0.2959
16441TIP3    H270815   4.662   0.971  14.016 -1.5150 -1.0389  2.5145
16442TIP3   OH270816   4.988   5.172  11.190 -0.0258  0.0564 -0.0062
16442TIP3    H170817   4.900   5.195  11.218  0.0843  0.5016 -0.0227
16442TIP3    H270818   5.001   5.221  11.109 -0.0691 -0.6490 -0.4491
16443TIP3   OH270819   4.961   5.377   2.957  0.6145  0.3563  0.0696
16443TIP3    H170820   5.036   5.420   2.999 -0.0593  0.9290  0.6948
16443TIP3    H270821   4.896   5.447   2.947  0.4924  0.0806 -1.3039
16444TIP3   OH270822   2.864   0.430  13.821 -0.1744 -0.2209 -0.1685
16444TIP3    H170823   2.942   0.410  13.872 -0.6121  0.0531  0.6132
16444TIP3    H270824   2.801   0.361  13.844 -0.8705  0.7014  0.7621
16445TIP3   OH270825   1.712   0.360   2.146  0.0625  0.2160 -0.7027
16445TIP3    H170826   1.722   0.308   2.226 -1.1413 -1.8990 -1.8281
16445TIP3    H270827   1.618   0.367   2.133  0.2306  0.8717 -1.7132
16446TIP3   OH270828   6.608   5.515  15.715  0.8759 -0.5359 -0.0895
16446TIP3    H170829   6.575   5.599  15.683  2.4956 -0.2276 -1.0768
16446TIP3    H270830   6.538   5.482  15.772 -1.3726 -0.2359 -2.4757
16447TIP3   OH270831   2.467   1.619  14.273  0.5679 -0.5878  0.0613
16447TIP3    H170832   2.527   1.572  14.330  0.9230 -1.3292 -0.8925
16447TIP3    H270833   2.428   1.551  14.218  0.1994  0.0926 -0.5394
16448TIP3   OH270834   4.879   2.045  14.867  0.4176 -0.4522 -0.2539
16448TIP3    H170835   4.799   2.074  14.824  0.1608 -2.0601 -0.9223
16448TIP3    H270836   4.890   2.105  14.941 -0.0865  1.2729 -1.5189
16449TIP3   OH270837   0.217   0.180  12.137  0.2120  0.0137 -0.4183
16449TIP3    H170838   0.194   0.101  12.186  2.3236 -1.5533 -1.8005
16449TIP3    H270839   0.203   0.156  12.046 -1.1639  2.0151 -0.7880
16450TIP3   OH270840   1.835   3.611   1.602  0.3623  0.0048  0.0324
16450TIP3    H170841   1.844   3.634   1.695 -1.1455 -0.1213  0.2281
16450TIP3    H270842   1.791   3.686   1.563  0.9669  0.0442 -0.5890
16451TIP3   OH270843   1.852   0.585   6.497 -0.6288  0.5660 -0.2261
16451TIP3    H170844   1.809   0.667   6.473 -1.7147  0.5857  1.5657
16451TIP3    H270845   1.790   0.541   6.555  1.1101 -0.1618  1.1962
16452TIP3   OH270846   4.116   5.891   0.626  0.5878  1.0173 -0.1485
16452TIP3    H170847   4.185   5.931   0.574 -0.8776  3.5318 -0.3271
16452TIP3    H270848   4.135   5.918   0.716  1.3338 -0.6503  0.2363
16453TIP3   OH270849   4.187   1.351  13.865 -0.3546  0.0891  0.0860
16453TIP3    H170850   4.152   1.304  13.789 -0.6565 -0.9186  0.8361
16453TIP3    H270851   4.281   1.357  13.847 -0.3868 -0.3556 -0.2557
16454TIP3   OH270852   2.006   3.656   4.728 -0.2919 -0.3627  0.3519
16454TIP3    H170853   2.017   3.709   4.649  0.8982 -1.6978 -0.4144
16454TIP3    H270854   1.946   3.586   4.703 -3.1343  1.3875  1.7969
16455TIP3   OH270855   0.306   3.151   4.583 -0.9935  0.2430 -0.3798
16455TIP3    H170856   0.251   3.229   4.583 -1.5873 -0.1653  0.2877
16455TIP3    H270857   0.245   3.078   4.594 -0.5023 -0.3735 -1.5016
16456TIP3   OH270858   6.372   1.355  14.352 -0.3050  0.1951 -0.3357
16456TIP3    H170859   6.408   1.267  14.357  1.0776  0.7457 -0.1004
16456TIP3    H270860   6.394   1.395  14.437 -1.4170  0.5905 -0.2126
16457TIP3   OH270861   5.322   3.631  13.065  0.1166 -0.0165  1.0055
16457TIP3    H170862   5.362   3.597  13.145  1.0814  0.5727  0.7996
16457TIP3    H270863   5.387   3.693  13.031 -0.3587 -0.1212 -0.1358
16458TIP3   OH270864   4.421   0.773  16.636  0.1566  0.4027  0.1478
16458TIP3    H170865   4.399   0.684  16.662  0.0359  0.3194 -0.2345
16458TIP3    H270866   4.466   0.763  16.552  1.0645  0.6211  0.5957
16459TIP3   OH270867   5.179   1.002   0.016  0.0051  0.6477  0.6067
16459TIP3    H170868   5.156   0.916   0.051 -0.9433  0.9014  0.6441
16459TIP3    H270869   5.095   1.041  -0.010  0.4773  1.3301  0.0560
16460TIP3   OH270870   4.298   0.711  13.877 -0.7610 -0.0790 -0.1905
16460TIP3    H170871   4.353   0.779  13.836  3.1642 -3.1302 -0.5702
16460TIP3    H270872   4.226   0.760  13.917  1.0578  4.1435 -1.4829
16461TIP3   OH270873   4.524   6.361  15.997  0.0886 -0.1294  0.2623
16461TIP3    H170874   4.499   6.452  15.981 -0.7735 -0.5019 -0.6076
16461TIP3    H270875   4.583   6.365  16.073 -0.5067  1.0678  0.6810
16462TIP3   OH270876   0.988   3.496   5.472 -0.1687  0.4406 -0.0802
16462TIP3    H170877   1.002   3.453   5.556  0.1451 -0.6112 -0.6398
16462TIP3    H270878   0.930   3.437   5.424  0.7957  0.2746 -1.1137
16463TIP3   OH270879   6.449   1.577   1.928  0.0956  0.3968 -0.2465
16463TIP3    H170880   6.393   1.514   1.884  1.1487 -1.0219  0.3804
16463TIP3    H270881   6.507   1.611   1.860 -0.4737  0.7020 -0.5834
16464TIP3   OH270882   6.439   5.041   3.948 -0.0941 -0.6684 -0.4732
16464TIP3    H170883   6.397   4.995   3.876  2.6980 -3.8935 -0.3024
16464TIP3    H270884   6.401   5.003   4.027  1.6162 -2.2156 -0.3325
16465TIP3   OH270885   4.652   1.239   6.310 -0.2259 -0.1362 -0.5792
16465TIP3    H170886   4.601   1.318   6.328 -2.7909 -1.4125 -1.6483
16465TIP3    H270887   4.684   1.211   6.396 -0.3902  1.3365 -0.0133
16466TIP3   OH270888   2.480   5.324   0.016  0.2407 -0.1845 -0.0678
16466TIP3    H170889   2.498   5.395   0.077 -0.7129 -0.3004  0.3751
16466TIP3    H270890   2.400   5.351  -0.030 -0.0289 -0.8749 -0.0192
16467TIP3   OH270891   1.509   2.553  14.431  0.0923  0.2424  0.5071
16467TIP3    H170892   1.563   2.501  14.372  0.6148  0.9537  0.3427
16467TIP3    H270893   1.420   2.524  14.414  0.3486 -0.4306  0.2594
16468TIP3   OH270894   3.076   5.903  10.831  0.0246 -0.4025 -0.0890
16468TIP3    H170895   3.141   5.854  10.882  1.0832 -1.5938 -2.4331
16468TIP3    H270896   3.128   5.960  10.774 -1.1095  0.5278 -0.2452
16469TIP3   OH270897   3.820   3.055   4.270 -0.3516  0.4380 -0.8784
16469TIP3    H170898   3.908   3.019   4.269 -0.5821 -0.1297 -1.0898
16469TIP3    H270899   3.823   3.128   4.208  0.3750  1.4505  0.2907
16470TIP3   OH270900   2.199   6.165  17.137 -0.1104 -0.3561 -0.6566
16470TIP3    H170901   2.112   6.203  17.124 -1.2136 -1.4308  2.5121
16470TIP3    H270902   2.210   6.162  17.232  3.0724 -1.0802 -0.9133
16471TIP3   OH270903   1.591   2.419   1.820  0.1904  0.1199  0.6917
16471TIP3    H170904   1.528   2.458   1.760  0.1766 -0.0744  0.5784
16471TIP3    H270905   1.560   2.329   1.833  0.0570  0.2332  1.1824
16472TIP3   OH270906   5.999   6.685  15.261 -0.2412  0.4124  0.4451
16472TIP3    H170907   6.084   6.652  15.291 -0.6497 -0.3758  0.7727
16472TIP3    H270908   6.013   6.706  15.169 -0.2303 -1.7502 -0.0988
16473TIP3   OH270909   0.960   0.172  12.406 -0.3628 -0.3466  0.0592
16473TIP3    H170910   0.984   0.265  12.402 -0.3212 -0.3860 -2.3361
16473TIP3    H270911   1.003   0.139  12.485 -1.2825  1.8854  1.5667
16474TIP3   OH270912   0.656   1.343  11.653 -0.0007 -0.1990  0.3156
16474TIP3    H170913   0.751   1.354  11.646 -0.0770  0.4196  0.2653
16474TIP3    H270914   0.622   1.364  11.566 -0.1586 -0.7476  0.2377
16475TIP3   OH270915   0.439   2.679  16.561 -0.0629 -0.2096 -0.4778
16475TIP3    H170916   0.431   2.642  16.473 -1.7276  0.2117 -0.5346
16475TIP3    H270917   0.352   2.670  16.599  0.2440  0.9760  0.5778
16476TIP3   OH270918   1.148   0.947  17.102  0.0860  0.2473  0.3791
16476TIP3    H170919   1.187   1.033  17.117 -0.5025  0.8330 -1.2603
16476TIP3    H270920   1.219   0.893  17.068  0.0345  0.6510 -0.3993
16477TIP3   OH270921   0.286   5.858   2.500  0.7182  0.3909 -0.0637
16477TIP3    H170922   0.192   5.869   2.514  0.5781  1.1477 -1.3894
16477TIP3    H270923   0.302   5.765   2.514 -0.2661  0.2217  0.0204
16478TIP3   OH270924   3.888   3.016  11.850  0.2794  0.5126 -0.3126
16478TIP3    H170925   3.983   3.029  11.847  0.1426  1.9006  0.5277
16478TIP3    H270926   3.877   2.921  11.859  1.6090  0.3956  0.3165
16479TIP3   OH270927   1.990   4.452   2.234 -0.5195 -0.5715  0.6668
16479TIP3    H170928   2.049   4.494   2.296  0.7056 -1.4203  0.1114
16479TIP3    H270929   2.011   4.491   2.150 -3.3162  1.8150  0.8808
16480TIP3   OH270930   5.271   0.860   3.831  0.1382  0.1313 -0.4355
16480TIP3    H170931   5.299   0.952   3.838  0.5710 -0.0163 -0.1660
16480TIP3    H270932   5.339   0.819   3.777 -0.0739 -0.0222 -0.5844
16481TIP3   OH270933   3.360   5.743  12.425  0.6208  0.4720  0.7502
16481TIP3    H170934   3.325   5.785  12.347 -1.2140 -1.8175  0.2396
16481TIP3    H270935   3.293   5.758  12.492  0.8950  0.1102  1.1109
16482TIP3   OH270936   3.702   1.771  13.808 -0.0278 -0.1308  0.0734
16482TIP3    H170937   3.626   1.763  13.866 -0.8608 -0.4948 -1.0534
16482TIP3    H270938   3.680   1.719  13.731  0.4508  1.4592 -1.2013
16483TIP3   OH270939   1.578   3.055  14.742  0.4423 -0.4309 -0.3938
16483TIP3    H170940   1.609   3.000  14.814 -0.1143 -1.0226 -0.5915
16483TIP3    H270941   1.654   3.107  14.717  0.8994 -0.8886  0.0116
16484TIP3   OH270942   1.214   2.899   4.621 -0.6474 -0.1192 -0.1518
16484TIP3    H170943   1.282   2.957   4.656 -1.9471  1.0214  0.6245
16484TIP3    H270944   1.133   2.930   4.663 -1.9900 -0.0453 -2.5983
16485TIP3   OH270945   4.732   6.636  13.673 -0.0146 -0.0778 -0.3209
16485TIP3    H170946   4.747   6.666  13.762  2.1823 -1.3046 -0.1983
16485TIP3    H270947   4.761   6.545  13.673 -0.4041 -0.2547 -2.1848
16486TIP3   OH270948   1.791   4.928  16.384 -0.3773 -0.2012 -0.1232
16486TIP3    H170949   1.757   5.016  16.398  0.7991  0.0828  1.2354
16486TIP3    H270950   1.759   4.903  16.297  0.5974  2.1922 -1.2600
16487TIP3   OH270951   2.321   0.735   4.368 -0.4648  0.1557  0.0915
16487TIP3    H170952   2.344   0.766   4.280  0.5362 -0.4212  0.1379
16487TIP3    H270953   2.390   0.673   4.390  0.9128  2.3144  2.4287
16488TIP3   OH270954   5.472   0.732   6.903 -0.4624 -0.4826  0.4232
16488TIP3    H170955   5.442   0.647   6.871 -0.5392 -0.6104  0.8374
16488TIP3    H270956   5.400   0.765   6.956  0.4038 -1.1267  2.0538
16489TIP3   OH270957   1.619   4.536  11.185 -0.0102  0.0057  0.2447
16489TIP3    H170958   1.617   4.602  11.253  0.0296 -1.7794  2.0739
16489TIP3    H270959   1.528   4.510  11.173 -0.4062  2.1744 -2.4259
16490TIP3   OH270960   4.833   6.747   4.237 -0.4618 -0.3340 -0.0537
16490TIP3    H170961   4.778   6.694   4.294 -1.4922  0.6450 -0.0979
16490TIP3    H270962   4.850   6.827   4.287 -0.6477  0.1645 -0.7650
16491TIP3   OH270963   2.513   3.143  17.084  0.3962 -0.0335  0.1518
16491TIP3    H170964   2.542   3.181  17.167  0.4704 -2.2576  1.2394
16491TIP3    H270965   2.579   3.077  17.063 -1.4057 -2.0351  0.3122
16492TIP3   OH270966   4.115   2.348  16.316 -0.0157  0.6649 -0.1037
16492TIP3    H170967   4.184   2.346  16.249  1.1515  0.0567  1.0689
16492TIP3    H270968   4.086   2.439  16.319 -1.0476  0.4780 -2.3414
16493TIP3   OH270969   1.879   2.366   1.792  0.1599  0.0811 -0.1185
16493TIP3    H170970   1.870   2.271   1.784  0.7583 -0.1076  1.2309
16493TIP3    H270971   1.795   2.401   1.762  0.3697 -0.7790 -1.8252
16494TIP3   OH270972   0.886   3.864   0.425  0.0944  0.7687  0.1194
16494TIP3    H170973   0.936   3.844   0.346 -2.9081  0.1158 -1.8160
16494TIP3    H270974   0.871   3.778   0.466  1.2133  1.0513  1.1746
16495TIP3   OH270975   5.894   0.181   3.402  0.3215 -0.5444 -0.3751
16495TIP3    H170976   5.847   0.104   3.435  1.7448 -2.1072 -1.8329
16495TIP3    H270977   5.943   0.213   3.477 -0.0357 -1.2537  0.1698
16496TIP3   OH270978   6.233   0.251   0.156  0.2351  0.0755 -0.0769
16496TIP3    H170979   6.172   0.319   0.129 -0.5356  0.3052  2.0525
16496TIP3    H270980   6.189   0.169   0.133 -0.6665  0.2532  0.9252
16497TIP3   OH270981   0.100   6.016  16.100  0.1766 -0.2459  0.0160
16497TIP3    H170982   0.021   6.024  16.047  0.1030  1.1048  0.2991
16497TIP3    H270983   0.094   6.087  16.164  1.4793 -0.2980  0.2257
16498TIP3   OH270984   5.208   6.111  12.471 -0.1836 -0.5288 -0.0283
16498TIP3    H170985   5.191   6.025  12.433  1.1065 -1.5381  1.5127
16498TIP3    H270986   5.153   6.171  12.421 -1.7772 -2.3552 -0.5829
16499TIP3   OH270987   5.484   1.928  12.799  0.2003  0.3588  0.4585
16499TIP3    H170988   5.422   1.857  12.780  0.7823  0.3723 -1.7672
16499TIP3    H270989   5.471   1.946  12.892 -1.5627 -1.1266  0.5738
16500TIP3   OH270990   2.376   1.019   2.466  0.5011  0.2006  0.2929
16500TIP3    H170991   2.461   1.044   2.432 -0.1004  0.9805 -0.6967
16500TIP3    H270992   2.315   1.082   2.428 -0.4517 -0.0172  1.3988
16501TIP3   OH270993   6.409   6.617  11.644  0.4435 -0.8591 -0.0668
16501TIP3    H170994   6.331   6.613  11.699 -0.6613 -0.1205 -1.5009
16501TIP3    H270995   6.482   6.615  11.706 -0.7357  2.2181  1.6613
16502TIP3   OH270996   5.403   3.574   2.594  0.2265  0.1412 -0.0901
16502TIP3    H170997   5.464   3.637   2.556  0.6240 -0.2206 -0.0586
16502TIP3    H270998   5.459   3.506   2.633 -0.1969 -0.7741 -1.0350
16503TIP3   OH270999   5.551   6.722  15.209 -0.0877 -0.0141 -0.1311
16503TIP3    H171000   5.482   6.772  15.166  0.0086 -0.0705 -0.3503
16503TIP3    H271001   5.630   6.740  15.159 -0.3229 -1.4970 -1.0981
16504TIP3   OH271002   5.348   3.067   3.584 -0.4452  0.0609  0.0973
16504TIP3    H171003   5.382   3.011   3.654  1.9837  1.7482  0.4110
16504TIP3    H271004   5.301   3.136   3.630  0.5280  0.7695  0.0583
16505TIP3   OH271005   6.785   4.956  13.699  0.0178 -0.1442  0.2412
16505TIP3    H171006   6.777   4.861  13.690  2.4078 -0.3225 -0.5496
16505TIP3    H271007   6.736   4.991  13.623  0.1836 -0.7942 -0.1718
16506TIP3   OH271008   4.047   3.646  10.935  0.2677  0.5635 -0.1002
16506TIP3    H171009   4.007   3.656  10.849  2.9449  0.0028 -1.5356
16506TIP3    H271010   4.086   3.558  10.933  2.3562  1.3932  0.7230
16507TIP3   OH271011   3.640   0.160   5.056 -0.8795  0.4759  0.3965
16507TIP3    H171012   3.704   0.152   5.126 -1.5691  2.5390  1.3413
16507TIP3    H271013   3.557   0.134   5.096 -0.9116 -0.7675 -0.4107
16508TIP3   OH271014   6.800   6.810   4.943 -0.4374  0.1977 -0.5214
16508TIP3    H171015   6.778   6.779   5.031  1.1565 -0.2594 -0.2486
16508TIP3    H271016   6.889   6.843   4.951  0.1357 -0.8294 -2.2020
16509TIP3   OH271017   2.514   0.970  11.086 -0.0965  0.1882 -0.4266
16509TIP3    H171018   2.475   1.009  11.008  0.7602 -1.2030 -1.5872
16509TIP3    H271019   2.470   0.886  11.096  1.7259 -0.8888 -1.0799
16510TIP3   OH271020   4.791   2.248  13.100  0.5304  0.4252  0.3012
16510TIP3    H171021   4.828   2.304  13.031  1.9365  0.1339  0.7846
16510TIP3    H271022   4.698   2.271  13.102  0.8873  2.0422 -0.1805
16511TIP3   OH271023   5.456   0.891  14.224 -0.0728  0.1304 -0.0664
16511TIP3    H171024   5.439   0.977  14.264 -0.9655  0.0322 -0.2213
16511TIP3    H271025   5.370   0.860  14.196 -0.0855 -1.7452  1.8451
16512TIP3   OH271026   4.085   5.503   6.153  0.2738 -0.0809 -0.5424
16512TIP3    H171027   4.133   5.421   6.169 -1.7435 -1.0848  0.7059
16512TIP3    H271028   4.044   5.523   6.236 -3.3043 -0.5272 -2.0337
16513TIP3   OH271029   6.155   0.507   4.097  0.0846  0.3104 -0.2540
16513TIP3    H171030   6.110   0.451   4.034 -0.1600  0.6117 -0.3488
16513TIP3    H271031   6.238   0.529   4.055 -0.4872  1.3064 -0.8957
16514TIP3   OH271032   1.325   3.904  12.153 -0.2690  0.0356 -0.0806
16514TIP3    H171033   1.320   3.977  12.091  0.5918  1.3181  1.2977
16514TIP3    H271034   1.274   3.933  12.229  0.0879 -0.7863  0.4944
16515TIP3   OH271035   0.600   1.187   5.316 -0.2998  0.7357 -0.4124
16515TIP3    H171036   0.668   1.132   5.277 -0.3019 -0.6844  1.4616
16515TIP3    H271037   0.647   1.263   5.350  0.0760  0.6525 -0.7361
16516TIP3   OH271038   0.168   5.845  12.196 -0.2519 -0.3438 -0.0882
16516TIP3    H171039   0.187   5.751  12.196  0.1619 -0.2617 -0.3641
16516TIP3    H271040   0.104   5.857  12.266  1.3104 -0.4963  1.4247
16517TIP3   OH271041   5.815   6.717   4.784 -0.4336 -0.1053 -0.2193
16517TIP3    H171042   5.890   6.659   4.794  0.3260  0.6842 -1.1292
16517TIP3    H271043   5.786   6.735   4.874 -1.2695 -2.5462  0.0917
16518TIP3   OH271044   2.927   2.934  16.366 -0.7819  0.8438 -0.3110
16518TIP3    H171045   2.938   2.855  16.312  1.5281  1.9666 -1.6413
16518TIP3    H271046   2.876   2.994  16.311 -0.5715  1.1024 -0.2251
16519TIP3   OH271047   2.429   0.866  16.632 -0.1122  0.5488 -0.0643
16519TIP3    H171048   2.353   0.866  16.690  0.9888  0.5753  1.4442
16519TIP3    H271049   2.411   0.795  16.570 -2.2034  1.7794 -0.9531
16520TIP3   OH271050   3.715   6.191   5.985 -0.3595  0.2754 -0.0996
16520TIP3    H171051   3.805   6.176   6.015  0.9255 -0.3338 -3.7757
16520TIP3    H271052   3.661   6.137   6.043  1.8373 -0.8549  1.0224
16521TIP3   OH271053   2.878   5.709  10.326  0.3291 -0.2631 -0.0644
16521TIP3    H171054   2.789   5.737  10.304  0.5687  0.9095  0.4017
16521TIP3    H271055   2.905   5.654  10.252 -0.7139 -0.5047 -0.2858
16522TIP3   OH271056   6.722   2.143  16.753  0.4586 -0.2864  0.2137
16522TIP3    H171057   6.649   2.196  16.721 -0.0586 -1.3772 -0.4877
16522TIP3    H271058   6.703   2.129  16.845  0.6529  0.8069  0.4318
16523TIP3   OH271059   6.281   3.814  14.917 -0.5128 -0.2755  0.3924
16523TIP3    H171060   6.327   3.743  14.961  0.2160 -0.2293 -0.2753
16523TIP3    H271061   6.350   3.872  14.886 -0.5103 -2.3089 -4.3674
16524TIP3   OH271062   0.971   6.500   5.806 -0.5493  0.7610  0.2115
16524TIP3    H171063   1.027   6.575   5.787  0.2276  0.0675 -0.3141
16524TIP3    H271064   0.976   6.489   5.901 -0.5671  1.2912  0.2746
16525TIP3   OH271065   1.663   0.728  16.628 -0.6490 -0.1097 -0.6283
16525TIP3    H171066   1.631   0.660  16.687  0.0520 -0.9186 -1.1614
16525TIP3    H271067   1.640   0.698  16.541 -0.8753  0.6435 -0.8396
16526TIP3   OH271068   2.753   2.992  12.272  0.4731  0.9326  0.5753
16526TIP3    H171069   2.817   3.061  12.255  0.7468  0.7142  0.7156
16526TIP3    H271070   2.678   3.038  12.311  0.3980  1.2380  0.0836
16527TIP3   OH271071   1.197   6.649   2.092  0.2961 -0.2751 -0.0117
16527TIP3    H171072   1.165   6.626   2.179  0.9907  0.2657  0.3968
16527TIP3    H271073   1.222   6.565   2.053 -1.5647 -0.7224 -0.3498
16528TIP3   OH271074   4.345   3.800   5.749 -0.3217 -0.6456  0.4746
16528TIP3    H171075   4.368   3.790   5.656  2.4668 -3.2888  1.2956
16528TIP3    H271076   4.321   3.712   5.777 -1.8177  0.2417  2.1717
16529TIP3   OH271077   5.564   0.504  14.553 -0.3634 -0.3949  0.0216
16529TIP3    H171078   5.475   0.499  14.587 -0.4144  0.4545  0.0352
16529TIP3    H271079   5.618   0.463  14.621 -1.0105 -3.4710 -1.1887
16530TIP3   OH271080   3.267   1.154   5.097  0.0774  0.6159 -0.0689
16530TIP3    H171081   3.260   1.065   5.131  0.3706  0.0208 -1.4879
16530TIP3    H271082   3.177   1.178   5.074  0.0290  0.5873  0.0929
16531TIP3   OH271083   1.898   1.648  16.557  0.2920  0.1439 -0.4455
16531TIP3    H171084   1.905   1.743  16.544  1.3231  0.3910  1.5635
16531TIP3    H271085   1.988   1.616  16.547  0.2374 -0.3565  0.5183
16532TIP3   OH271086   1.873   2.310  12.656 -0.0430 -0.1498 -0.4432
16532TIP3    H171087   1.894   2.398  12.626 -0.9759  0.9097  1.8048
16532TIP3    H271088   1.944   2.256  12.621  2.9804  2.1864  1.5909
16533TIP3   OH271089   6.574   5.350  16.446 -0.3288  0.3854  0.0711
16533TIP3    H171090   6.546   5.412  16.513  0.8054 -0.0338  0.9489
16533TIP3    H271091   6.553   5.264  16.482  0.9455  0.1225  0.2234
16534TIP3   OH271092   5.097   4.892   0.417  0.2678  0.0908 -0.0931
16534TIP3    H171093   5.079   4.962   0.354 -1.2850 -0.4174 -0.2689
16534TIP3    H271094   5.120   4.938   0.498 -0.3032  0.8103 -0.3301
16535TIP3   OH271095   5.144   3.875   3.983 -0.1474 -0.1366  0.2253
16535TIP3    H171096   5.167   3.913   3.898  0.1632  0.7090  0.6789
16535TIP3    H271097   5.071   3.816   3.964 -1.4858  1.6277 -0.2961
16536TIP3   OH271098   1.783   6.684   3.872 -0.3243 -0.2123  0.0296
16536TIP3    H171099   1.810   6.752   3.811 -0.2044  0.6861  1.0723
16536TIP3    H271100   1.687   6.689   3.874 -0.4274 -1.2092 -1.1576
16537TIP3   OH271101   2.506   3.345  15.775 -0.1469 -0.1414 -0.0552
16537TIP3    H171102   2.562   3.418  15.800  1.2410 -1.4148  0.6908
16537TIP3    H271103   2.464   3.318  15.857 -0.4388 -0.3649 -0.2737
16538TIP3   OH271104   3.784   3.909  15.040 -0.4251  0.2440  0.8316
16538TIP3    H171105   3.863   3.924  15.092  1.2063 -2.7268 -0.5398
16538TIP3    H271106   3.719   3.877  15.103  0.2554  0.4222  1.6348
16539TIP3   OH271107   0.501   2.018  11.495 -0.6754 -0.0256  0.4843
16539TIP3    H171108   0.445   2.051  11.565  0.8176  3.2183  0.3313
16539TIP3    H271109   0.440   1.989  11.427 -2.1195 -1.3022  2.2258
16540TIP3   OH271110   0.096   5.398   1.414  0.2347  0.5432 -0.4176
16540TIP3    H171111   0.159   5.343   1.368 -1.2979 -0.5948 -1.2849
16540TIP3    H271112   0.147   5.443   1.481  2.2802  1.1181 -2.2587
16541TIP3   OH271113   1.446   1.445   1.212  0.6967 -0.0823  0.0850
16541TIP3    H171114   1.360   1.420   1.246  1.0377  1.4419  2.3103
16541TIP3    H271115   1.429   1.476   1.123 -0.6733 -1.8761 -0.3369
16542TIP3   OH271116   6.322   1.642   4.659 -0.1979  0.8328 -0.3525
16542TIP3    H171117   6.401   1.694   4.643 -0.5706  1.0357 -1.6769
16542TIP3    H271118   6.329   1.614   4.750  2.4308 -0.9115 -1.0072
16543TIP3   OH271119   5.223   3.395  16.503  0.3391 -0.2981  0.4196
16543TIP3    H171120   5.197   3.321  16.448 -0.9467  1.0930 -0.9594
16543TIP3    H271121   5.149   3.409  16.561  1.1908 -0.9703  1.7317
16544TIP3   OH271122   6.175   0.193   6.128 -0.6634 -0.5418  0.2992
16544TIP3    H171123   6.264   0.219   6.102  0.8221 -2.4432  2.9704
16544TIP3    H271124   6.177   0.098   6.128 -2.0804 -0.6366  2.2354
16545TIP3   OH271125   0.016   6.596   5.426 -0.3380  0.4316 -0.1836
16545TIP3    H171126   0.110   6.577   5.432  0.2866  3.2040  0.0048
16545TIP3    H271127  -0.019   6.564   5.510  0.2909 -1.1318 -0.4748
16546TIP3   OH271128   3.175   4.374  11.060  0.4969  0.5373 -0.1264
16546TIP3    H171129   3.085   4.350  11.036  0.9766 -0.6734 -0.8091
16546TIP3    H271130   3.214   4.292  11.091  0.5587  1.6028  2.8813
16547TIP3   OH271131   1.238   0.522   5.134 -0.1063  0.2816  0.6534
16547TIP3    H171132   1.330   0.505   5.114  0.7059  1.2716  3.1897
16547TIP3    H271133   1.191   0.449   5.094  1.8830 -0.7752  0.1360
16548TIP3   OH271134   2.344   1.214  11.113  0.3231 -0.4263 -0.0169
16548TIP3    H171135   2.342   1.147  11.044 -1.3745 -0.3824 -0.0724
16548TIP3    H271136   2.335   1.165  11.194 -0.6730 -0.3047 -0.0421
16549TIP3   OH271137   2.676   6.329   3.054  0.1068  0.1899  0.4655
16549TIP3    H171138   2.591   6.371   3.061 -1.2228 -2.1182 -0.7022
16549TIP3    H271139   2.705   6.347   2.965  0.6712  0.6410  0.7355
16550TIP3   OH271140   5.269   2.888  15.008 -0.1645  0.0750  0.3350
16550TIP3    H171141   5.193   2.945  14.999 -0.5372 -0.5845 -0.7846
16550TIP3    H271142   5.337   2.929  14.954  0.3392  0.7221  1.4183
16551TIP3   OH271143   5.095   5.646   5.650  0.0922  0.4432  0.3098
16551TIP3    H171144   5.094   5.611   5.561  1.1675 -0.5870  0.6699
16551TIP3    H271145   5.078   5.739   5.640 -1.1167  0.1239 -0.8518
16552TIP3   OH271146   0.133   5.322  12.602 -0.2160  0.4551 -0.2925
16552TIP3    H171147   0.210   5.353  12.555  0.9375 -0.8403  0.6740
16552TIP3    H271148   0.084   5.402  12.623  1.5372  1.4476  0.2256
16553TIP3   OH271149   4.893   0.011   5.326 -0.4424  0.9992  0.3657
16553TIP3    H171150   4.986   0.036   5.326 -0.5629  1.5524 -1.3253
16553TIP3    H271151   4.893  -0.084   5.338  0.2098  1.2349  2.7108
16554TIP3   OH271152   2.105   2.713  13.298 -0.0004 -0.9362  0.3733
16554TIP3    H171153   2.118   2.639  13.357 -0.3659 -0.4717  1.0528
16554TIP3    H271154   2.067   2.782  13.354 -1.4419 -0.8705 -0.6186
16555TIP3   OH271155   0.374   1.519  15.221 -0.0097  0.0201  0.1459
16555TIP3    H171156   0.407   1.595  15.268 -0.5376 -1.1491  2.5851
16555TIP3    H271157   0.448   1.489  15.168  1.1201  0.5492  1.3878
16556TIP3   OH271158   3.042   0.266   5.378  0.8155  0.0274  0.6445
16556TIP3    H171159   3.009   0.178   5.392 -2.2165  0.9818  0.2848
16556TIP3    H271160   2.996   0.297   5.300  1.6801  1.9813  0.8461
16557TIP3   OH271161   0.738   0.534  17.080 -0.0734  0.2935  0.3949
16557TIP3    H171162   0.751   0.442  17.057  0.8783  0.2696  1.0121
16557TIP3    H271163   0.825   0.573  17.077 -0.7875  2.0503 -3.3853
16558TIP3   OH271164   1.092   2.318  12.143 -0.2141 -0.0771  0.7854
16558TIP3    H171165   1.099   2.403  12.188  0.1513 -0.1253  0.8237
16558TIP3    H271166   1.006   2.320  12.101 -0.0136  0.5106  0.3854
16559TIP3   OH271167   0.095   2.361   5.797 -0.7241  0.3495 -0.2024
16559TIP3    H171168   0.141   2.401   5.723 -0.1557  0.1791  0.0545
16559TIP3    H271169   0.108   2.267   5.786 -1.0801  0.2954 -0.1714
16560TIP3   OH271170   4.234   4.287  13.534  0.8734  0.1849  0.4869
16560TIP3    H171171   4.238   4.238  13.616 -1.5650 -3.2426 -1.2028
16560TIP3    H271172   4.168   4.354  13.550  1.5520  0.5929  1.7428
16561TIP3   OH271173   0.984   4.148  12.665  0.4720  0.3905 -0.3582
16561TIP3    H171174   0.977   4.242  12.685  1.2577  0.7359 -1.6038
16561TIP3    H271175   0.920   4.107  12.723 -0.2391  1.7431 -0.1369
16562TIP3   OH271176   6.363   5.106   5.408 -0.1286  0.2027  0.4089
16562TIP3    H171177   6.404   5.131   5.491  2.5544  0.6600 -0.9604
16562TIP3    H271178   6.332   5.188   5.370  1.1961  0.3984 -0.2940
16563TIP3   OH271179   1.588   3.469   5.774 -0.3322  0.2497  0.1701
16563TIP3    H171180   1.569   3.376   5.780  2.1170 -0.2468  1.4301
16563TIP3    H271181   1.680   3.474   5.747 -0.8276  2.3516 -1.4799
16564TIP3   OH271182   1.709   6.576  16.350  0.2722 -0.3176 -0.2694
16564TIP3    H171183   1.667   6.552  16.432  0.1855 -0.7942 -0.4502
16564TIP3    H271184   1.664   6.655  16.322  0.6125  0.1138  0.3734
16565TIP3   OH271185   0.004   0.667  12.115  0.5269 -0.3800 -0.5116
16565TIP3    H171186  -0.023   0.700  12.029  0.9777 -0.5605 -0.7222
16565TIP3    H271187   0.020   0.574  12.101  3.0730  0.0471 -0.8546
16566TIP3   OH271188   6.015   3.265  14.245 -0.1105  0.4563  0.3455
16566TIP3    H171189   6.094   3.312  14.272 -0.4620  1.5325 -0.4186
16566TIP3    H271190   6.043   3.174  14.234  1.1410  0.9057 -0.3606
16567TIP3   OH271191   4.394   2.765   3.996 -0.6115 -0.1531 -0.3905
16567TIP3    H171192   4.348   2.798   4.074 -1.0053 -2.2463  0.3245
16567TIP3    H271193   4.356   2.814   3.923  0.8978  3.0705  0.7744
16568TIP3   OH271194   4.703   3.002   0.303  0.5118  0.0171 -0.0596
16568TIP3    H171195   4.680   2.909   0.308 -0.4505  0.1762 -1.1885
16568TIP3    H271196   4.671   3.039   0.386  2.0909 -0.8798  0.9878
16569TIP3   OH271197   5.950   6.792  13.170 -0.9781 -0.1595 -0.1321
16569TIP3    H171198   5.982   6.881  13.155  1.4193 -1.0593 -0.8891
16569TIP3    H271199   5.897   6.771  13.093 -2.6127  0.9867  0.6252
16570TIP3   OH271200   1.484   6.226   3.245  0.2780  0.5529  0.1079
16570TIP3    H171201   1.515   6.208   3.156  1.8334  1.9252  0.3195
16570TIP3    H271202   1.517   6.153   3.297  2.6304  1.5585  0.1722
16571TIP3   OH271203   3.417   1.759  13.847  0.0703  0.4228  0.1717
16571TIP3    H171204   3.435   1.677  13.801 -2.5582 -0.4624  0.5599
16571TIP3    H271205   3.375   1.815  13.781  1.2727  1.2772  0.0825
16572TIP3   OH271206   1.763   6.186   4.428  0.6574  0.1392 -0.0654
16572TIP3    H171207   1.756   6.127   4.354  0.8580  1.2027 -0.9656
16572TIP3    H271208   1.722   6.140   4.501 -2.5235  0.3244 -1.5835
16573TIP3   OH271209   3.579   1.481  13.674  0.1149  0.2837  0.3966
16573TIP3    H171210   3.568   1.540  13.599 -1.0089  0.1027  0.4009
16573TIP3    H271211   3.575   1.393  13.637 -0.6802  0.1888  0.6775
16574TIP3   OH271212   5.962   4.534   4.809  0.3045  0.1033 -0.5049
16574TIP3    H171213   6.057   4.542   4.824  0.3382  0.8477 -1.0540
16574TIP3    H271214   5.935   4.462   4.866  0.7632  1.5770  1.7258
16575TIP3   OH271215   3.970   4.300   1.603  0.1023 -0.1249 -0.9779
16575TIP3    H171216   4.023   4.226   1.632 -0.1917 -1.0227 -2.6491
16575TIP3    H271217   4.027   4.349   1.544 -0.0584  0.4063 -0.7039
16576TIP3   OH271218   4.956   1.061   1.291  0.5031  0.3458  0.0111
16576TIP3    H171219   4.978   1.058   1.198 -0.5220 -0.1357 -0.2396
16576TIP3    H271220   4.930   1.152   1.307 -0.2106  0.2192 -0.4032
16577TIP3   OH271221   1.630   3.442   2.820  0.3586  0.3069 -0.2700
16577TIP3    H171222   1.582   3.360   2.808  1.1190 -0.0511 -1.0590
16577TIP3    H271223   1.651   3.470   2.731 -0.6828  1.8613 -0.0563
16578TIP3   OH271224   0.191   3.770  16.797  0.1692 -0.7055  0.1654
16578TIP3    H171225   0.155   3.709  16.733 -0.7275 -0.4398  0.4044
16578TIP3    H271226   0.118   3.828  16.819  1.2013  1.0099 -0.6978
16579TIP3   OH271227   0.992   4.320  14.424 -0.1451 -0.1426  0.0400
16579TIP3    H171228   0.975   4.317  14.330 -1.7686 -2.6207  0.3235
16579TIP3    H271229   1.060   4.387  14.434 -1.6514  2.0060 -2.5929
16580TIP3   OH271230   0.265   4.702   3.415 -0.8217  0.4498 -0.4079
16580TIP3    H171231   0.242   4.610   3.421 -2.7127  0.8865 -0.2095
16580TIP3    H271232   0.229   4.731   3.331 -0.1575  0.9873 -0.5212
16581TIP3   OH271233   1.599   5.126   0.170 -0.6937  0.5449 -0.3163
16581TIP3    H171234   1.592   5.215   0.136  0.1870  1.0369  0.7178
16581TIP3    H271235   1.607   5.137   0.264  0.0501 -0.5930 -0.2279
16582TIP3   OH271236   1.427   2.454  13.715  0.0203 -0.0830  0.2364
16582TIP3    H171237   1.453   2.375  13.668 -0.7946 -0.8012  0.9522
16582TIP3    H271238   1.403   2.516  13.646  1.1926 -0.2516 -0.3476
16583TIP3   OH271239   6.416   2.492  16.940 -0.5751  0.1683 -0.5315
16583TIP3    H171240   6.420   2.587  16.946 -0.3911  0.0720  2.0255
16583TIP3    H271241   6.323   2.471  16.942 -0.5847  0.2649  0.3465
16584TIP3   OH271242   5.540   2.270   3.691 -0.4426 -0.3535 -0.0075
16584TIP3    H171243   5.486   2.244   3.616 -0.0030 -0.7826 -0.1856
16584TIP3    H271244   5.575   2.356   3.666 -0.1607 -0.5701 -0.3757
16585TIP3   OH271245   0.110   4.875  15.208  0.1070 -0.4374 -0.9409
16585TIP3    H171246   0.108   4.934  15.283  1.1343 -0.6584 -0.7333
16585TIP3    H271247   0.076   4.792  15.242  1.1809 -0.7264 -0.5361
16586TIP3   OH271248   5.059   2.602   4.413  0.1022 -0.3669  0.6682
16586TIP3    H171249   5.022   2.552   4.340  0.5345  0.7240 -0.3185
16586TIP3    H271250   5.026   2.691   4.401  1.6041  0.2247  0.7792
16587TIP3   OH271251   2.136   4.658  13.406 -0.1049 -0.6795  0.0542
16587TIP3    H171252   2.042   4.662  13.422  0.0446 -1.9638  1.4567
16587TIP3    H271253   2.172   4.731  13.456 -0.4813  1.0183 -2.0183
16588TIP3   OH271254   0.376   6.627  15.032 -0.0737  0.1311  0.7925
16588TIP3    H171255   0.305   6.602  14.972 -0.1819 -1.1433  1.4180
16588TIP3    H271256   0.435   6.551  15.032  1.1545  1.0519  0.5155
16589TIP3   OH271257   3.956   2.792   5.921  0.1754  0.5388  0.8693
16589TIP3    H171258   4.007   2.873   5.922  0.5520  0.3047  0.8808
16589TIP3    H271259   3.883   2.811   5.862 -1.2665  1.7874  2.9240
16590TIP3   OH271260   2.327   2.865   2.967 -0.0130 -0.5095 -0.0858
16590TIP3    H171261   2.416   2.836   2.949  0.3887 -0.2258  1.3227
16590TIP3    H271262   2.337   2.944   3.021 -1.0893 -1.0695  1.0046
16591TIP3   OH271263   2.913   0.631   2.621 -0.0192  0.7279  0.0873
16591TIP3    H171264   2.827   0.599   2.592 -1.0346  0.3280  3.1738
16591TIP3    H271265   2.975   0.567   2.586 -1.3541 -0.9016  0.5609
16592TIP3   OH271266   3.115   1.230  13.290  0.2389 -0.2484 -0.3190
16592TIP3    H171267   3.164   1.312  13.296  0.6854 -0.3554 -1.9380
16592TIP3    H271268   3.026   1.252  13.316  0.5050  0.6135 -0.1166
16593TIP3   OH271269   4.870   3.649  11.697 -0.4447 -0.1779 -0.5245
16593TIP3    H171270   4.825   3.728  11.667 -0.7084  0.7221  1.9986
16593TIP3    H271271   4.799   3.588  11.720 -0.2909 -0.3834 -0.5977
16594TIP3   OH271272   4.920   6.504  12.055  0.0956 -0.8597  0.5647
16594TIP3    H171273   4.906   6.412  12.035  0.9216 -0.9958  0.5673
16594TIP3    H271274   4.832   6.541  12.061 -0.2604 -1.7719  1.1763
16595TIP3   OH271275   0.569   3.369   3.886 -0.1737 -0.1242 -0.2795
16595TIP3    H171276   0.551   3.400   3.974  1.3702  0.9749 -0.3077
16595TIP3    H271277   0.482   3.355   3.847 -0.8736 -0.4189  1.3156
16596TIP3   OH271278   4.502   0.554   2.706 -0.1942  0.0458 -0.0184
16596TIP3    H171279   4.417   0.542   2.664 -0.0802 -1.3498  0.1086
16596TIP3    H271280   4.556   0.598   2.639 -0.2147 -1.5323 -1.1293
16597TIP3   OH271281   1.548   0.331   6.056 -0.1982  0.3602  0.5823
16597TIP3    H171282   1.471   0.367   6.100 -0.4000  1.9264 -0.9547
16597TIP3    H271283   1.579   0.262   6.114 -2.2098  0.3251  1.6867
16598TIP3   OH271284   6.227   2.910   1.135  0.8073 -0.3346  0.1303
16598TIP3    H171285   6.180   2.864   1.065  0.6790 -0.0065 -0.0011
16598TIP3    H271286   6.302   2.854   1.155 -0.0524 -1.2466  0.8777
16599TIP3   OH271287   2.949   5.060   1.934 -0.4687  0.1454 -0.0746
16599TIP3    H171288   3.041   5.050   1.910 -0.0646  0.2748  1.2930
16599TIP3    H271289   2.903   4.994   1.882  0.5812 -0.8417  0.1966
16600TIP3   OH271290   4.783   4.391   3.382  0.3450  0.3162 -0.0192
16600TIP3    H171291   4.730   4.467   3.406  0.1324  0.4618 -0.9162
16600TIP3    H271292   4.757   4.371   3.292 -0.5351 -1.5842  0.6010
16601TIP3   OH271293   6.447   3.038   5.210 -1.1541  0.1045  0.2818
16601TIP3    H171294   6.456   2.962   5.267 -0.0844 -0.9343 -1.2231
16601TIP3    H271295   6.529   3.086   5.222 -1.3579  0.4319  0.3785
16602TIP3   OH271296   0.840   3.444  15.734  0.3964 -0.6672 -0.0007
16602TIP3    H171297   0.845   3.450  15.639  1.4598  0.8256  0.1082
16602TIP3    H271298   0.915   3.494  15.765 -2.3610  2.9548  1.6515
16603TIP3   OH271299   5.583   5.993  13.327  0.0523  0.3381 -0.2055
16603TIP3    H171300   5.653   5.939  13.363 -0.5844 -0.5030 -0.2194
16603TIP3    H271301   5.619   6.082  13.329  0.3755  0.2154  1.6830
16604TIP3   OH271302   3.443   0.899   1.730  0.2115 -0.3394 -0.4724
16604TIP3    H171303   3.349   0.892   1.751  0.2460 -1.7769 -0.6595
16604TIP3    H271304   3.487   0.867   1.809  0.6306  1.8564  0.2383
16605TIP3   OH271305   2.664   0.635  15.784 -0.2917  0.3773  0.7458
16605TIP3    H171306   2.571   0.655  15.779 -0.0201  1.4954 -0.4554
16605TIP3    H271307   2.707   0.714  15.750  1.0904 -0.1340  1.2397
16606TIP3   OH271308   2.203   1.879  17.051  0.1351  0.8223 -0.0170
16606TIP3    H171309   2.277   1.822  17.030  0.1030  0.5078  0.7042
16606TIP3    H271310   2.148   1.827  17.110 -1.5166  0.4302 -1.7751
16607TIP3   OH271311   4.706   1.107   4.366  0.1347 -0.2752  0.0525
16607TIP3    H171312   4.763   1.175   4.329  2.2131 -1.2823  1.1827
16607TIP3    H271313   4.661   1.151   4.439  2.6035 -0.3366  1.7594
16608TIP3   OH271314   1.226   0.092  16.241 -0.6376  0.2308  0.4211
16608TIP3    H171315   1.191   0.003  16.238 -0.2862  0.1137 -0.6360
16608TIP3    H271316   1.267   0.098  16.327  0.0937 -0.9320  0.1812
16609TIP3   OH271317   0.566   1.624  12.405 -0.1279  0.1070  0.3229
16609TIP3    H171318   0.540   1.716  12.398 -1.6725 -0.2157  1.3156
16609TIP3    H271319   0.581   1.596  12.315  1.7859  1.6848  0.0825
16610TIP3   OH271320   1.333   0.430   0.344  0.0333 -0.5262 -0.1362
16610TIP3    H171321   1.388   0.509   0.344  1.4506 -1.3045 -3.6216
16610TIP3    H271322   1.394   0.359   0.363 -0.5393 -1.0767 -0.3427
16611TIP3   OH271323   6.338   4.644   4.210  0.4233  0.5753  0.1956
16611TIP3    H171324   6.346   4.579   4.280  0.7883 -1.7101 -1.8040
16611TIP3    H271325   6.402   4.616   4.144 -1.4665  1.1928 -2.0512
16612TIP3   OH271326   4.025   2.483   4.841 -0.0802 -0.0352  0.4579
16612TIP3    H171327   4.068   2.468   4.925 -0.0187  1.3101  0.6999
16612TIP3    H271328   4.016   2.396   4.802 -0.0277 -0.6649  1.8058
16613TIP3   OH271329   5.594   1.136   4.635 -0.0433  0.1743  0.1527
16613TIP3    H171330   5.534   1.080   4.684 -0.4576 -0.5754 -1.1752
16613TIP3    H271331   5.552   1.222   4.634  1.5248  1.1911  3.9594
16614TIP3   OH271332   0.906   5.602   5.026  0.8258 -0.1675 -0.4675
16614TIP3    H171333   0.921   5.689   4.991 -0.0713  0.2585  0.1559
16614TIP3    H271334   0.958   5.544   4.971  1.5011  0.7680 -0.8349
16615TIP3   OH271335   5.756   0.869  12.148 -0.3306 -0.0023  0.1913
16615TIP3    H171336   5.696   0.806  12.188 -1.1421  1.1960  0.9349
16615TIP3    H271337   5.842   0.826  12.152 -1.0865 -1.7159 -0.8104
16616TIP3   OH271338   3.246   0.401   5.233 -0.7575 -0.2766 -0.2996
16616TIP3    H171339   3.220   0.336   5.299  1.6938 -0.0658  0.9875
16616TIP3    H271340   3.198   0.480   5.258  0.0532 -0.2312  1.2258
16617TIP3   OH271341   1.702   2.892  11.805 -0.2388  0.1048  0.1398
16617TIP3    H171342   1.641   2.956  11.843  0.6909  2.1313 -1.5523
16617TIP3    H271343   1.669   2.878  11.716 -0.8159 -2.4106  0.6765
16618TIP3   OH271344   0.374   1.705   2.599 -0.0390 -0.8763  0.5319
16618TIP3    H171345   0.439   1.762   2.559  1.8023 -2.7634  0.6600
16618TIP3    H271346   0.346   1.647   2.529 -3.1333  1.0725 -0.0315
16619TIP3   OH271347   4.777   3.309  12.402 -0.0817 -0.4133 -0.0755
16619TIP3    H171348   4.786   3.402  12.423 -0.3795 -0.3409 -0.2566
16619TIP3    H271349   4.785   3.306  12.306  1.5472 -0.7684  0.0503
16620TIP3   OH271350   1.731   2.123  14.319 -0.6477 -0.4761  0.3897
16620TIP3    H171351   1.663   2.070  14.360  0.0343 -0.9658  0.9036
16620TIP3    H271352   1.799   2.061  14.294 -0.0339  0.0882  0.6129
16621TIP3   OH271353   1.744   1.858  15.587 -0.5420 -0.1183 -0.1303
16621TIP3    H171354   1.753   1.810  15.505  0.5009  1.0177 -0.7146
16621TIP3    H271355   1.730   1.790  15.653 -1.7178 -1.0342 -1.2653
16622TIP3   OH271356   0.810   0.670   1.781  0.4424 -0.6885  0.9242
16622TIP3    H171357   0.865   0.657   1.704 -1.8876  1.3066 -1.2062
16622TIP3    H271358   0.827   0.592   1.835  1.1159 -2.9074 -2.2164
16623TIP3   OH271359   3.188   0.853   2.337  0.3922 -0.0677  0.3571
16623TIP3    H171360   3.176   0.860   2.432 -0.6344  2.0884  0.1280
16623TIP3    H271361   3.099   0.841   2.303  0.6771 -0.1511 -0.3759
16624TIP3   OH271362   3.190   2.466  12.307  0.0309  0.9109  0.2193
16624TIP3    H171363   3.282   2.443  12.316  0.3063  2.2734  1.2159
16624TIP3    H271364   3.143   2.401  12.359  0.5246  0.9087  0.6646
16625TIP3   OH271365   2.489   0.990  12.810 -0.4696  0.4843  0.0338
16625TIP3    H171366   2.468   1.077  12.844 -0.7009  0.7026 -0.6422
16625TIP3    H271367   2.490   0.934  12.887 -1.1710  0.9250  0.3821
16626TIP3   OH271368   6.502   5.675  12.284  0.1422  0.5110  0.1127
16626TIP3    H171369   6.540   5.596  12.246 -0.5390  0.0009  0.4709
16626TIP3    H271370   6.446   5.710  12.214  0.4017  0.6483 -0.0270
16627TIP3   OH271371   2.611   1.946  15.637 -0.6417  0.1163 -0.4335
16627TIP3    H171372   2.527   1.959  15.681 -0.5063 -0.6576  0.0646
16627TIP3    H271373   2.601   1.863  15.591 -0.0306 -0.1647 -0.0731
16628TIP3   OH271374   1.255   4.220   0.862  0.1850  0.2739 -0.1463
16628TIP3    H171375   1.249   4.191   0.771  4.9621  1.4332 -1.0671
16628TIP3    H271376   1.217   4.308   0.862  0.4241  0.3825 -1.0734
16629TIP3   OH271377   5.882   1.179   2.870 -0.5155 -0.1123 -0.1659
16629TIP3    H171378   5.944   1.215   2.806 -1.1114  1.6991  0.2114
16629TIP3    H271379   5.886   1.084   2.857 -0.6532  0.1830 -2.9037
16630TIP3   OH271380   3.059   2.450   0.482 -0.1895 -0.2071 -0.3710
16630TIP3    H171381   3.122   2.464   0.412  1.2017 -1.7742  0.4754
16630TIP3    H271382   3.047   2.536   0.523  1.0377  0.2030 -0.8608
16631TIP3   OH271383   6.831   3.054  14.224 -0.1229 -0.3162  0.2334
16631TIP3    H171384   6.758   3.112  14.201  0.2403 -0.1669 -0.5548
16631TIP3    H271385   6.889   3.108  14.278  0.7572  0.4130 -1.3840
16632TIP3   OH271386   4.940   1.803   1.101 -0.1704 -0.1371 -0.4402
16632TIP3    H171387   4.991   1.752   1.039 -2.2796 -0.4989 -1.9864
16632TIP3    H271388   4.964   1.768   1.187  3.3334  0.8129 -0.8391
16633TIP3   OH271389   5.133   6.633  12.175  0.0712 -0.0649 -0.0471
16633TIP3    H171390   5.062   6.572  12.154  0.3123 -0.9232  1.4314
16633TIP3    H271391   5.194   6.626  12.102 -0.8940 -0.0390 -0.8724
16634TIP3   OH271392   1.976   4.176  16.562 -0.7534  0.3548 -0.0958
16634TIP3    H171393   1.948   4.265  16.539 -1.2896  0.2338  0.0616
16634TIP3    H271394   1.963   4.125  16.483 -2.4561 -0.0292  0.3801
16635TIP3   OH271395   2.130   3.122   5.668 -0.7502  0.8440  0.3492
16635TIP3    H171396   2.172   3.084   5.745  0.9146  2.1111  0.1392
16635TIP3    H271397   2.130   3.216   5.685 -3.2095  0.9431  0.1262
16636TIP3   OH271398   5.891   3.163  12.180  0.1580  0.1214  0.1850
16636TIP3    H171399   5.880   3.213  12.261  0.5820 -1.7941  1.4942
16636TIP3    H271400   5.808   3.173  12.133 -0.3840  0.6307  1.2375
16637TIP3   OH271401   3.055   3.289  16.339 -0.1853 -0.5241  0.4510
16637TIP3    H171402   3.075   3.311  16.248 -0.6463 -0.9573  0.2424
16637TIP3    H271403   2.976   3.235  16.335 -1.5840  1.3369  1.2667
16638TIP3   OH271404   6.625   5.412  11.364  0.3344 -0.2406  0.0560
16638TIP3    H171405   6.547   5.383  11.317  0.5146  0.4738 -0.7128
16638TIP3    H271406   6.698   5.366  11.321  0.3833 -0.5468  0.4630
16639TIP3   OH271407   6.254   4.516  12.606  0.6012  0.0372  0.6106
16639TIP3    H171408   6.303   4.556  12.535  0.3205 -0.3064  0.2217
16639TIP3    H271409   6.321   4.481  12.665  0.8477 -1.8661 -0.7275
16640TIP3   OH271410   4.766   2.030  10.997  0.6285 -0.3219  0.2780
16640TIP3    H171411   4.836   2.096  11.003  1.9355 -1.7796  1.8585
16640TIP3    H271412   4.806   1.955  10.953 -0.7417 -0.2856 -1.1613
16641TIP3   OH271413   1.491   6.796   2.804 -0.5112 -0.3734  0.1394
16641TIP3    H171414   1.530   6.726   2.857  0.1530 -0.3003 -0.2372
16641TIP3    H271415   1.528   6.876   2.842 -2.3946 -0.0954  1.5229
16642TIP3   OH271416   2.837   6.699  12.842  0.5439  0.1120 -0.2932
16642TIP3    H171417   2.840   6.604  12.856 -0.2441 -0.3031 -2.6056
16642TIP3    H271418   2.749   6.716  12.808 -0.2013  2.0719  2.2302
16643TIP3   OH271419   1.855   3.610  14.017  0.0708 -0.0586  0.2743
16643TIP3    H171420   1.932   3.655  13.983  0.3510  0.2824  1.3205
16643TIP3    H271421   1.882   3.519  14.024 -0.6602 -0.5617 -2.3340
16644TIP3   OH271422   0.435   3.339   4.907 -0.4362 -0.0066 -0.3104
16644TIP3    H171423   0.491   3.273   4.866  0.0851  0.5514 -0.5180
16644TIP3    H271424   0.346   3.309   4.890 -0.2537 -1.7940  1.4230
16645TIP3   OH271425   4.046   3.038   5.868  0.5004  0.1832  0.6053
16645TIP3    H171426   3.990   3.112   5.888  0.7774  0.2214  1.2689
16645TIP3    H271427   4.131   3.076   5.849  0.7879  0.0183  1.4905
16646TIP3   OH271428   0.523   1.788  12.657 -0.0906  0.0190  0.2645
16646TIP3    H171429   0.439   1.824  12.682  0.3954  1.4440 -0.0823
16646TIP3    H271430   0.546   1.832  12.575  0.7659 -0.7012  0.0888
16647TIP3   OH271431   4.571   0.610  12.561 -0.2033  0.0531 -0.3948
16647TIP3    H171432   4.479   0.611  12.588 -0.7841 -0.2679 -2.2399
16647TIP3    H271433   4.595   0.517  12.559  0.1290  0.1276 -0.0802
16648TIP3   OH271434   6.413   1.788   1.292  0.2525  0.6801 -0.7392
16648TIP3    H171435   6.484   1.822   1.346 -0.2270  1.1033 -0.3664
16648TIP3    H271436   6.336   1.838   1.320 -0.0577  0.6986 -1.6090
16649TIP3   OH271437   1.328   3.712  16.452 -0.1489 -0.1059  0.7377
16649TIP3    H171438   1.419   3.687  16.469 -0.2489  0.1977  1.7471
16649TIP3    H271439   1.326   3.728  16.357  1.1129  0.8747  0.8401
16650TIP3   OH271440   0.134   3.087   1.005 -0.0428 -0.1301  0.3922
16650TIP3    H171441   0.077   3.084   0.929  1.2053  0.8183 -0.6094
16650TIP3    H271442   0.209   3.139   0.978  1.7375 -2.0130  1.3708
16651TIP3   OH271443   0.838   2.763  13.551 -0.3188 -0.1758 -0.4278
16651TIP3    H171444   0.815   2.737  13.462 -0.7796 -2.2741  0.2413
16651TIP3    H271445   0.753   2.777  13.594 -0.1095  0.4304 -0.2057
16652TIP3   OH271446   6.097   4.692   0.755 -0.3475 -0.2729 -0.0002
16652TIP3    H171447   6.158   4.763   0.775 -0.6482  0.1376 -0.5263
16652TIP3    H271448   6.072   4.706   0.664 -0.2138 -1.2042 -0.1873
16653TIP3   OH271449   1.236   3.175   5.477 -0.6422 -0.0189 -0.4292
16653TIP3    H171450   1.172   3.123   5.428 -0.0157  0.1143 -1.4054
16653TIP3    H271451   1.250   3.125   5.557 -2.5993  0.3729  0.2159
16654TIP3   OH271452   5.726   5.866  11.492  0.3268 -0.3474 -0.0158
16654TIP3    H171453   5.784   5.932  11.531 -0.2468  0.3504 -0.3229
16654TIP3    H271454   5.777   5.829  11.420 -0.4749  2.0996 -1.9969
16655TIP3   OH271455   2.336   1.298   2.322  0.2578  0.0117 -0.4529
16655TIP3    H171456   2.257   1.351   2.314  1.4596  2.0260  0.0924
16655TIP3    H271457   2.311   1.211   2.291 -2.2250  0.4916  0.0351
16656TIP3   OH271458   1.027   1.984  10.464  0.7240  0.2704  0.4823
16656TIP3    H171459   1.072   1.907  10.497  1.0441 -0.2253 -1.0269
16656TIP3    H271460   1.093   2.032  10.415 -0.5157 -1.0932 -2.8266
16657TIP3   OH271461   1.356   1.661   1.492 -0.2710 -0.4342  0.4410
16657TIP3    H171462   1.284   1.615   1.535 -1.2904 -1.4910 -2.2429
16657TIP3    H271463   1.434   1.613   1.519 -0.7345 -0.4292  1.8874
16658TIP3   OH271464   5.967   2.513  12.282  0.0827  0.4251  0.3620
16658TIP3    H171465   6.001   2.602  12.292  1.2875  0.0443 -0.2487
16658TIP3    H271466   5.882   2.525  12.238 -0.7702  1.4000  2.1695
16659TIP3   OH271467   1.975   6.316   0.925  0.2324 -0.2005 -0.5247
16659TIP3    H171468   1.982   6.270   0.841  0.9478 -0.3671 -0.3774
16659TIP3    H271469   1.892   6.364   0.918 -1.4288 -2.7871 -0.0196
16660TIP3   OH271470   3.876   5.874   3.302  0.1239 -0.4172  0.7024
16660TIP3    H171471   3.816   5.947   3.319  0.0884 -0.7991  2.3997
16660TIP3    H271472   3.952   5.892   3.358  0.3927 -1.3632  0.6641
16661TIP3   OH271473   2.449   5.213  11.452 -0.6244  0.1490 -0.3821
16661TIP3    H171474   2.413   5.265  11.380  1.0002  1.3859 -0.3390
16661TIP3    H271475   2.517   5.160  11.411 -0.1040  0.4165  0.1259
16662TIP3   OH271476   1.800   4.642  15.440 -0.2685 -0.6450 -0.1718
16662TIP3    H171477   1.838   4.569  15.391 -0.2545 -2.0802  1.8578
16662TIP3    H271478   1.721   4.606  15.480 -0.7834  0.7373  0.1240
16663TIP3   OH271479   1.704   3.688   0.804  0.1948  0.0068 -0.4855
16663TIP3    H171480   1.673   3.768   0.763 -3.9713 -0.5507  1.1326
16663TIP3    H271481   1.647   3.619   0.770  0.0196 -1.3108  2.1493
16664TIP3   OH271482   1.218   5.898   5.548 -0.0552 -0.4202 -0.4487
16664TIP3    H171483   1.224   5.946   5.630  0.1322 -1.8027  0.3771
16664TIP3    H271484   1.295   5.926   5.497 -0.8756  1.4259 -0.7324
16665TIP3   OH271485   6.722   2.692  11.738  0.3941  0.1781 -0.3639
16665TIP3    H171486   6.727   2.783  11.768  1.5072  0.7154 -2.0146
16665TIP3    H271487   6.744   2.640  11.815 -1.1055  1.2442  0.8352
16666TIP3   OH271488   4.096   5.359  11.776 -1.0956  0.3453  0.1777
16666TIP3    H171489   4.092   5.263  11.774 -2.7897  0.3776 -1.0776
16666TIP3    H271490   4.189   5.380  11.768 -0.8395 -1.2199 -1.7052
16667TIP3   OH271491   5.236   6.569   2.001  0.1851 -0.2834 -0.1308
16667TIP3    H171492   5.143   6.578   1.979  0.3601  0.6436 -0.5489
16667TIP3    H271493   5.237   6.520   2.083 -0.8100  1.8246  1.2003
16668TIP3   OH271494   5.512   4.495  12.180  0.1499 -0.0416  0.0586
16668TIP3    H171495   5.444   4.435  12.213  1.0621 -1.0140  0.2186
16668TIP3    H271496   5.589   4.476  12.233  0.6643  0.8090 -0.3521
16669TIP3   OH271497   6.730   5.705  16.452 -0.8390 -0.5545 -0.2043
16669TIP3    H171498   6.723   5.675  16.543 -1.0562  0.9479  0.3117
16669TIP3    H271499   6.720   5.800  16.458 -1.0334 -0.4457 -1.8284
16670TIP3   OH271500   4.641   3.188  11.709  0.7921 -0.2586  0.3308
16670TIP3    H171501   4.682   3.269  11.680  1.1210 -0.7245 -0.5650
16670TIP3    H271502   4.620   3.142  11.627 -3.7653  0.9938  0.4783
16671TIP3   OH271503   6.217   2.186   4.081 -0.3237 -0.1225 -0.6796
16671TIP3    H171504   6.166   2.189   4.162 -0.2516  0.6999 -0.6609
16671TIP3    H271505   6.305   2.162   4.108 -0.4065 -0.3049 -0.5709
16672TIP3   OH271506   0.994   5.371   0.039 -0.7784 -0.1964  0.0685
16672TIP3    H171507   1.081   5.336   0.020 -0.8047 -0.0189 -0.3642
16672TIP3    H271508   0.936   5.294   0.034 -0.6376 -0.3298  0.4435
16673TIP3   OH271509   6.326   1.877   0.305 -0.0018 -0.5510 -0.4581
16673TIP3    H171510   6.300   1.858   0.395 -1.5794 -1.0466 -0.9815
16673TIP3    H271511   6.269   1.949   0.278  0.3332 -0.5229 -1.1078
16674TIP3   OH271512   1.277   5.483   2.373 -0.2795 -0.0235  0.4560
16674TIP3    H171513   1.243   5.514   2.289  0.1441  1.0754  0.6808
16674TIP3    H271514   1.199   5.470   2.427 -0.4677  0.6003  0.3373
16675TIP3   OH271515   4.867   5.374  13.384  0.3842  0.3664  0.4524
16675TIP3    H171516   4.778   5.389  13.414  0.8430  1.1083  1.5098
16675TIP3    H271517   4.878   5.433  13.309 -0.6322 -1.1966 -1.0161
16676TIP3   OH271518   1.347   3.493   3.313 -0.3551 -0.4493 -0.3374
16676TIP3    H171519   1.371   3.470   3.224 -0.5006  1.3226 -0.8787
16676TIP3    H271520   1.373   3.418   3.366 -1.6178 -2.1550 -2.0360
16677TIP3   OH271521   4.480   6.558  10.804 -0.0736  0.3592 -1.2070
16677TIP3    H171522   4.406   6.597  10.851  0.7878  1.9672 -1.0974
16677TIP3    H271523   4.440   6.506  10.735 -1.3153  0.8422 -0.8836
16678TIP3   OH271524   4.815   6.739   2.122  0.3644 -0.2210 -0.2509
16678TIP3    H171525   4.757   6.672   2.084 -1.3381  1.2081 -0.3223
16678TIP3    H271526   4.901   6.720   2.085 -0.5408 -0.9728 -2.1113
16679TIP3   OH271527   4.291   4.046   4.794  0.2301 -0.4536  0.3421
16679TIP3    H171528   4.314   3.953   4.795  3.0353  0.0703 -2.3445
16679TIP3    H271529   4.292   4.071   4.702 -1.0930  2.1497  0.9257
16680TIP3   OH271530   0.460   0.005  13.308  0.3598 -0.2321  0.2990
16680TIP3    H171531   0.491  -0.084  13.326  2.6613  0.3345 -0.4721
16680TIP3    H271532   0.540   0.056  13.295 -0.9089  1.8755  0.2811
16681TIP3   OH271533   1.316   1.823   4.399 -0.5102  0.7626  0.0278
16681TIP3    H171534   1.332   1.767   4.323 -1.7754  0.0484  0.2533
16681TIP3    H271535   1.354   1.774   4.473 -1.3953  0.2911  0.1879
16682TIP3   OH271536   0.015   5.391  15.210  0.3019 -0.3788 -0.2152
16682TIP3    H171537   0.096   5.373  15.258  0.0138 -0.5078  0.2309
16682TIP3    H271538  -0.018   5.305  15.184  1.8916 -0.2415 -3.1296
16683TIP3   OH271539   5.606   0.448  16.913 -0.0074  0.0614 -0.2558
16683TIP3    H171540   5.534   0.388  16.893  1.4992 -1.2479 -2.0176
16683TIP3    H271541   5.672   0.394  16.957  0.8018  0.7480 -0.5948
16684TIP3   OH271542   1.000   5.717  15.036 -0.3853 -0.1400 -0.5585
16684TIP3    H171543   1.021   5.644  15.094 -1.7555 -0.1975 -0.1018
16684TIP3    H271544   1.015   5.682  14.948  0.7741 -0.3588 -0.2959
16685TIP3   OH271545   4.714   4.426  16.017 -0.1955 -0.1922 -0.4755
16685TIP3    H171546   4.753   4.349  15.976 -1.3980 -1.0522 -0.0659
16685TIP3    H271547   4.686   4.395  16.104  0.4132  1.0402  0.1812
16686TIP3   OH271548   6.457   5.267   5.620 -0.6581 -0.7315  0.1913
16686TIP3    H171549   6.385   5.317   5.659  0.6703  0.0803  1.7538
16686TIP3    H271550   6.536   5.317   5.643  0.4657 -1.8875 -0.9668
16687TIP3   OH271551   2.599   2.346  12.011 -0.1462  0.0711 -0.2619
16687TIP3    H171552   2.664   2.302  12.067 -0.6431 -1.1068 -0.5900
16687TIP3    H271553   2.651   2.399  11.951  0.4060  1.5606  1.4179
16688TIP3   OH271554   1.926   0.609   5.568 -0.1989  0.7159 -0.2693
16688TIP3    H171555   1.909   0.688   5.620 -2.0904 -1.1475  2.1869
16688TIP3    H271556   2.020   0.593   5.578  0.0125  2.0577  0.0593
16689TIP3   OH271557   3.310   3.604   5.397 -0.5446 -0.1913 -0.1239
16689TIP3    H171558   3.282   3.617   5.307  1.7741 -0.0263 -0.8640
16689TIP3    H271559   3.342   3.689   5.425 -1.8684 -0.0610  1.1398
16690TIP3   OH271560   3.042   3.806  15.464  0.0489 -0.1144  0.2373
16690TIP3    H171561   3.039   3.847  15.550 -1.1870  2.0058 -0.7384
16690TIP3    H271562   3.050   3.712  15.482  1.7584  0.4038  2.6028
16691TIP3   OH271563   5.702   4.142  14.113  0.0040 -0.5093 -0.0505
16691TIP3    H171564   5.631   4.206  14.114  0.6366  0.2140 -0.3228
16691TIP3    H271565   5.726   4.135  14.021  1.5083  0.6659  0.2039
16692TIP3   OH271566   4.033   1.002   6.377  0.4372  0.1468  0.2424
16692TIP3    H171567   4.003   1.070   6.437 -2.3041 -1.6980  1.1326
16692TIP3    H271568   4.104   0.958   6.424  0.9034  1.1463  0.4802
16693TIP3   OH271569   5.886   1.863  15.169  0.5193  0.0561 -0.2127
16693TIP3    H171570   5.802   1.839  15.131  0.5502 -0.1385 -0.1580
16693TIP3    H271571   5.946   1.866  15.094  0.1920  1.4620 -0.4429
16694TIP3   OH271572   1.904   4.142   0.813 -0.2627  0.4784 -0.2081
16694TIP3    H171573   1.928   4.126   0.722  0.2131  2.1457 -0.4166
16694TIP3    H271574   1.812   4.168   0.810 -0.9386 -1.6923  0.0918
16695TIP3   OH271575   6.629   4.696  16.277  0.2419 -0.0621 -0.2932
16695TIP3    H171576   6.603   4.689  16.185 -0.1388 -3.0600 -0.0852
16695TIP3    H271577   6.721   4.671  16.277  1.0840  2.7754 -0.1190
16696TIP3   OH271578   2.339   1.547  15.508  0.0194  0.4573 -0.5607
16696TIP3    H171579   2.294   1.463  15.514 -0.0208  0.2325 -2.9884
16696TIP3    H271580   2.350   1.575  15.599 -2.4752 -0.8105  0.2167
16697TIP3   OH271581   3.235   2.354   1.664  0.1825  0.5714 -0.8184
16697TIP3    H171582   3.197   2.438   1.691 -0.8931 -0.0430 -0.3637
16697TIP3    H271583   3.321   2.353   1.706 -0.6278  0.5606  0.9282
16698TIP3   OH271584   6.732   4.189   4.207 -0.7506 -0.5111  0.0010
16698TIP3    H171585   6.646   4.150   4.193 -1.3692  0.8422 -0.1417
16698TIP3    H271586   6.773   4.192   4.120 -1.3395  0.5548 -0.2572
16699TIP3   OH271587   3.219   0.106   4.116 -0.2092 -0.7240 -0.2356
16699TIP3    H171588   3.253   0.141   4.034 -0.8575  0.0014 -0.2076
16699TIP3    H271589   3.278   0.035   4.138  0.2487 -0.6206 -1.0888
16700TIP3   OH271590   3.828   3.384  13.304  0.0392  0.2083  0.8670
16700TIP3    H171591   3.893   3.345  13.245 -2.1476  0.9016 -2.2474
16700TIP3    H271592   3.748   3.389  13.252 -2.1029  0.9430  3.9572
16701TIP3   OH271593   0.134   0.833  16.420 -0.1876 -0.0661  0.0330
16701TIP3    H171594   0.067   0.773  16.453 -0.6600  0.4433  0.0167
16701TIP3    H271595   0.209   0.820  16.478 -0.3307 -0.5764  0.1062
16702TIP3   OH271596   6.386   4.699  17.037 -0.5588 -0.0285 -0.2753
16702TIP3    H171597   6.364   4.696  17.130 -2.0540  0.4498 -0.5979
16702TIP3    H271598   6.460   4.760  17.033 -0.3362 -0.2182  0.6173
16703TIP3   OH271599   3.405   6.678   4.247 -0.2376  0.7266 -0.2675
16703TIP3    H171600   3.350   6.608   4.211  1.4236 -0.7986 -0.0143
16703TIP3    H271601   3.415   6.655   4.340  1.5823  0.4062 -0.5189
16704TIP3   OH271602   0.242   4.278   5.193 -0.2864  0.3072  0.2676
16704TIP3    H171603   0.227   4.185   5.179 -1.2612  0.5115 -0.1513
16704TIP3    H271604   0.220   4.292   5.286  1.1027 -0.0969  0.6762
16705TIP3   OH271605   0.265   3.436   0.301 -0.5291 -0.0565 -0.1545
16705TIP3    H171606   0.255   3.530   0.292 -1.6045 -0.2412 -0.9999
16705TIP3    H271607   0.179   3.400   0.281 -0.1582 -1.2158  0.2448
16706TIP3   OH271608   4.080   5.264  11.421 -0.2335  0.1566 -0.1244
16706TIP3    H171609   4.064   5.356  11.443 -1.8513  0.5067 -2.4414
16706TIP3    H271610   4.045   5.215  11.496 -1.7315  1.3593  0.0155
16707TIP3   OH271611   4.943   4.496  12.911  0.4468 -0.1735 -0.1529
16707TIP3    H171612   5.004   4.466  12.844  1.1461 -0.4633  0.6014
16707TIP3    H271613   4.887   4.559  12.866  0.4566 -0.8753 -1.1807
16708TIP3   OH271614   6.703   2.817   1.286  0.3849 -0.1290  0.1577
16708TIP3    H171615   6.677   2.853   1.371  0.4422 -1.0441  0.5629
16708TIP3    H271616   6.798   2.828   1.283  0.5850 -1.5428  0.8944
16709TIP3   OH271617   4.869   6.227   0.375 -0.3122  0.1439 -0.0139
16709TIP3    H171618   4.862   6.313   0.416  0.1702  1.0288 -1.6963
16709TIP3    H271619   4.906   6.171   0.444  3.0780  2.1775  0.0417
16710TIP3   OH271620   4.868   6.298   5.410 -0.1881  0.4067  0.3722
16710TIP3    H171621   4.801   6.261   5.468 -0.8913 -1.8629 -1.6898
16710TIP3    H271622   4.951   6.278   5.453 -0.7341  0.7759  1.6401
16711TIP3   OH271623   1.713   0.597   4.751 -0.0351 -0.5950  0.3133
16711TIP3    H171624   1.740   0.545   4.827 -0.6809  0.3970  1.2523
16711TIP3    H271625   1.765   0.563   4.679  2.9063  0.4411  1.7887
16712TIP3   OH271626   1.398   4.268  16.022  0.1093 -0.3597  0.0859
16712TIP3    H171627   1.441   4.353  16.021 -1.0097  0.2215 -1.3198
16712TIP3    H271628   1.305   4.288  16.033 -0.1754 -1.4015 -0.3124
16713TIP3   OH271629   3.939   6.511  15.212 -0.1257  0.2411  0.1713
16713TIP3    H171630   3.844   6.508  15.201 -0.3401  1.7400  1.2472
16713TIP3    H271631   3.951   6.519  15.307  0.9880  1.7312 -0.0590
16714TIP3   OH271632   0.400   3.305  11.419 -0.6797 -0.1104  0.4678
16714TIP3    H171633   0.493   3.302  11.396 -0.6619  0.8580  0.3891
16714TIP3    H271634   0.371   3.392  11.392 -2.6250 -1.6897 -3.4726
16715TIP3   OH271635   0.977   3.326   1.986 -0.4092  0.1667  0.7442
16715TIP3    H171636   0.998   3.233   1.973  0.3064  0.4938 -0.5950
16715TIP3    H271637   0.885   3.333   1.962  0.2957  0.3226 -2.3004
16716TIP3   OH271638   1.922   0.422   1.982  0.6088 -0.3263  0.0851
16716TIP3    H171639   1.845   0.422   2.038  1.0225 -1.5377  0.6877
16716TIP3    H271640   1.897   0.476   1.907 -0.8723 -0.8185  0.1910
16717TIP3   OH271641   3.941   4.155  13.453 -0.3321 -0.1185  0.5161
16717TIP3    H171642   3.956   4.247  13.476 -0.1014  0.3942 -1.4975
16717TIP3    H271643   4.026   4.124  13.420 -0.4518 -1.0117  1.0205
16718TIP3   OH271644   4.506   4.071  11.971 -0.2347  0.2597 -0.3781
16718TIP3    H171645   4.514   4.097  11.880  0.4610  1.4268 -0.0085
16718TIP3    H271646   4.422   4.024  11.976 -1.3156  2.0104 -1.2082
16719TIP3   OH271647   0.629   5.611  15.731  0.2718  0.4931 -0.5051
16719TIP3    H171648   0.704   5.649  15.685  2.4133 -0.6051  1.8424
16719TIP3    H271649   0.618   5.666  15.808 -1.1176  0.3796 -0.5920
16720TIP3   OH271650   4.336   5.548   1.869 -0.2053 -0.1968 -0.1757
16720TIP3    H171651   4.427   5.535   1.841  0.0622 -0.2942  0.7076
16720TIP3    H271652   4.295   5.463   1.857 -0.2687 -0.0712 -0.8807
16721TIP3   OH271653   0.620   5.716   4.316 -0.4965 -0.7381 -0.0019
16721TIP3    H171654   0.609   5.770   4.237  0.0233 -0.7663 -0.0986
16721TIP3    H271655   0.533   5.680   4.332 -0.5349 -1.0342 -0.7903
16722TIP3   OH271656   4.670   0.103  13.860 -0.0988  0.1945  0.1040
16722TIP3    H171657   4.724   0.175  13.827  0.0305  0.3484  0.6515
16722TIP3    H271658   4.585   0.143  13.879 -0.5573 -0.1284 -1.1563
16723TIP3   OH271659   4.710   3.549  14.328  0.1890  0.1829 -0.1015
16723TIP3    H171660   4.714   3.602  14.408 -0.5567  0.8580 -0.4946
16723TIP3    H271661   4.795   3.561  14.286  0.6177 -0.2455  0.6241
16724TIP3   OH271662   2.392   3.542  16.235  0.3956 -0.1135  0.3241
16724TIP3    H171663   2.377   3.448  16.240  1.4186 -0.2798  0.4719
16724TIP3    H271664   2.361   3.576  16.320  1.8517 -0.6051  1.0934
16725TIP3   OH271665   4.554   5.073  17.095 -0.0379 -0.4509  0.4598
16725TIP3    H171666   4.587   4.984  17.084 -0.7651 -0.9000  1.7151
16725TIP3    H271667   4.489   5.083  17.026 -0.6664 -1.2610  0.9155
16726TIP3   OH271668   0.057   2.151   2.557  0.5696 -0.3265  0.4451
16726TIP3    H171669   0.005   2.207   2.615  1.1644  0.9879 -0.2435
16726TIP3    H271670   0.013   2.155   2.473  1.3870  0.2654  0.0273
16727TIP3   OH271671   0.501   6.812   2.517 -0.2004  0.2403 -0.3756
16727TIP3    H171672   0.419   6.791   2.562 -0.0296  0.8306  0.2340
16727TIP3    H271673   0.519   6.903   2.542 -0.4055  0.7952 -2.1140
16728TIP3   OH271674   1.234   5.885  15.877 -0.0943 -0.3566  0.1663
16728TIP3    H171675   1.208   5.976  15.891  1.8493  0.2127  0.3808
16728TIP3    H271676   1.192   5.860  15.795  1.6865  1.7434 -1.5032
16729TIP3   OH271677   1.395   1.668   4.203 -0.4377  0.3356 -0.1130
16729TIP3    H171678   1.439   1.583   4.207  0.0391  0.5629 -0.4036
16729TIP3    H271679   1.324   1.656   4.140 -1.9333 -0.5310  1.6309
16730TIP3   OH271680   0.985   3.375   4.906 -0.0008  0.2035 -0.1758
16730TIP3    H171681   0.979   3.351   4.814 -0.7649 -3.0858  0.6240
16730TIP3    H271682   0.903   3.422   4.924 -1.0509 -1.3954 -0.6215
16731TIP3   OH271683   1.812   3.864   2.031  0.1864 -0.4625  0.4434
16731TIP3    H171684   1.816   3.948   2.077  1.1575 -0.0551 -0.3293
16731TIP3    H271685   1.719   3.850   2.014  0.0376  0.6335  0.2986
16732TIP3   OH271686   0.034   4.537  16.846  0.5958 -0.4186 -0.2174
16732TIP3    H171687   0.039   4.513  16.753 -0.1910 -2.6375  0.2415
16732TIP3    H271688  -0.015   4.465  16.886  3.5266 -1.1372  2.4442
16733TIP3   OH271689   6.444   4.958  11.882 -0.5594  0.2593 -0.4231
16733TIP3    H171690   6.433   5.043  11.923  1.9677  0.0186  0.9627
16733TIP3    H271691   6.467   4.977  11.792  3.3255  1.3961  0.5858
16734TIP3   OH271692   5.568   3.655  14.823 -0.5040 -0.1328  0.0179
16734TIP3    H171693   5.549   3.743  14.791 -0.0372 -0.3556 -0.9209
16734TIP3    H271694   5.657   3.661  14.858 -1.2678  0.2834  2.0063
16735TIP3   OH271695   5.473   6.578   1.895 -0.2705 -0.0270  0.0371
16735TIP3    H171696   5.525   6.499   1.888 -0.1899 -0.1398  1.4642
16735TIP3    H271697   5.384   6.547   1.915 -0.3013  0.2221  0.3037
16736TIP3   OH271698   1.864   0.410   3.924 -0.1780 -0.4793  0.8068
16736TIP3    H171699   1.863   0.485   3.984 -1.8032 -0.2128  0.4900
16736TIP3    H271700   1.809   0.344   3.966  2.0902 -1.9757  1.5945
16737TIP3   OH271701   5.403   4.744   5.964 -0.0465  0.5453 -0.1850
16737TIP3    H171702   5.375   4.806   5.897  1.0180  0.3967 -0.7966
16737TIP3    H271703   5.463   4.794   6.020 -1.8373  1.0090  1.4150
16738TIP3   OH271704   6.481   0.552  12.639  0.8754 -0.2404  0.3898
16738TIP3    H171705   6.527   0.577  12.719  1.7696  1.2770 -0.5367
16738TIP3    H271706   6.389   0.574  12.656  1.3861  2.3892  0.2087
16739TIP3   OH271707   2.841   1.904   6.310  0.0496 -0.3291 -0.1280
16739TIP3    H171708   2.926   1.870   6.339  1.0606  1.3218 -0.9558
16739TIP3    H271709   2.827   1.862   6.225  0.7701  0.4417 -0.6507
16740TIP3   OH271710   0.594   5.282  15.608 -0.1433 -0.4888  0.4348
16740TIP3    H171711   0.510   5.319  15.636  0.3578  3.6408 -2.5189
16740TIP3    H271712   0.654   5.306  15.679 -1.2016 -3.2376  2.4433
16741TIP3   OH271713   2.712   4.346   5.321 -0.0766 -0.2489 -0.5029
16741TIP3    H171714   2.624   4.368   5.350  0.1563 -0.3238  0.3039
16741TIP3    H271715   2.737   4.270   5.374  1.8280  1.9282  2.0527
16742TIP3   OH271716   6.311   3.426  15.780  0.0136 -0.5189  0.1731
16742TIP3    H171717   6.404   3.445  15.768  0.1599 -0.2658  1.5977
16742TIP3    H271718   6.308   3.356  15.845 -0.6828 -2.9202 -2.2495
16743TIP3   OH271719   6.601   0.312  16.484 -0.4573  0.0680  0.8620
16743TIP3    H171720   6.585   0.350  16.571 -0.7001 -2.3696  1.9621
16743TIP3    H271721   6.694   0.288  16.486  0.7545  3.7708 -1.2314
16744TIP3   OH271722   4.467   5.107  14.836 -0.6818 -0.4825 -0.0507
16744TIP3    H171723   4.430   5.195  14.829 -0.4867 -0.2543  1.4947
16744TIP3    H271724   4.391   5.049  14.825 -1.4591 -0.0298  2.3534
16745TIP3   OH271725   3.959   4.540   1.840 -0.4367 -0.2429 -0.4162
16745TIP3    H171726   3.916   4.541   1.926 -0.9052 -0.2439 -0.6519
16745TIP3    H271727   3.888   4.546   1.777 -0.2257 -1.9442 -0.8577
16746TIP3   OH271728   3.085   1.497  16.623  0.0094  0.3424  0.4138
16746TIP3    H171729   3.097   1.455  16.708 -0.2751 -0.3085  0.1395
16746TIP3    H271730   3.161   1.468  16.571 -0.1751  0.1730  0.2331
16747TIP3   OH271731   4.158   5.044   1.466 -0.7395 -0.0223 -0.2743
16747TIP3    H171732   4.195   4.959   1.441  1.4003  0.5272  0.7517
16747TIP3    H271733   4.161   5.044   1.561 -0.9165  1.1028 -0.2558
16748TIP3   OH271734   4.967   4.205  15.464 -0.1228 -0.0294  0.1540
16748TIP3    H171735   5.030   4.265  15.422  0.3854  0.5562  1.6968
16748TIP3    H271736   5.009   4.180  15.546 -1.3973 -0.5974  0.6521
16749TIP3   OH271737   0.612   6.737  14.898 -0.2141  0.0758  0.2452
16749TIP3    H171738   0.703   6.713  14.912  0.0002  0.4399 -0.4525
16749TIP3    H271739   0.581   6.678  14.829 -0.1223  0.7778 -0.4156
16750TIP3   OH271740   5.593   5.079  11.492 -0.4193 -0.5567 -0.9451
16750TIP3    H171741   5.656   5.008  11.488  0.7117  0.3609 -0.0634
16750TIP3    H271742   5.642   5.154  11.526 -2.2074 -0.0687  0.7648
16751TIP3   OH271743   4.640   6.740  12.458 -0.5378  0.1031 -0.6724
16751TIP3    H171744   4.600   6.666  12.413 -0.3023  0.4456 -1.4675
16751TIP3    H271745   4.598   6.817  12.419 -0.1047  0.4166 -0.5251
16752TIP3   OH271746   3.347   4.098   0.950 -0.6607 -0.4597  0.3883
16752TIP3    H171747   3.292   4.126   1.023 -2.1517 -0.4868 -0.6863
16752TIP3    H271748   3.286   4.081   0.878  0.9094  2.5007 -1.8905
16753TIP3   OH271749   1.112   1.624   4.904 -0.0025  0.3184  0.0021
16753TIP3    H171750   1.121   1.688   4.833  1.4658 -0.4224 -0.5167
16753TIP3    H271751   1.181   1.647   4.966 -0.5771  0.2857  0.6608
16754TIP3   OH271752   4.632   4.163   2.434  0.0412  0.0543 -0.0663
16754TIP3    H171753   4.696   4.200   2.373 -0.9073 -2.1943 -2.6445
16754TIP3    H271754   4.550   4.207   2.412  0.0781  0.8099  1.1958
16755TIP3   OH271755   6.277   5.935   3.233  0.3495  0.1945 -0.3865
16755TIP3    H171756   6.262   6.027   3.254 -0.2156 -0.2929  1.4816
16755TIP3    H271757   6.337   5.904   3.300 -1.7824 -1.5165  0.8472
16756TIP3   OH271758   0.661   2.001   4.075 -0.9758  0.0594 -0.2372
16756TIP3    H171759   0.670   1.996   3.980 -0.0922 -0.1034 -0.1521
16756TIP3    H271760   0.576   2.044   4.089 -0.5200  1.3128 -1.1084
16757TIP3   OH271761   1.671   3.761   2.957 -1.2425  0.2031  0.5892
16757TIP3    H171762   1.586   3.741   2.997 -1.1415  2.1420  1.8818
16757TIP3    H271763   1.722   3.801   3.027  0.5068 -0.2610 -0.3698
16758TIP3   OH271764   3.131   0.066   3.159  0.0334  0.4108 -0.2129
16758TIP3    H171765   3.048   0.052   3.114 -1.3732 -0.6094  2.4913
16758TIP3    H271766   3.170  -0.021   3.165  0.4662  0.6195  0.0467
16759TIP3   OH271767   3.972   2.429  16.643  0.1865 -0.5134 -0.2345
16759TIP3    H171768   3.988   2.510  16.690 -0.7763 -0.1256 -0.5534
16759TIP3    H271769   4.039   2.368  16.676 -0.0921 -0.0768  1.1781
16760TIP3   OH271770   4.771   4.371   1.755 -0.2009  0.5627  0.0363
16760TIP3    H171771   4.845   4.390   1.813 -0.2771 -1.0845  0.7128
16760TIP3    H271772   4.735   4.457   1.734 -0.3704  1.2172  2.6675
16761TIP3   OH271773   0.011   4.895   4.426 -0.1405  0.0849 -0.0497
16761TIP3    H171774   0.000   4.988   4.407  0.5045  0.1556 -0.0781
16761TIP3    H271775   0.023   4.891   4.521  1.3388  0.1794 -0.2219
16762TIP3   OH271776   4.067   2.078   0.156 -0.8574 -0.0720 -0.1875
16762TIP3    H171777   4.068   2.131   0.236 -1.0693 -0.1721 -0.1172
16762TIP3    H271778   4.057   2.142   0.085 -0.5723  0.0248 -0.1419
16763TIP3   OH271779   0.746   3.370   2.232 -0.4224  0.0290 -0.2341
16763TIP3    H171780   0.654   3.393   2.223 -0.8835  0.0594  3.3373
16763TIP3    H271781   0.791   3.454   2.243 -0.2586 -0.0896  0.0158
16764TIP3   OH271782   3.213   1.191  14.341 -0.2854 -0.1967  0.6861
16764TIP3    H171783   3.223   1.255  14.270 -2.7523  0.2377  0.6466
16764TIP3    H271784   3.249   1.236  14.418 -0.3092  0.5207  0.2905
16765TIP3   OH271785   2.674   0.162  12.459 -0.5064 -0.4172 -0.0108
16765TIP3    H171786   2.728   0.235  12.489 -0.0153 -0.6567 -0.2950
16765TIP3    H271787   2.736   0.090  12.445 -1.0590 -1.0681  0.8115
16766TIP3   OH271788   1.216   2.942   6.068  0.4758  0.3338 -0.2317
16766TIP3    H171789   1.292   2.933   6.010  0.2639 -2.3230 -0.2614
16766TIP3    H271790   1.249   2.915   6.154 -0.1094  0.4222  0.0252
16767TIP3   OH271791   0.899   0.315  15.358 -0.1422  0.2588 -0.0819
16767TIP3    H171792   0.966   0.247  15.355 -0.3651  0.0720 -0.8367
16767TIP3    H271793   0.946   0.396  15.334  0.6210  0.8140  2.8521
16768TIP3   OH271794   3.759   5.224  11.816 -0.2068  0.4485 -0.2518
16768TIP3    H171795   3.683   5.188  11.771 -0.3709 -0.9504  1.0388
16768TIP3    H271796   3.812   5.265  11.748 -1.0972 -0.3936 -1.4772
16769TIP3   OH271797   6.303   1.737   3.320 -0.1782  0.3603 -0.4201
16769TIP3    H171798   6.327   1.678   3.391 -0.9927 -0.6415 -0.9588
16769TIP3    H271799   6.310   1.683   3.240 -0.7445  1.0419 -0.9403
16770TIP3   OH271800   0.796   1.596  10.936 -0.0025 -0.6337 -0.2752
16770TIP3    H171801   0.874   1.614  10.990 -0.7075 -0.5791  0.7534
16770TIP3    H271802   0.760   1.515  10.973 -0.5797 -0.5182 -0.5810
16771TIP3   OH271803   1.807   2.818  15.480  0.0268  0.1532  0.9252
16771TIP3    H171804   1.871   2.868  15.428  0.7520 -1.1358  0.5362
16771TIP3    H271805   1.799   2.867  15.562  3.3201 -0.8319  1.9828
16772TIP3   OH271806   2.277   1.369   0.336 -0.0358  0.7114  0.2410
16772TIP3    H171807   2.218   1.385   0.262 -0.9945  1.0210  1.0541
16772TIP3    H271808   2.337   1.444   0.334 -1.0684  1.5878  0.7206
16773TIP3   OH271809   4.931   1.533  16.569  0.7039 -0.3780 -0.2110
16773TIP3    H171810   4.997   1.506  16.505 -0.3903 -0.4048 -1.3817
16773TIP3    H271811   4.961   1.619  16.599  0.4807  0.3512 -1.9420
16774TIP3   OH271812   2.457   5.064   6.162 -0.1119  0.5568 -0.0635
16774TIP3    H171813   2.447   5.155   6.191 -1.8825  0.2466  0.3973
16774TIP3    H271814   2.380   5.048   6.108 -0.0745 -0.8261  0.2692
16775TIP3   OH271815   1.983   4.099   0.545 -0.2605  0.4534 -0.0061
16775TIP3    H171816   2.061   4.112   0.491 -2.0224  0.9910 -2.6064
16775TIP3    H271817   1.977   4.005   0.557  0.9556  0.4321  0.5459
16776TIP3   OH271818   0.886   2.544  14.599  0.4086 -0.1676  0.1706
16776TIP3    H171819   0.941   2.562  14.523  1.5519 -0.8676  0.7976
16776TIP3    H271820   0.830   2.621  14.607  1.2203  0.5193 -0.5590
16777TIP3   OH271821   2.272   4.868  15.610  0.7942  0.0623 -0.7259
16777TIP3    H171822   2.270   4.945  15.667  2.2012  0.2682 -0.9203
16777TIP3    H271823   2.226   4.800  15.660  0.9076  0.5867  0.1145
16778TIP3   OH271824   4.851   6.304  13.016  0.3911 -0.5836  0.1413
16778TIP3    H171825   4.855   6.271  13.106  1.1092 -2.2553 -0.4705
16778TIP3    H271826   4.897   6.388  13.019 -0.8427  0.0873  1.6003
16779TIP3   OH271827   5.321   2.963   1.522 -0.1780  0.6139 -0.3320
16779TIP3    H171828   5.410   2.995   1.534 -0.0419 -0.0021  0.3820
16779TIP3    H271829   5.269   3.013   1.584 -0.2617  0.6903 -0.4642
16780TIP3   OH271830   0.279   4.449  17.061  0.2298  0.8906  0.4442
16780TIP3    H171831   0.292   4.409  17.147 -2.3860 -0.2084  0.4475
16780TIP3    H271832   0.358   4.499  17.045  2.7800 -2.4646  1.4904
16781TIP3   OH271833   1.692   2.551   3.314 -0.1402  0.1062  0.4367
16781TIP3    H171834   1.680   2.588   3.227 -0.2997  0.6387  0.6821
16781TIP3    H271835   1.605   2.553   3.354 -0.4026 -1.6488  0.0297
16782TIP3   OH271836   2.523   4.388  14.012 -0.2986 -0.3930 -0.0899
16782TIP3    H171837   2.431   4.363  14.018  0.1365 -1.7084  1.9796
16782TIP3    H271838   2.551   4.401  14.102  1.7561 -0.8761 -0.5980
16783TIP3   OH271839   6.221   0.591   1.558  0.0600  0.4714  0.6744
16783TIP3    H171840   6.206   0.603   1.652  0.1314  0.3919  0.6968
16783TIP3    H271841   6.193   0.501   1.541 -0.5059  0.6784  0.5012
16784TIP3   OH271842   1.605   3.179   0.880 -0.1747 -0.4552 -0.7760
16784TIP3    H171843   1.654   3.097   0.870 -0.8849 -1.0507  0.3915
16784TIP3    H271844   1.671   3.247   0.875  1.3200 -1.3158  3.3601
16785TIP3   OH271845   2.085   6.156  13.101  0.2704  0.1312 -0.1520
16785TIP3    H171846   2.057   6.178  13.012 -1.7113  1.4018  0.7150
16785TIP3    H271847   2.007   6.170  13.155  0.6582 -3.0971  1.4624
16786TIP3   OH271848   2.991   2.060  11.365 -0.2268  0.4134  0.0676
16786TIP3    H171849   2.980   2.014  11.282  1.0622  0.5149 -0.1740
16786TIP3    H271850   3.069   2.022  11.405 -0.0419  1.2927  0.5922
16787TIP3   OH271851   6.802   1.847   3.574  0.6015  0.3111 -0.1750
16787TIP3    H171852   6.747   1.847   3.496  1.1468 -0.0009 -0.5671
16787TIP3    H271853   6.752   1.796   3.638 -0.6653  2.0620  0.3007
16788TIP3   OH271854   5.869   2.594  15.118 -0.1159  0.5958 -0.6297
16788TIP3    H171855   5.820   2.512  15.124 -0.3159  0.6667 -1.2813
16788TIP3    H271856   5.886   2.605  15.025 -0.1943  1.3588 -0.5569
16789TIP3   OH271857   1.702   1.433   0.339  0.6611 -0.0827  0.0472
16789TIP3    H171858   1.629   1.386   0.300  1.3775  0.1031 -1.5655
16789TIP3    H271859   1.745   1.478   0.266  1.6406  0.8446  1.1348
16790TIP3   OH271860   5.142   1.257  16.189 -1.1007 -0.2555 -0.7210
16790TIP3    H171861   5.108   1.168  16.202 -1.3493  0.0230  0.6392
16790TIP3    H271862   5.066   1.310  16.168 -1.1964 -0.0659  0.0734
16791TIP3   OH271863   4.399   0.885  15.737 -0.3070  0.0183  0.1480
16791TIP3    H171864   4.454   0.844  15.805 -0.9011  1.3297  1.4784
16791TIP3    H271865   4.433   0.974  15.730 -0.6430  0.0729 -0.8632
16792TIP3   OH271866   1.827   1.580   3.738  0.5289  0.1511 -0.4995
16792TIP3    H171867   1.909   1.571   3.688  1.0587 -4.9986  0.6653
16792TIP3    H271868   1.852   1.630   3.816  2.8084 -1.6061  0.0049
16793TIP3   OH271869   0.650   4.048  12.598  0.2957 -0.4558  0.0593
16793TIP3    H171870   0.555   4.052  12.615  0.5355  0.7041  1.2967
16793TIP3    H271871   0.682   4.134  12.623  1.4583 -0.2549 -1.9412
16794TIP3   OH271872   5.301   1.390   0.987  0.5673 -0.4853  0.4594
16794TIP3    H171873   5.233   1.423   1.046  2.6173  3.9728  0.7404
16794TIP3    H271874   5.265   1.404   0.899  0.3637  0.0213  0.6182
16795TIP3   OH271875   5.755   6.766   1.478  0.1144  0.0454  0.6144
16795TIP3    H171876   5.717   6.722   1.555  0.2257 -0.5404  0.3410
16795TIP3    H271877   5.816   6.702   1.442  1.4147  0.9973  1.0739
16796TIP3   OH271878   4.449   2.367  13.441  0.4841 -0.4495  0.2980
16796TIP3    H171879   4.365   2.370  13.487  0.5361 -1.3614  0.4632
16796TIP3    H271880   4.496   2.294  13.480  1.8951  0.8088  1.0881
16797TIP3   OH271881   2.566   1.198  13.745 -0.0142  0.0986 -0.3327
16797TIP3    H171882   2.610   1.283  13.749 -1.2907  0.7649  0.1416
16797TIP3    H271883   2.562   1.178  13.651 -1.5373  1.5792 -0.6283
16798TIP3   OH271884   0.344   5.363  16.859 -0.0342  0.5590 -0.4243
16798TIP3    H171885   0.308   5.373  16.771 -0.8968  1.4267  0.0016
16798TIP3    H271886   0.431   5.402  16.854  0.4457 -0.5738 -1.2034
16799TIP3   OH271887   2.073   4.685   5.099  0.0970  0.6369  0.1980
16799TIP3    H171888   2.042   4.677   5.009  0.0875 -0.9555  0.3196
16799TIP3    H271889   2.161   4.723   5.090  0.1693  0.3266 -0.4943
16800TIP3   OH271890   0.078   1.048  15.189  0.9072 -0.5750 -0.9189
16800TIP3    H171891   0.162   1.082  15.159  0.9838 -0.2831 -0.3926
16800TIP3    H271892   0.013   1.102  15.144  0.9881 -0.9047 -1.4499
16801TIP3   OH271893   0.973   2.764   0.203 -0.7548 -0.6246  0.0779
16801TIP3    H171894   1.010   2.770   0.115 -0.7887 -0.3182  0.0859
16801TIP3    H271895   0.904   2.830   0.205 -2.0338 -1.8733 -0.2887
16802TIP3   OH271896   2.745   5.511  12.218  0.4408 -0.6110  0.2384
16802TIP3    H171897   2.791   5.565  12.155  1.1298 -2.5702 -1.0410
16802TIP3    H271898   2.677   5.467  12.167 -0.3445 -0.6934  1.3066
16803TIP3   OH271899   4.000   0.032   1.410 -0.5373  0.0650  0.8494
16803TIP3    H171900   3.985  -0.061   1.429  1.3292 -0.3769  0.3862
16803TIP3    H271901   4.095   0.040   1.403 -0.5784  2.2141  1.8302
16804TIP3   OH271902   5.446   5.754   1.506  0.6078 -0.7266 -0.1356
16804TIP3    H171903   5.444   5.799   1.422 -1.2264 -1.0653 -0.2969
16804TIP3    H271904   5.532   5.711   1.508  1.6937  1.2923 -0.7222
16805TIP3   OH271905   2.484   2.609  12.173  0.1445 -0.2469 -0.0350
16805TIP3    H171906   2.561   2.640  12.125 -0.7233  0.7756 -0.7842
16805TIP3    H271907   2.460   2.527  12.129 -3.2756  2.6827 -4.4897
16806TIP3   OH271908   4.427   2.233  14.528  0.4540  0.2821  0.1445
16806TIP3    H171909   4.421   2.138  14.513 -0.7627  0.4574 -0.5414
16806TIP3    H271910   4.509   2.258  14.485  0.3280 -0.3155 -0.4722
16807TIP3   OH271911   0.493   6.439  11.415  0.0492 -0.0140 -0.2609
16807TIP3    H171912   0.430   6.368  11.430 -0.2593  0.3554  0.2344
16807TIP3    H271913   0.486   6.457  11.321  0.7320 -1.1826 -0.5507
16808TIP3   OH271914   3.704   2.345   4.290 -0.3511  0.1542  0.4831
16808TIP3    H171915   3.609   2.346   4.294 -0.3962 -1.9485  0.9825
16808TIP3    H271916   3.726   2.260   4.253  1.3307  1.0505 -0.7144
16809TIP3   OH271917   4.113   4.536   2.135 -0.4477 -0.3953 -0.6558
16809TIP3    H171918   4.077   4.447   2.134  2.2485 -1.6259  0.9778
16809TIP3    H271919   4.186   4.533   2.074  1.4964 -0.2622  1.5163
16810TIP3   OH271920   6.067   4.066   1.809  0.0768 -0.3428 -0.2395
16810TIP3    H171921   6.036   4.156   1.800 -0.0442 -0.4844 -1.5215
16810TIP3    H271922   6.009   4.026   1.873 -0.5229  0.2152 -0.4229
16811TIP3   OH271923   6.614   1.494   3.992 -0.1353  0.3314  0.1919
16811TIP3    H171924   6.667   1.570   3.971  0.3009 -0.0890 -0.2333
16811TIP3    H271925   6.659   1.452   4.065  0.5749 -0.4828 -0.7005
16812TIP3   OH271926   3.135   6.255   2.843 -0.3199 -0.7548  0.6174
16812TIP3    H171927   3.202   6.280   2.906 -0.8530  1.1254  0.4880
16812TIP3    H271928   3.094   6.337   2.818  0.3333 -1.3188 -2.7330
16813TIP3   OH271929   3.732   6.090   0.114  0.1156  0.0461 -0.2880
16813TIP3    H171930   3.650   6.119   0.074 -0.3286  0.9659  1.2060
16813TIP3    H271931   3.787   6.169   0.115  1.5315 -0.8335 -2.3779
16814TIP3   OH271932   4.518   5.556   2.592 -0.5745 -0.1137 -0.2020
16814TIP3    H171933   4.463   5.631   2.617  1.6397  0.4446  3.8511
16814TIP3    H271934   4.475   5.480   2.630  0.4041  0.0826  1.3900
16815TIP3   OH271935   2.285   2.463   0.070 -0.6312  0.2441  0.0232
16815TIP3    H171936   2.316   2.426   0.153 -0.6160  1.2506  0.4839
16815TIP3    H271937   2.315   2.401   0.004  0.2886 -0.0373  0.6761
16816TIP3   OH271938   1.278   2.340   3.633  0.5817 -0.3391 -0.0696
16816TIP3    H171939   1.342   2.283   3.589 -2.1396 -0.9423 -3.8223
16816TIP3    H271940   1.283   2.422   3.585 -0.9579 -0.1899 -0.0125
16817TIP3   OH271941   4.699   5.773  14.619 -0.2973  0.0122 -0.7650
16817TIP3    H171942   4.671   5.684  14.641 -1.1908  0.7503  1.3443
16817TIP3    H271943   4.667   5.788  14.530 -1.6819 -1.1614 -0.4874
16818TIP3   OH271944   6.712   4.061   0.621 -0.2376 -0.2690 -0.1212
16818TIP3    H171945   6.660   3.999   0.672  0.9212 -2.1724 -1.1215
16818TIP3    H271946   6.803   4.037   0.639  0.3099  2.0238  0.4591
16819TIP3   OH271947   1.737   1.735   1.486  0.4519 -0.5671 -0.0690
16819TIP3    H171948   1.741   1.654   1.437  0.6695 -0.2096 -0.6510
16819TIP3    H271949   1.704   1.710   1.572  0.3435 -1.2395 -0.3056
16820TIP3   OH271950   5.092   1.255  11.900  0.0593  0.4781 -0.1462
16820TIP3    H171951   5.173   1.208  11.877 -0.5072 -0.7024  0.1783
16820TIP3    H271952   5.119   1.346  11.910  1.4666  0.0170  0.5225
16821TIP3   OH271953   3.580   1.375  11.460  0.9283  0.0927  0.3246
16821TIP3    H171954   3.561   1.437  11.389  0.0037 -2.2023 -1.5692
16821TIP3    H271955   3.495   1.360  11.502  0.6811 -1.4327 -0.6331
16822TIP3   OH271956   0.210   2.800  13.794  0.1046  0.5742 -0.0400
16822TIP3    H171957   0.156   2.819  13.872 -0.2551  2.1308 -0.6218
16822TIP3    H271958   0.281   2.864  13.799  0.7789 -0.1421 -0.3501
16823TIP3   OH271959   5.085   6.342   5.200  0.2234  0.3466 -0.3110
16823TIP3    H171960   5.029   6.371   5.272 -0.2013 -0.7848 -0.1539
16823TIP3    H271961   5.161   6.400   5.203  1.2231 -0.9161  2.3617
16824TIP3   OH271962   2.946   4.237   3.999  0.2381 -0.0626  0.3355
16824TIP3    H171963   2.863   4.247   3.951  0.8380 -0.8508 -0.9275
16824TIP3    H271964   2.922   4.191   4.079 -1.1753  3.3596  2.0909
16825TIP3   OH271965   1.860   3.449  16.171  0.0500  0.2235 -0.1899
16825TIP3    H171966   1.821   3.366  16.196  1.2075 -0.3301 -0.1811
16825TIP3    H271967   1.906   3.479  16.249  0.5013  0.3561 -0.5032
16826TIP3   OH271968   3.339   0.665  11.254 -0.1174  0.0948  0.0327
16826TIP3    H171969   3.344   0.715  11.172  0.2999 -1.4475 -0.9260
16826TIP3    H271970   3.385   0.719  11.318  2.0974  0.0844 -1.4346
16827TIP3   OH271971   0.865   6.525  11.862 -0.3739  0.7185 -0.3216
16827TIP3    H171972   0.866   6.620  11.873 -0.5998  1.0341 -2.6206
16827TIP3    H271973   0.792   6.508  11.802  0.6374 -0.7414 -1.2057
16828TIP3   OH271974   3.791   3.328   3.209  0.8368  0.2878 -0.1685
16828TIP3    H171975   3.703   3.291   3.203  0.4667  1.1625 -0.2727
16828TIP3    H271976   3.823   3.330   3.119  0.5906  0.8388 -0.2472
16829TIP3   OH271977   5.764   6.426  13.238  0.4254 -0.2476 -0.1762
16829TIP3    H171978   5.850   6.384  13.245 -0.2156 -1.6713 -0.4158
16829TIP3    H271979   5.771   6.483  13.162  1.6075  0.8504  0.7028
16830TIP3   OH271980   5.460   3.350  16.604  0.2893  0.6325  0.7691
16830TIP3    H171981   5.365   3.334  16.598  0.4743 -0.0672 -0.9774
16830TIP3    H271982   5.467   3.434  16.650 -1.1441  0.3780  1.5063
16831TIP3   OH271983   0.106   0.851  17.110 -0.4457 -0.2771 -0.0961
16831TIP3    H171984   0.137   0.941  17.108 -0.5075 -0.2411  0.4321
16831TIP3    H271985   0.054   0.845  17.190 -2.8136 -0.0188 -1.5188
16832TIP3   OH271986   2.820   4.002  16.743  0.2991 -0.0293 -0.1548
16832TIP3    H171987   2.902   4.020  16.788 -0.0959 -0.9060  0.9658
16832TIP3    H271988   2.836   3.920  16.696  0.7322  0.9137 -1.7362
16833TIP3   OH271989   2.070   1.180  13.608 -0.6340 -0.0140 -0.2762
16833TIP3    H171990   2.104   1.142  13.527 -1.1895 -0.9087 -0.1042
16833TIP3    H271991   2.018   1.255  13.580 -2.3553 -1.3887 -0.9373
16834TIP3   OH271992   5.183   0.802  15.074 -0.2447  0.1702 -0.3604
16834TIP3    H171993   5.128   0.792  14.996  0.2106  1.2937 -0.8563
16834TIP3    H271994   5.123   0.797  15.147 -0.4594 -2.8411 -0.6181
16835TIP3   OH271995   2.600   3.380   5.715  0.1489 -0.0552 -0.0049
16835TIP3    H171996   2.593   3.473   5.696  1.3785  0.1531  0.4215
16835TIP3    H271997   2.548   3.367   5.794  1.6367  0.7257  1.1685
16836TIP3   OH271998   6.014   2.562  13.008 -0.7511  0.1758 -0.1644
16836TIP3    H171999   6.065   2.643  13.005  2.2169 -1.4660  1.2370
16836TIP3    H272000   6.066   2.503  13.062 -1.2990 -3.6550 -3.3329
16837TIP3   OH272001   4.468   1.116  11.479  1.1695 -0.3767 -0.1949
16837TIP3    H172002   4.531   1.059  11.524  1.3972 -0.4318 -0.5801
16837TIP3    H272003   4.399   1.056  11.450  0.2486 -0.1362  1.3958
16838TIP3   OH272004   1.700   4.953  14.842 -0.2055 -0.1087  0.0480
16838TIP3    H172005   1.791   4.929  14.860 -0.3080 -1.1928 -0.7841
16838TIP3    H272006   1.666   4.984  14.927 -0.2373 -3.5724  1.4776
16839TIP3   OH272007   4.010   5.018   4.620 -0.3690  0.2130  0.5135
16839TIP3    H172008   4.020   4.996   4.528 -0.0331  1.1557  0.3115
16839TIP3    H272009   4.071   4.960   4.666 -0.4023 -0.1283  0.1284
16840TIP3   OH272010   3.206   2.801  16.042  0.8239  0.2153 -0.2566
16840TIP3    H172011   3.235   2.886  16.010 -1.0878  1.7855  1.8448
16840TIP3    H272012   3.286   2.759  16.073  1.8721  0.9920 -1.7457
16841TIP3   OH272013   2.746   3.909   0.813 -0.1582 -0.6151  0.3839
16841TIP3    H172014   2.712   3.997   0.797 -0.3574 -0.3958  1.9101
16841TIP3    H272015   2.790   3.886   0.731 -0.4016  0.7549 -0.1661
16842TIP3   OH272016   2.864   0.636  15.105  0.2854 -0.2199 -0.4233
16842TIP3    H172017   2.820   0.685  15.036  0.8489  2.2154  0.8046
16842TIP3    H272018   2.793   0.602  15.159 -0.1330  0.2724 -0.6547
16843TIP3   OH272019   2.538   2.049   5.237 -0.1709  0.0722  0.1764
16843TIP3    H172020   2.459   2.086   5.277 -1.0138 -0.6943 -0.7575
16843TIP3    H272021   2.547   1.962   5.276  0.4189  0.2823  0.5307
16844TIP3   OH272022   5.609   2.957   2.615 -0.4647  0.1444 -0.0059
16844TIP3    H172023   5.595   2.987   2.705  0.4768 -0.1224  0.2468
16844TIP3    H272024   5.679   3.013   2.583 -0.2206 -0.3113 -0.2813
16845TIP3   OH272025   4.271   0.498  12.690  0.0378 -0.0656  0.0194
16845TIP3    H172026   4.260   0.406  12.665  1.2495 -0.4077  0.6236
16845TIP3    H272027   4.288   0.495  12.785 -1.0811  0.8948  0.2681
16846TIP3   OH272028   2.454   4.458  12.485  0.3701  0.4324  0.0940
16846TIP3    H172029   2.545   4.436  12.505  0.6043 -0.6504 -1.8439
16846TIP3    H272030   2.402   4.397  12.537  0.7159  1.3589  1.5601
16847TIP3   OH272031   0.846   5.473   1.163  0.0303  0.3269 -0.3910
16847TIP3    H172032   0.807   5.394   1.202  0.0562  0.0088 -0.9918
16847TIP3    H272033   0.773   5.535   1.156  0.1555  0.6363  0.7542
16848TIP3   OH272034   6.814   1.714  11.533  0.6192 -0.4654 -0.6717
16848TIP3    H172035   6.828   1.678  11.620  0.5714  0.5527 -0.2326
16848TIP3    H272036   6.790   1.805  11.548  0.7893 -0.2270 -1.7545
16849TIP3   OH272037   4.387   4.517  14.440 -0.2699  0.3219 -0.2578
16849TIP3    H172038   4.445   4.578  14.486 -0.7361 -0.2305  1.1258
16849TIP3    H272039   4.416   4.430  14.468 -0.0681 -0.0915 -1.6524
16850TIP3   OH272040   1.615   5.238   2.302 -0.1609  0.3650  0.2806
16850TIP3    H172041   1.577   5.283   2.377 -0.0058  0.4345  0.3172
16850TIP3    H272042   1.590   5.292   2.227 -0.2612  0.3295  0.2877
16851TIP3   OH272043   1.190   4.506  14.745 -0.2766  0.6878  0.0101
16851TIP3    H172044   1.217   4.468  14.828  0.7044 -0.6808 -0.8938
16851TIP3    H272045   1.134   4.439  14.705 -1.7066  1.8113  0.0464
16852TIP3   OH272046   1.090   6.606  13.311  0.2269  0.0687  0.0371
16852TIP3    H172047   1.070   6.561  13.229 -0.8398 -2.0906  1.3928
16852TIP3    H272048   1.174   6.650  13.295  1.2456 -2.2583 -1.4724
16853TIP3   OH272049   2.226   6.458  12.694  0.4057 -0.3068 -0.8508
16853TIP3    H172050   2.246   6.537  12.643  0.3808 -0.7410 -1.5363
16853TIP3    H272051   2.180   6.401  12.633  1.3764 -1.3019 -0.6682
16854TIP3   OH272052   3.174   5.236  12.856 -0.4033  0.5753  0.1301
16854TIP3    H172053   3.228   5.314  12.844 -0.7539  0.6486 -1.0873
16854TIP3    H272054   3.084   5.267  12.843 -0.4202 -0.4977 -3.4242
16855TIP3   OH272055   2.137   6.561   5.313 -0.1752 -0.1022 -0.7333
16855TIP3    H172056   2.124   6.654   5.292  0.6054  0.3357  0.6179
16855TIP3    H272057   2.220   6.539   5.271  1.3860  0.7734  1.6723
16856TIP3   OH272058   3.866   1.793  13.182 -0.4184 -0.4182  0.1230
16856TIP3    H172059   3.961   1.790  13.169 -0.4613  0.7901 -0.6455
16856TIP3    H272060   3.855   1.798  13.277  0.3689  0.8933  0.1674
16857TIP3   OH272061   4.979   4.477   6.591  0.1496  0.2056 -0.5199
16857TIP3    H172062   5.073   4.489   6.601  0.2093 -1.2225  0.9716
16857TIP3    H272063   4.943   4.566   6.597  1.3109  0.6668 -0.1006
16858TIP3   OH272064   5.082   1.683   5.977  0.1039  0.0177  0.1636
16858TIP3    H172065   5.106   1.717   5.890 -0.2725 -0.5626 -0.1761
16858TIP3    H272066   5.165   1.650   6.012  0.0217 -0.9999 -0.5563
16859TIP3   OH272067   1.974   2.143   0.424  0.3515 -0.6608  0.2299
16859TIP3    H172068   1.902   2.083   0.442 -0.5436 -0.0487 -1.1250
16859TIP3    H272069   1.940   2.230   0.449  0.2731 -0.2520 -1.2260
16860TIP3   OH272070   3.930   5.887   4.334  0.5309 -0.4975 -0.1002
16860TIP3    H172071   3.933   5.796   4.305 -1.7858 -0.5115 -0.5506
16860TIP3    H272072   3.935   5.882   4.429  1.2849 -1.0271 -0.1644
16861TIP3   OH272073   2.054   2.154  12.540 -0.1522 -0.2211 -0.1386
16861TIP3    H172074   2.114   2.225  12.516 -0.9566  0.5501  0.0588
16861TIP3    H272075   2.111   2.082  12.567  0.6872  0.3301 -0.4000
16862TIP3   OH272076   4.352   3.500  15.722 -0.6533 -0.2724 -0.5020
16862TIP3    H172077   4.421   3.439  15.749  0.8006  2.2634  2.0004
16862TIP3    H272078   4.391   3.551  15.651 -0.2228  0.6326  0.3755
16863TIP3   OH272079   4.491   6.199   0.655 -0.5744 -0.1542 -0.6258
16863TIP3    H172080   4.432   6.150   0.712  1.7810 -1.7514  0.6417
16863TIP3    H272081   4.456   6.288   0.654 -1.6515 -0.4640  1.9919
16864TIP3   OH272082   2.767   6.368  16.731 -0.4787 -0.1203 -0.1920
16864TIP3    H172083   2.686   6.414  16.710 -0.8484 -0.9975 -0.7588
16864TIP3    H272084   2.741   6.302  16.795 -0.5724 -1.5215 -1.6171
16865TIP3   OH272085   4.249   3.881  16.715 -0.7347  0.1216 -0.1478
16865TIP3    H172086   4.206   3.844  16.793 -0.2614 -2.5361 -1.0383
16865TIP3    H272087   4.325   3.927  16.750  2.3955 -5.0449  1.0272
16866TIP3   OH272088   5.058   4.007   4.197  0.4156 -0.2592 -0.1128
16866TIP3    H172089   5.110   3.956   4.134  0.1787  1.3628 -1.7151
16866TIP3    H272090   5.046   3.949   4.272  3.5679 -1.1185 -0.1397
16867TIP3   OH272091   6.710   5.083  11.587  0.1780  0.0153  0.0402
16867TIP3    H172092   6.723   5.143  11.513  0.7684  2.0851  1.7388
16867TIP3    H272093   6.616   5.068  11.588  0.3838 -2.4559 -2.8403
16868TIP3   OH272094   0.318   3.384  13.245 -0.4174  0.5436 -0.0618
16868TIP3    H172095   0.410   3.373  13.223 -0.6932 -0.8751 -0.6525
16868TIP3    H272096   0.318   3.435  13.326  0.8556  0.9199 -0.2793
16869TIP3   OH272097   0.646   0.954  11.877 -0.2655 -0.3105 -0.3902
16869TIP3    H172098   0.642   0.922  11.787  1.3260  1.1786 -1.0284
16869TIP3    H272099   0.688   0.883  11.926 -0.7427 -0.9423 -0.8734
16870TIP3   OH272100   1.183   0.903  11.473  0.1254  0.1449 -0.1161
16870TIP3    H172101   1.221   0.941  11.394  0.0656  1.5134  0.4913
16870TIP3    H272102   1.258   0.876  11.526  0.1621 -1.2982 -0.8572
16871TIP3   OH272103   5.419   0.575  14.895 -0.3008  0.3190  0.0695
16871TIP3    H172104   5.442   0.563  14.987 -0.9731 -1.0062  0.0933
16871TIP3    H272105   5.324   0.564  14.892 -0.3581  0.8939 -0.7180
16872TIP3   OH272106   6.364   2.634   0.393  0.3024  0.1062 -0.2052
16872TIP3    H172107   6.389   2.542   0.384  0.7586  0.1641  0.3587
16872TIP3    H272108   6.424   2.681   0.335 -0.9338 -0.0744 -1.6774
16873TIP3   OH272109   4.783   4.482   5.835  0.0913 -0.6967 -0.0088
16873TIP3    H172110   4.754   4.509   5.922 -0.4360  1.0212 -0.6805
16873TIP3    H272111   4.878   4.482   5.841  0.0781  0.1047  0.3857
16874TIP3   OH272112   0.112   1.211   2.962 -0.2836  0.4064 -0.0050
16874TIP3    H172113   0.051   1.142   2.936  0.1731  0.2307 -0.6333
16874TIP3    H272114   0.190   1.196   2.909  0.9309 -0.3100  1.9056
16875TIP3   OH272115   4.886   2.027   5.737 -0.3513  0.2082 -0.1660
16875TIP3    H172116   4.855   2.036   5.647  0.0350 -0.2631 -0.3521
16875TIP3    H272117   4.847   1.944   5.767 -0.0620  0.1061 -0.0719
16876TIP3   OH272118   5.179   2.265   3.273 -0.2853 -0.2170 -0.1485
16876TIP3    H172119   5.182   2.212   3.353  0.8096 -0.2285 -0.1819
16876TIP3    H272120   5.240   2.336   3.289 -0.5414  0.1456 -0.7382
16877TIP3   OH272121   0.133   0.116   2.787  0.2330 -0.2402 -0.4398
16877TIP3    H172122   0.096   0.036   2.749 -0.1016 -1.3810  2.0545
16877TIP3    H272123   0.224   0.093   2.809  0.2773  0.2120 -0.1245
16878TIP3   OH272124   4.629   6.270  15.679 -0.5405  0.1000 -0.1087
16878TIP3    H172125   4.663   6.360  15.681 -0.5068  0.0807  0.2068
16878TIP3    H272126   4.681   6.227  15.610 -0.9833  0.4877 -0.6889
16879TIP3   OH272127   3.935   5.118   4.963 -0.0359 -0.4430  0.2631
16879TIP3    H172128   3.926   5.081   4.875  1.3109 -0.7120  0.2060
16879TIP3    H272129   3.920   5.212   4.951 -0.5149 -0.5658 -0.1365
16880TIP3   OH272130   6.014   5.986  12.432 -0.6951  0.5997  0.0314
16880TIP3    H172131   5.992   6.069  12.474  0.4656  1.2807 -0.6331
16880TIP3    H272132   5.958   5.982  12.354 -1.1066  0.5109  0.3290
16881TIP3   OH272133   3.909   3.253  14.964 -0.3348  0.7559  0.1476
16881TIP3    H172134   3.980   3.282  15.021 -0.6487  1.5954  0.1331
16881TIP3    H272135   3.952   3.227  14.882  0.1784 -1.0414  0.9500
16882TIP3   OH272136   6.794   4.651   3.004  0.3124  0.2333  0.2319
16882TIP3    H172137   6.752   4.717   3.059 -2.2767 -0.5049 -0.7565
16882TIP3    H272138   6.728   4.584   2.990  2.4434 -2.0110  0.1469
16883TIP3   OH272139   4.240   5.245  13.462  0.1868  0.3711  0.3185
16883TIP3    H172140   4.273   5.261  13.374 -1.2790 -0.4322 -0.4202
16883TIP3    H272141   4.205   5.156  13.459  0.8472  0.0207  1.9607
16884TIP3   OH272142   6.706   4.247   5.978 -0.5342  0.6214  0.1056
16884TIP3    H172143   6.763   4.318   6.006  0.1732 -0.0675  0.4507
16884TIP3    H272144   6.618   4.284   5.980 -0.3626  0.9885  1.9432
16885TIP3   OH272145   5.046   1.802   1.560 -0.0851  0.1695  0.1305
16885TIP3    H172146   5.008   1.882   1.525  0.1031 -0.0246 -0.5238
16885TIP3    H272147   5.093   1.830   1.638 -1.7749  0.3778  1.1319
16886TIP3   OH272148   0.977   2.361  11.425  0.3189 -0.1671 -0.3844
16886TIP3    H172149   0.965   2.392  11.335  0.5162  1.4763  0.1109
16886TIP3    H272150   0.973   2.266  11.419 -2.2920 -0.0745 -1.7840
16887TIP3   OH272151   3.713   6.361  12.650 -0.0347  0.3923  0.4420
16887TIP3    H172152   3.714   6.347  12.555  1.5375 -1.2915  0.6509
16887TIP3    H272153   3.633   6.411  12.666 -0.8510 -0.1340 -1.6511
16888TIP3   OH272154   4.646   6.541  12.100  0.0996 -0.3225  0.7759
16888TIP3    H172155   4.614   6.509  12.185 -1.7190 -2.3166 -0.5634
16888TIP3    H272156   4.605   6.628  12.091 -1.1015 -0.8090  1.2337
16889TIP3   OH272157   5.581   2.238  14.843  0.2255  0.2804 -0.7141
16889TIP3    H172158   5.665   2.224  14.800  0.4253 -0.7764 -0.0084
16889TIP3    H272159   5.544   2.314  14.798  1.4543  0.6356 -1.1809
16890TIP3   OH272160   4.387   1.171  16.365 -0.1956 -0.1325 -0.0715
16890TIP3    H172161   4.395   1.079  16.389  0.5459  0.1518  0.8145
16890TIP3    H272162   4.435   1.179  16.282  2.1254 -0.0392  1.1973
16891TIP3   OH272163   2.679   5.421   5.847  0.0950  0.1724  0.1379
16891TIP3    H172164   2.586   5.439   5.836 -0.1278 -0.8429  0.2628
16891TIP3    H272165   2.687   5.326   5.838  1.0877  0.2202  0.3403
16892TIP3   OH272166   0.060   5.011  15.697  0.1559  0.5614 -0.0307
16892TIP3    H172167  -0.013   4.969  15.743 -0.6461  0.5832 -1.2444
16892TIP3    H272168   0.116   4.939  15.669  0.2866  0.5030  0.3742
16893TIP3   OH272169   1.537   4.355   4.414 -0.8378 -0.1623 -0.8438
16893TIP3    H172170   1.490   4.402   4.345 -1.1394 -0.5088 -0.8760
16893TIP3    H272171   1.629   4.366   4.391 -0.9213  0.0272 -1.1034
16894TIP3   OH272172   5.328   4.087  13.085  0.2726  0.0165 -0.4184
16894TIP3    H172173   5.285   4.052  13.162  2.8467  2.1073  2.1745
16894TIP3    H272174   5.409   4.038  13.078 -0.0470 -0.3475 -2.0580
16895TIP3   OH272175   3.272   1.588   0.387 -0.1193 -0.4414 -0.4693
16895TIP3    H172176   3.315   1.655   0.441  0.8057 -2.3815  1.3069
16895TIP3    H272177   3.180   1.615   0.385  0.3717  1.4029 -0.6668
16896TIP3   OH272178   0.628   6.793   3.003 -0.7702  0.5153  0.8181
16896TIP3    H172179   0.634   6.703   2.971  1.3549  0.6457  0.7206
16896TIP3    H272180   0.719   6.820   3.015 -1.3742  2.6109  0.9951
16897TIP3   OH272181   3.111   2.214   1.171 -0.0391  0.2510  0.0800
16897TIP3    H172182   3.099   2.265   1.251  0.0030  1.9720 -0.9767
16897TIP3    H272183   3.048   2.250   1.109 -0.9099 -1.8409 -0.3587
16898TIP3   OH272184   6.149   3.494   4.110 -0.3571 -0.3618 -0.3667
16898TIP3    H172185   6.172   3.541   4.030 -0.1151  1.2499  0.6177
16898TIP3    H272186   6.061   3.525   4.133 -0.1063 -0.1917  0.4109
16899TIP3   OH272187   3.236   1.177   0.697 -0.6074 -0.8065  1.1500
16899TIP3    H172188   3.246   1.249   0.760 -0.2563 -1.3732  1.7516
16899TIP3    H272189   3.299   1.197   0.628  0.5494 -1.2926  2.0360
16900TIP3   OH272190   2.956   1.960   4.332  0.7019 -0.5623 -0.2282
16900TIP3    H172191   2.883   2.019   4.353  0.5718 -0.7711 -0.0986
16900TIP3    H272192   2.975   1.915   4.414  1.8284  0.4213  0.0827
16901TIP3   OH272193   4.396   1.791  12.568 -0.7904  0.5238  0.4302
16901TIP3    H172194   4.412   1.885  12.575 -0.5449  0.3934  2.1118
16901TIP3    H272195   4.308   1.780  12.603 -0.7122  0.0955  0.4943
16902TIP3   OH272196   2.502   2.020  13.809 -0.0710  0.0271 -0.0205
16902TIP3    H172197   2.451   2.066  13.876 -1.0648 -0.7928 -0.1955
16902TIP3    H272198   2.446   2.020  13.732  0.1704 -0.9507 -0.1996
16903TIP3   OH272199   6.453   2.300   1.154  0.1973 -0.2488 -0.0277
16903TIP3    H172200   6.388   2.230   1.149  0.7321 -0.6832 -1.1790
16903TIP3    H272201   6.533   2.261   1.118 -0.0938  1.6252 -3.0693
16904TIP3   OH272202   0.578   3.664  16.508  0.0298 -0.1916  0.0872
16904TIP3    H172203   0.492   3.651  16.547  0.0805  1.4565  0.8279
16904TIP3    H272204   0.627   3.584  16.528 -1.5833 -1.5622 -1.1688
16905TIP3   OH272205   4.241   2.036   3.223 -0.6868 -0.3446  0.2677
16905TIP3    H172206   4.157   2.047   3.179 -1.0435 -2.9419  0.0954
16905TIP3    H272207   4.302   2.012   3.152  0.0198  0.6426  0.5157
16906TIP3   OH272208   6.331   2.682   0.669 -0.3817  0.1161  0.1002
16906TIP3    H172209   6.309   2.646   0.583  0.3662 -2.0578  0.7533
16906TIP3    H272210   6.253   2.667   0.722  0.2780 -1.5785  0.6485
16907TIP3   OH272211   3.513   6.630   0.982 -0.8322  0.0014  0.6149
16907TIP3    H172212   3.571   6.567   0.939  1.1205  1.9973  0.1707
16907TIP3    H272213   3.425   6.604   0.953  0.0660 -1.3061 -1.1588
16908TIP3   OH272214   0.063   5.872  14.241 -0.1104  0.0104  0.0712
16908TIP3    H172215   0.108   5.957  14.238  0.8713 -0.5039 -3.1938
16908TIP3    H272216  -0.001   5.876  14.171  0.9869 -2.4089 -1.1849
16909TIP3   OH272217   2.110   4.014  11.696 -0.0317 -0.7454 -0.7425
16909TIP3    H172218   2.202   4.041  11.689 -0.3371  1.8361  2.7304
16909TIP3    H272219   2.063   4.080  11.646 -0.3113  2.1885  2.9643
16910TIP3   OH272220   6.821   4.246   5.723  0.1417 -0.4374 -0.2341
16910TIP3    H172221   6.816   4.205   5.809 -0.2286  1.1388  0.5431
16910TIP3    H272222   6.787   4.335   5.737 -0.2458 -0.2526 -2.0779
16911TIP3   OH272223   6.072   0.129  15.872 -0.4282  0.5832  0.2490
16911TIP3    H172224   6.045   0.171  15.791 -1.9384  0.5874  0.7234
16911TIP3    H272225   6.044   0.189  15.941 -0.9860 -0.3325  0.8486
16912TIP3   OH272226   1.606   2.107  10.906  0.6014  0.3278 -0.0980
16912TIP3    H172227   1.542   2.156  10.956  0.0001 -0.1697 -0.3610
16912TIP3    H272228   1.585   2.126  10.815  0.0531 -0.7734 -0.2166
16913TIP3   OH272229   3.376   5.082   3.364  0.6734 -0.2748 -0.7103
16913TIP3    H172230   3.377   5.124   3.278  2.8961  1.5389  0.1087
16913TIP3    H272231   3.460   5.105   3.403  1.0638 -3.6419  0.7942
16914TIP3   OH272232   6.483   6.615  10.985  0.0301  0.2866  0.3966
16914TIP3    H172233   6.420   6.586  10.919 -0.4996  0.2694  0.9030
16914TIP3    H272234   6.506   6.534  11.032  1.4094  0.0680 -0.6025
16915TIP3   OH272235   1.185   0.104   2.029  0.2449 -0.1226 -0.3512
16915TIP3    H172236   1.265   0.091   1.977  1.3909  0.2274  1.2285
16915TIP3    H272237   1.165   0.018   2.065 -0.6414 -0.3985 -1.4717
16916TIP3   OH272238   2.738   4.880  16.021  0.3408 -0.3930  0.3542
16916TIP3    H172239   2.745   4.915  15.932  1.6708 -0.5650  0.3733
16916TIP3    H272240   2.685   4.801  16.011 -2.2205  1.2047  0.2270
16917TIP3   OH272241   2.871   3.722   5.891 -0.1165  0.7596  0.0293
16917TIP3    H172242   2.892   3.743   5.982  0.9206 -0.0104 -0.0125
16917TIP3    H272243   2.799   3.782   5.869 -1.5663 -0.1823  1.8648
16918TIP3   OH272244   0.319   3.170  12.694 -0.4552 -0.5973 -0.0893
16918TIP3    H172245   0.388   3.113  12.728 -1.0080 -1.6562 -0.7034
16918TIP3    H272246   0.349   3.259  12.714  1.8595 -0.9183 -1.7008
16919TIP3   OH272247   0.548   3.800   2.766 -0.7979 -0.3522 -0.1814
16919TIP3    H172248   0.571   3.735   2.700 -0.7238 -0.9910  0.4702
16919TIP3    H272249   0.528   3.879   2.715  1.3604 -0.1782 -0.8671
16920TIP3   OH272250   5.144   6.039   2.978 -0.2326  0.3588 -0.1987
16920TIP3    H172251   5.061   6.023   2.933 -0.1805 -1.2758  0.1948
16920TIP3    H272252   5.147   6.133   2.992 -2.8786  0.2983  1.3829
16921TIP3   OH272253   6.182   4.002   5.693  0.5320 -0.1497 -0.4912
16921TIP3    H172254   6.139   4.000   5.779  0.0492 -2.0970 -0.7347
16921TIP3    H272255   6.273   3.979   5.712  0.9155  1.3733 -0.3046
16922TIP3   OH272256   4.332   6.504  13.636 -0.0648 -0.2201  0.1670
16922TIP3    H172257   4.346   6.409  13.639 -1.1399 -0.3516  2.5478
16922TIP3    H272258   4.386   6.539  13.707  1.2537  1.1481 -1.4137
16923TIP3   OH272259   1.588   6.807   1.977  0.1580 -0.7560 -0.5473
16923TIP3    H172260   1.641   6.854   1.913  0.5483  0.2824  0.4928
16923TIP3    H272261   1.499   6.812   1.943  0.4111 -0.5707 -1.2031
16924TIP3   OH272262   1.231   5.390   4.534 -0.2360  0.3678 -0.0839
16924TIP3    H172263   1.250   5.478   4.502 -0.1270  0.9095  1.3827
16924TIP3    H272264   1.195   5.344   4.458  1.4777  1.0761 -1.3893
16925TIP3   OH272265   6.162   1.321  16.069 -0.0823  0.2740  0.4289
16925TIP3    H172266   6.091   1.267  16.103 -0.0571 -0.5372 -0.7141
16925TIP3    H272267   6.180   1.284  15.982  0.2520  1.8405 -0.2132
16926TIP3   OH272268   5.164   3.938  15.435 -0.2735  0.1961 -0.3526
16926TIP3    H172269   5.157   4.002  15.506 -0.0265  1.2642 -1.2625
16926TIP3    H272270   5.258   3.920  15.429 -0.3494 -0.3243 -0.0521
16927TIP3   OH272271   0.388   5.423   4.217  0.2100  0.0634  0.3378
16927TIP3    H172272   0.363   5.400   4.307  0.0097 -1.7303 -0.1406
16927TIP3    H272273   0.305   5.445   4.174  0.2344  0.3699  0.4499
16928TIP3   OH272274   0.199   4.928   4.020  0.2224 -0.3989  0.4469
16928TIP3    H172275   0.185   5.009   3.971  0.7511  0.4663  1.6690
16928TIP3    H272276   0.292   4.907   4.008  0.2597 -0.4088  0.7400
16929TIP3   OH272277   5.180   5.793   4.930 -0.1367 -0.9104  0.1490
16929TIP3    H172278   5.172   5.782   4.835  0.6001  2.5263 -0.4290
16929TIP3    H272279   5.093   5.823   4.958 -0.0821 -1.0083  0.4321
16930TIP3   OH272280   2.245   6.486   1.886  0.2431  0.2974 -0.0338
16930TIP3    H172281   2.307   6.558   1.890 -0.3708  0.8349 -0.0003
16930TIP3    H272282   2.159   6.528   1.882 -0.3445 -0.3845  2.8500
16931TIP3   OH272283   3.766   2.682  13.472  0.2851 -0.2691 -0.3732
16931TIP3    H172284   3.764   2.610  13.535 -2.8047 -0.8016 -0.9370
16931TIP3    H272285   3.753   2.640  13.387  1.1551  0.7577 -1.0517
16932TIP3   OH272286   5.592   2.513   1.771 -0.1157 -0.3012 -0.0552
16932TIP3    H172287   5.576   2.583   1.834 -0.9899  0.2753 -0.8965
16932TIP3    H272288   5.620   2.438   1.824 -2.8895 -0.4951  1.2617
16933TIP3   OH272289   3.077   4.009  16.370  0.5320  0.4630 -0.2173
16933TIP3    H172290   3.080   3.944  16.299  1.7772 -0.9948  1.0814
16933TIP3    H272291   2.985   4.034  16.376  0.3417  0.4161 -2.1313
16934TIP3   OH272292   5.597   5.166  14.303  0.0658 -0.6486  0.0012
16934TIP3    H172293   5.666   5.219  14.343  0.2285  0.3951 -1.5907
16934TIP3    H272294   5.643   5.115  14.236 -0.5361 -0.7756 -0.3192
16935TIP3   OH272295   4.382   3.806   4.733  0.5528  0.0817 -0.4919
16935TIP3    H172296   4.400   3.739   4.798  0.6662  0.0121 -0.5952
16935TIP3    H272297   4.468   3.839   4.708  0.5148  0.0380 -0.6809
16936TIP3   OH272298   1.783   0.216   4.091 -0.2373 -0.1999  0.3073
16936TIP3    H172299   1.781   0.237   4.184  1.2506  1.5709 -0.0003
16936TIP3    H272300   1.824   0.130   4.086 -1.4345 -0.8710  1.3173
16937TIP3   OH272301   4.515   6.082   4.324  0.0352  0.0947  0.8378
16937TIP3    H172302   4.481   5.997   4.296  0.2493 -0.0520  1.0248
16937TIP3    H272303   4.439   6.126   4.365 -0.2787  0.3080  0.0478
16938TIP3   OH272304   3.810   4.091  12.202  0.1295  0.0078 -0.1378
16938TIP3    H172305   3.803   4.171  12.150  2.7610  0.3125 -0.1461
16938TIP3    H272306   3.802   4.121  12.292  0.8158  0.2718 -0.1551
16939TIP3   OH272307   0.987   3.984  14.420 -0.6020 -0.4242  0.3155
16939TIP3    H172308   0.920   3.941  14.473 -1.0735  0.0815  0.1415
16939TIP3    H272309   0.939   4.051  14.370 -0.0229 -0.2900 -0.0703
16940TIP3   OH272310   0.524   4.813  15.693 -0.4123 -0.4511 -0.3344
16940TIP3    H172311   0.526   4.902  15.659  0.3846 -1.2632 -2.6297
16940TIP3    H272312   0.438   4.779  15.669  0.0167 -0.9125 -1.2632
16941TIP3   OH272313   0.731   6.025  12.574  0.7368  0.0944  0.2201
16941TIP3    H172314   0.756   6.009  12.665  0.9558  0.1180  0.1645
16941TIP3    H272315   0.783   6.101  12.548 -0.5234  1.1446  0.5890
16942TIP3   OH272316   5.740   6.435   3.778  0.3499 -0.2407 -0.1004
16942TIP3    H172317   5.683   6.384   3.721 -2.1529  1.5164  0.6563
16942TIP3    H272318   5.743   6.386   3.860  0.1355 -0.4613 -0.2256
16943TIP3   OH272319   4.731   0.699   4.226 -0.3651  0.3771 -0.2137
16943TIP3    H172320   4.684   0.772   4.187 -0.5849  0.4069  0.1007
16943TIP3    H272321   4.787   0.666   4.156 -0.8307  0.3610 -0.5804
16944TIP3   OH272322   4.529   4.685  13.610  0.3633 -0.2320 -0.3704
16944TIP3    H172323   4.439   4.658  13.592  0.7484 -0.7196 -1.6765
16944TIP3    H272324   4.560   4.621  13.675 -0.1187 -0.2794 -0.1827
16945TIP3   OH272325   1.063   5.913   3.913  0.0894 -0.4953 -0.0147
16945TIP3    H172326   1.049   5.943   3.824 -1.4784 -0.0052  0.3724
16945TIP3    H272327   1.025   5.826   3.916  0.1602 -0.5212  0.1729
16946TIP3   OH272328   6.695   2.538   2.847  0.0583  0.8769 -0.3785
16946TIP3    H172329   6.756   2.605   2.878  0.4604  0.5957 -0.5591
16946TIP3    H272330   6.626   2.588   2.803 -0.8939  1.3383  1.5284
16947TIP3   OH272331   0.934   3.873  16.568 -0.7299  0.4127  0.1287
16947TIP3    H172332   0.981   3.789  16.571 -2.5608 -0.7327 -1.5420
16947TIP3    H272333   0.851   3.855  16.612 -1.0512  1.4258 -0.0499
16948TIP3   OH272334   1.385   2.664   2.720 -0.6155  0.5154  0.5204
16948TIP3    H172335   1.410   2.721   2.647  2.2388  1.3100  1.9766
16948TIP3    H272336   1.382   2.576   2.681  0.7980  0.9265 -0.6001
16949TIP3   OH272337   5.163   2.628  12.743  0.2013  0.7840 -0.3595
16949TIP3    H172338   5.083   2.609  12.693  0.6447 -0.8769 -0.4813
16949TIP3    H272339   5.224   2.663  12.678  0.4047 -0.3209 -0.7789
16950TIP3   OH272340   2.335   5.737   0.461 -0.1573  0.2279  0.0403
16950TIP3    H172341   2.400   5.742   0.391  0.1347 -0.4520  0.2580
16950TIP3    H272342   2.258   5.698   0.419 -0.6269  1.4924 -0.3453
16951TIP3   OH272343   5.391   2.754   6.247  0.0798  0.0740 -0.7781
16951TIP3    H172344   5.315   2.729   6.298  1.9727 -0.6210  1.9533
16951TIP3    H272345   5.424   2.672   6.210  1.1623 -0.1485  0.6015
16952TIP3   OH272346   0.632   4.473   2.537  0.6617  1.0000 -0.1924
16952TIP3    H172347   0.547   4.499   2.570 -0.1576 -1.1837 -0.4250
16952TIP3    H272348   0.646   4.529   2.461  0.4291  2.8083  1.0444
16953TIP3   OH272349   2.956   6.662  13.129  0.6622 -0.4059  0.9256
16953TIP3    H172350   2.947   6.752  13.097 -1.3941 -0.5591  0.9267
16953TIP3    H272351   3.039   6.661  13.176  2.5410  0.5258 -2.1139
16954TIP3   OH272352   0.843   1.802   4.801 -0.1166  0.7242  0.2390
16954TIP3    H172353   0.863   1.836   4.888 -0.2467  0.0357  0.5516
16954TIP3    H272354   0.822   1.709   4.817 -0.5398  0.6950 -0.4701
16955TIP3   OH272355   1.331   2.554   4.008 -0.7434 -0.2759  0.4000
16955TIP3    H172356   1.408   2.595   3.968  0.1471 -2.4405 -0.2651
16955TIP3    H272357   1.257   2.588   3.958 -0.1959  1.4488  0.7125
16956TIP3   OH272358   3.156   6.418  13.991  0.8534  0.3330  0.2045
16956TIP3    H172359   3.067   6.389  13.968  0.4852  1.0828  0.6294
16956TIP3    H272360   3.178   6.367  14.069  0.9551 -0.1330 -0.1241
16957TIP3   OH272361   5.151   5.912  14.214 -0.5832  0.7992 -0.0585
16957TIP3    H172362   5.240   5.931  14.243  0.0708 -1.0104 -0.7028
16957TIP3    H272363   5.158   5.828  14.168 -2.9380 -0.4140  1.5437
16958TIP3   OH272364   4.948   2.956  12.897  0.2432 -0.3063 -0.1844
16958TIP3    H172365   4.929   3.050  12.897 -1.9432 -0.6802 -1.4802
16958TIP3    H272366   5.000   2.942  12.818 -0.4752 -0.3559 -0.6512
16959TIP3   OH272367   4.815   0.781  13.726 -0.0613 -0.9083 -0.1499
16959TIP3    H172368   4.871   0.713  13.689  1.3805  0.5824 -0.8328
16959TIP3    H272369   4.783   0.830  13.651 -0.4839 -0.3925  0.3553
16960TIP3   OH272370   0.507   0.129   3.735 -0.0183  0.0403  0.1618
16960TIP3    H172371   0.438   0.111   3.672  0.2327 -3.3317  0.6201
16960TIP3    H272372   0.463   0.176   3.806 -0.8404  1.6553 -1.3485
16961TIP3   OH272373   6.249   4.483   3.549 -0.0819  0.0093 -0.0515
16961TIP3    H172374   6.268   4.399   3.591  0.3228 -0.5270 -1.2584
16961TIP3    H272375   6.332   4.508   3.506 -0.8414 -0.1688 -1.7021
16962TIP3   OH272376   2.630   3.814   3.568 -0.0011  0.6268  0.4438
16962TIP3    H172377   2.665   3.900   3.589  2.1611 -0.1019  0.0842
16962TIP3    H272378   2.537   3.820   3.590  0.0897  3.0139  0.4720
16963TIP3   OH272379   5.389   3.301   5.084  0.2819 -0.1694 -0.0904
16963TIP3    H172380   5.480   3.283   5.106  0.1318  0.1410  0.8473
16963TIP3    H272381   5.350   3.331   5.166  0.2855  3.5986 -1.2762
16964TIP3   OH272382   5.173   0.377  16.700 -0.2683 -0.1084  0.2570
16964TIP3    H172383   5.109   0.444  16.675 -0.8811 -0.2755  1.3203
16964TIP3    H272384   5.258   0.419  16.684 -0.6146  0.0583 -1.3220
16965TIP3   OH272385   3.572   5.575   4.864  0.1620 -0.1853  0.3424
16965TIP3    H172386   3.512   5.637   4.820 -0.2964 -0.2134  0.9161
16965TIP3    H272387   3.619   5.532   4.792  1.4703  1.7700 -0.0522
16966TIP3   OH272388   3.619   3.141   4.673 -0.6412 -0.1255 -0.0107
16966TIP3    H172389   3.535   3.107   4.642 -0.8573  0.0246  0.3936
16966TIP3    H272390   3.606   3.236   4.675 -0.6758 -0.1407  0.6533
16967TIP3   OH272391   5.377   3.443  14.793  0.2341  0.3709  0.1160
16967TIP3    H172392   5.433   3.520  14.805  1.2397 -0.2157 -0.6666
16967TIP3    H272393   5.289   3.475  14.811  0.6575  1.6510  0.0469
16968TIP3   OH272394   3.961   3.599  12.321  0.1177 -0.3641 -0.6048
16968TIP3    H172395   3.882   3.646  12.350 -0.2592  0.0433 -2.1953
16968TIP3    H272396   4.001   3.567  12.402 -1.1793  0.2230  0.3030
16969TIP3   OH272397   3.554   2.211  15.569 -0.0857  0.2523  0.2256
16969TIP3    H172398   3.615   2.250  15.632  0.8050 -0.0517 -0.4211
16969TIP3    H272399   3.476   2.191  15.620 -0.1813  1.9195  0.8000
16970TIP3   OH272400   0.678   4.039   4.861  0.3549 -0.2747 -0.9167
16970TIP3    H172401   0.750   3.991   4.902  0.5932  0.8369  0.0068
16970TIP3    H272402   0.721   4.108   4.810 -0.0474  1.2351  0.6967
16971TIP3   OH272403   1.853   0.101   2.324 -0.1671 -0.0585  0.1749
16971TIP3    H172404   1.782   0.091   2.261  1.4241 -2.1110 -1.4432
16971TIP3    H272405   1.855   0.019   2.372  1.1625 -0.0928  0.1010
16972TIP3   OH272406   5.870   2.070  11.566 -0.2416 -0.0129 -0.4910
16972TIP3    H172407   5.894   2.079  11.658  1.4102  0.8536 -0.9734
16972TIP3    H272408   5.946   2.032  11.524 -0.1778  1.4729 -1.8331
16973TIP3   OH272409   5.890   5.833  12.728  0.3730 -0.5120 -0.4516
16973TIP3    H172410   5.939   5.894  12.672 -1.2644  1.3093 -0.0075
16973TIP3    H272411   5.948   5.819  12.804  1.1778 -0.2756 -1.0076
16974TIP3   OH272412   0.157   6.329   1.877  0.7615 -0.3481 -0.4744
16974TIP3    H172413   0.081   6.383   1.858  0.6660  1.4341  3.7814
16974TIP3    H272414   0.124   6.263   1.939  2.5473  0.6094  1.6428
16975TIP3   OH272415   2.188   0.681  11.395  0.7643  0.4340 -0.7187
16975TIP3    H172416   2.118   0.669  11.459 -0.4878  0.5955 -2.0261
16975TIP3    H272417   2.268   0.663  11.444 -0.2084 -0.1987  0.6951
16976TIP3   OH272418   1.196   3.216  16.222  0.2652 -0.1480  0.6927
16976TIP3    H172419   1.150   3.236  16.140  1.4178 -2.0957 -0.4906
16976TIP3    H272420   1.235   3.299  16.248 -0.2400  0.5428 -0.6466
16977TIP3   OH272421   1.654   3.300  12.893  0.0133 -0.0874 -0.0096
16977TIP3    H172422   1.617   3.321  12.979  2.2101 -0.2912  1.0408
16977TIP3    H272423   1.579   3.306  12.834 -1.8614 -1.1186  2.0600
16978TIP3   OH272424   2.001   0.078  13.044  0.3024  0.2400  0.1728
16978TIP3    H172425   1.906   0.088  13.041  0.3358  0.6272  0.2962
16978TIP3    H272426   2.031   0.154  13.094  0.6260 -0.2106  0.6802
16979TIP3   OH272427   0.409   3.650   2.294  0.3189 -0.2674 -0.2059
16979TIP3    H172428   0.368   3.737   2.295  1.5400  0.4869 -3.4363
16979TIP3    H272429   0.337   3.590   2.277 -0.1215  0.5217 -1.2488
16980TIP3   OH272430   1.545   6.459   0.117  0.3465  0.8604 -0.2850
16980TIP3    H172431   1.456   6.426   0.101  0.3438  0.0996  1.1228
16980TIP3    H272432   1.596   6.427   0.043  0.2915 -2.2407  0.8567
16981TIP3   OH272433   2.716   0.192   0.555  0.0465  0.8683 -0.1653
16981TIP3    H172434   2.779   0.221   0.490 -1.0362  4.7985  0.2607
16981TIP3    H272435   2.638   0.168   0.505  0.1174  1.2154 -0.4392
16982TIP3   OH272436   2.446   6.511   4.685  0.1881  0.0444 -0.5952
16982TIP3    H172437   2.398   6.592   4.666 -0.7966 -0.6286 -1.0706
16982TIP3    H272438   2.387   6.441   4.656  0.8136 -0.8622  0.2623
16983TIP3   OH272439   0.137   5.538  14.014  0.0276  0.5850 -0.4123
16983TIP3    H172440   0.094   5.474  13.958  0.9447  0.3214 -0.8398
16983TIP3    H272441   0.204   5.578  13.957  2.1034 -0.8330  0.8783
16984TIP3   OH272442   3.176   1.460   2.810  0.4508 -0.6605  0.2543
16984TIP3    H172443   3.103   1.512   2.842  0.7352 -2.0647  3.6751
16984TIP3    H272444   3.136   1.378   2.780  0.4792 -1.8242  3.0139
16985TIP3   OH272445   5.640   6.658   0.775  0.4712  0.2576  0.1380
16985TIP3    H172446   5.712   6.640   0.836  0.7195  0.8566  0.0247
16985TIP3    H272447   5.660   6.604   0.699  0.7255  0.3085  0.1664
16986TIP3   OH272448   5.445   6.678   4.335  0.2875 -0.3057 -0.7674
16986TIP3    H172449   5.466   6.681   4.242 -0.2489  0.4496 -0.8684
16986TIP3    H272450   5.426   6.769   4.359  0.2187 -0.5217  0.0336
16987TIP3   OH272451   1.769   3.687  16.027 -0.3033 -0.1188 -0.1821
16987TIP3    H172452   1.712   3.651  15.958 -2.4569  0.7140  1.0658
16987TIP3    H272453   1.824   3.614  16.053 -1.4549 -1.2517 -0.8126
16988TIP3   OH272454   6.134   4.526  14.689 -0.2278 -0.5506 -0.3593
16988TIP3    H172455   6.051   4.481  14.702  0.0396 -0.9589 -0.0618
16988TIP3    H272456   6.188   4.464  14.640  0.2933 -0.7428  0.4296
16989TIP3   OH272457   6.377   4.184   2.354  0.0498 -0.1204  0.6116
16989TIP3    H172458   6.349   4.276   2.352 -2.1857 -0.7226  1.6193
16989TIP3    H272459   6.394   4.163   2.262 -0.2743  1.0437  0.2610
16990TIP3   OH272460   5.997   0.136   2.680 -0.0579 -0.0475 -0.2746
16990TIP3    H172461   6.072   0.078   2.671  1.1251  0.9041  2.3727
16990TIP3    H272462   5.980   0.168   2.591  0.6503 -2.6389 -1.4315
16991TIP3   OH272463   4.795   1.794   4.617 -0.4246 -0.4364  0.2073
16991TIP3    H172464   4.755   1.879   4.603 -0.4440 -0.4635  0.1024
16991TIP3    H272465   4.735   1.731   4.577  0.8106 -0.3044 -1.9929
16992TIP3   OH272466   2.748   3.297  14.689 -0.1726  0.7029 -0.3771
16992TIP3    H172467   2.797   3.366  14.734 -1.9639  1.1163  1.0762
16992TIP3    H272468   2.663   3.296  14.734 -1.4448 -0.0630 -2.6789
16993TIP3   OH272469   5.312   1.260   0.538 -0.4321  0.2477 -0.2708
16993TIP3    H172470   5.268   1.188   0.493  1.3353 -1.1225  0.0447
16993TIP3    H272471   5.326   1.227   0.627 -1.9500  2.0704  0.7172
16994TIP3   OH272472   2.797   2.884   2.307  0.0681 -0.4637  0.2772
16994TIP3    H172473   2.804   2.824   2.233 -1.3621  0.1206 -0.3712
16994TIP3    H272474   2.716   2.932   2.291 -1.7868 -2.1615  3.5697
16995TIP3   OH272475   5.910   2.827   6.646 -0.1900  0.4384  0.0599
16995TIP3    H172476   5.852   2.821   6.722 -1.1206  0.0401 -0.6655
16995TIP3    H272477   5.897   2.745   6.598 -2.4919  2.1158 -2.5076
16996TIP3   OH272478   0.389   3.139  12.276  0.2572 -0.0779 -0.0940
16996TIP3    H172479   0.311   3.112  12.324  1.2622 -0.4388  1.3971
16996TIP3    H272480   0.376   3.104  12.188 -1.2193 -0.2018  0.1456
16997TIP3   OH272481   3.208   1.282   5.643 -0.3663  0.2306 -0.0294
16997TIP3    H172482   3.211   1.358   5.585 -0.2739  0.4126  0.2114
16997TIP3    H272483   3.126   1.291   5.690 -0.2156  0.3382  0.2115
16998TIP3   OH272484   3.555   3.901   2.138 -0.0381  0.0117 -0.2886
16998TIP3    H172485   3.648   3.908   2.121 -0.0103 -2.2269 -1.3729
16998TIP3    H272486   3.548   3.881   2.232  0.5666  0.0844 -0.2301
16999TIP3   OH272487   4.050   4.097  15.570  0.3291  0.1054 -0.2475
16999TIP3    H172488   4.107   4.161  15.526 -1.5662  1.6943 -0.4939
16999TIP3    H272489   4.073   4.104  15.663  0.9854  0.2353 -0.4142
17000TIP3   OH272490   1.371   5.156   3.418  0.3021 -0.3229 -0.1390
17000TIP3    H172491   1.428   5.103   3.362  0.6777  0.1716 -0.2333
17000TIP3    H272492   1.394   5.131   3.507  0.9367  0.1399 -0.1664
17001TIP3   OH272493   2.464   5.752  11.930 -0.7877  0.1823  0.7391
17001TIP3    H172494   2.391   5.812  11.918 -0.4128  0.5687  0.3231
17001TIP3    H272495   2.500   5.773  12.016 -0.3769  0.8771  0.4067
17002TIP3   OH272496   0.112   4.290   0.663 -0.3351 -0.0209 -0.1562
17002TIP3    H172497   0.046   4.280   0.595 -0.1991 -1.8852 -0.0727
17002TIP3    H272498   0.063   4.291   0.745 -0.3722  0.3219 -0.1822
17003TIP3   OH272499   1.434   0.819  11.551 -0.1697 -0.2742 -0.3397
17003TIP3    H172500   1.449   0.725  11.566  0.3045 -0.0914  0.4104
17003TIP3    H272501   1.454   0.860  11.636 -1.8620  0.3472 -0.2149
17004TIP3   OH272502   0.782   4.707  12.076  0.0242 -0.2172  0.4721
17004TIP3    H172503   0.687   4.713  12.084  0.0051  5.2479 -0.0003
17004TIP3    H272504   0.796   4.669  11.989 -1.8223  0.6639 -0.2723
17005TIP3   OH272505   1.299   6.470  15.105 -0.1674 -0.0783 -0.8613
17005TIP3    H172506   1.237   6.397  15.112 -1.5791  1.1544  0.0097
17005TIP3    H272507   1.382   6.428  15.083 -0.9124 -1.9659 -0.3088
17006TIP3   OH272508   4.151   5.496   3.971  0.3226 -0.3614 -0.3629
17006TIP3    H172509   4.194   5.439   3.906 -0.3800  0.6981 -1.7972
17006TIP3    H272510   4.145   5.581   3.928 -2.5916 -0.2894  0.0215
17007TIP3   OH272511   6.392   5.263  13.006 -0.4572 -0.3208 -0.4395
17007TIP3    H172512   6.469   5.320  13.000 -0.5335 -0.0321  1.0410
17007TIP3    H272513   6.345   5.277  12.924 -0.1942  1.3645 -0.3340
17008TIP3   OH272514   4.649   2.199   1.570  0.0968  0.0403 -0.6812
17008TIP3    H172515   4.590   2.249   1.514  0.0581  1.0555  0.2404
17008TIP3    H272516   4.591   2.137   1.616 -0.1084  0.3389 -0.5332
17009TIP3   OH272517   4.231   5.404  14.546  0.3589  0.2691  0.3487
17009TIP3    H172518   4.189   5.489  14.562  0.5452  0.4526 -0.1271
17009TIP3    H272519   4.181   5.365  14.474 -2.3506 -1.8486  3.0872
17010TIP3   OH272520   0.947   4.115   3.975 -0.3980  0.2254  0.5246
17010TIP3    H172521   0.965   4.206   4.001 -0.9028  0.5567 -0.2552
17010TIP3    H272522   0.851   4.109   3.977 -0.5005  0.3904 -1.6126
17011TIP3   OH272523   5.136   4.215  14.922  0.5975  0.1606  0.0633
17011TIP3    H172524   5.149   4.304  14.889 -0.0093  0.6741  1.1767
17011TIP3    H272525   5.069   4.223  14.989 -1.2598 -1.4992 -1.4548
17012TIP3   OH272526   3.135   1.337   1.409 -0.1647 -0.0932 -0.4184
17012TIP3    H172527   3.186   1.311   1.332  0.2472 -1.3141  0.2537
17012TIP3    H272528   3.098   1.256   1.442  1.4928  0.0402  1.9802
17013TIP3   OH272529   2.803   5.490   5.499  0.1723 -0.4413  0.5485
17013TIP3    H172530   2.810   5.400   5.531  1.4914 -0.0790  1.3490
17013TIP3    H272531   2.724   5.524   5.541 -1.1752 -1.6410 -0.8964
17014TIP3   OH272532   5.471   1.711   2.237 -0.1649  0.4934 -0.1243
17014TIP3    H172533   5.377   1.703   2.253 -0.1396  0.2846 -0.0730
17014TIP3    H272534   5.501   1.775   2.301 -0.3051  0.6960 -0.2628
17015TIP3   OH272535   0.025   0.896   1.906 -0.2053 -0.0308  0.2248
17015TIP3    H172536  -0.070   0.883   1.908 -0.2071 -0.0393  0.0884
17015TIP3    H272537   0.045   0.914   1.814 -0.1258  0.3480  0.3112
17016TIP3   OH272538   3.072   0.509   2.025  0.2083  0.2148  0.6409
17016TIP3    H172539   3.156   0.470   2.002  0.5662  1.1685  0.3100
17016TIP3    H272540   3.071   0.510   2.120  0.7650  0.6003  0.6466
17017TIP3   OH272541   6.538   2.628  16.607  0.5342  0.2750 -0.3019
17017TIP3    H172542   6.527   2.625  16.512 -0.4741 -1.6270 -0.1697
17017TIP3    H272543   6.451   2.613  16.642  1.0154  0.2390  0.9345
17018TIP3   OH272544   0.359   1.864   5.981 -0.7099  0.5474 -0.1690
17018TIP3    H172545   0.353   1.959   5.996  1.1089  0.4038  2.3137
17018TIP3    H272546   0.403   1.831   6.060 -0.0713 -2.1925 -1.5495
17019TIP3   OH272547   2.501   2.948  13.408 -0.0311  0.6175  0.3052
17019TIP3    H172548   2.575   2.922  13.353  0.1025  0.2287  0.6617
17019TIP3    H272549   2.434   2.977  13.347  0.4946  1.1754 -0.0160
17020TIP3   OH272550   6.830   6.048   0.780 -0.0453  0.6007 -0.2277
17020TIP3    H172551   6.864   6.136   0.765 -0.2752  0.5354 -1.2203
17020TIP3    H272552   6.874   5.995   0.714  0.9572 -0.2624  1.0837
17021TIP3   OH272553   4.039   3.261  13.167 -0.3282 -0.3292 -0.6589
17021TIP3    H172554   4.100   3.192  13.192  0.6038  0.7480  0.1384
17021TIP3    H272555   4.021   3.245  13.074  0.0352 -1.5017 -0.5429
17022TIP3   OH272556   5.824   6.090  14.159  0.2829  0.1222 -0.0173
17022TIP3    H172557   5.864   6.004  14.145  1.1313  0.5086 -0.0741
17022TIP3    H272558   5.874   6.149  14.103  0.4436  0.8392  0.8425
17023TIP3   OH272559   4.116   2.678  12.835  0.3911 -0.2237 -0.1557
17023TIP3    H172560   4.191   2.662  12.777 -0.1788  2.2392 -1.7183
17023TIP3    H272561   4.059   2.603  12.822  0.7070 -0.1739 -2.1543
17024TIP3   OH272562   0.296   0.055   1.657  0.2034 -0.2616  0.7441
17024TIP3    H172563   0.246   0.016   1.729  1.2714 -0.2117  1.5442
17024TIP3    H272564   0.230   0.085   1.595 -0.7726  0.2350  1.9847
17025TIP3   OH272565   0.620   2.162  13.390  0.1501  0.2555  0.3966
17025TIP3    H172566   0.621   2.239  13.333  0.3340 -0.8012 -1.0794
17025TIP3    H272567   0.529   2.154  13.418 -0.5121 -0.6625 -1.8515
17026TIP3   OH272568   2.535   6.352   0.539 -0.4455  0.2321 -0.5834
17026TIP3    H172569   2.448   6.385   0.564 -1.4941 -0.7626 -2.6950
17026TIP3    H272570   2.530   6.258   0.554  0.4857  0.2246 -0.2323
17027TIP3   OH272571   6.132   0.804   1.751  0.1065 -0.0592  0.1235
17027TIP3    H172572   6.179   0.757   1.819  0.1671 -0.8845 -0.4743
17027TIP3    H272573   6.200   0.829   1.688  0.0459  0.6648  0.3365
17028TIP3   OH272574   2.789   5.390  14.427 -0.0516 -0.0184 -0.0589
17028TIP3    H172575   2.702   5.418  14.399  0.4951  0.5424 -1.2649
17028TIP3    H272576   2.824   5.465  14.475  0.5751  0.6101 -1.4345
17029TIP3   OH272577   0.507   1.140  12.598  0.4936  0.1214  0.1930
17029TIP3    H172578   0.554   1.158  12.517 -0.1007  0.7172 -0.0250
17029TIP3    H272579   0.574   1.140  12.666  1.2777 -2.0167 -0.4803
17030TIP3   OH272580   2.123   2.545   6.051 -0.6068 -0.3071  0.2108
17030TIP3    H172581   2.174   2.619   6.018 -0.9089 -0.7313 -1.2753
17030TIP3    H272582   2.123   2.557   6.146  1.3497  0.2856  0.1915
17031TIP3   OH272583   3.981   1.624  10.916 -0.8712 -0.0870 -0.5374
17031TIP3    H172584   3.919   1.693  10.892 -0.2247 -0.1204 -2.4976
17031TIP3    H272585   4.050   1.670  10.964 -1.6366  0.1978  0.3167
17032TIP3   OH272586   6.363   1.150  16.926 -0.3294 -0.7529 -0.0908
17032TIP3    H172587   6.352   1.190  17.012 -0.8229 -0.9422 -0.0626
17032TIP3    H272588   6.281   1.104  16.910  0.0416 -1.3470 -0.3390
17033TIP3   OH272589   1.617   2.454  16.290 -0.2020 -0.9919 -0.1207
17033TIP3    H172590   1.594   2.522  16.353  1.0550  0.5670 -1.2756
17033TIP3    H272591   1.571   2.376  16.322 -1.8914  0.4189  1.1230
17034TIP3   OH272592   3.652   1.565  12.498  0.0800 -0.4077 -0.3457
17034TIP3    H172593   3.706   1.624  12.445  2.3855 -1.6944  0.4539
17034TIP3    H272594   3.710   1.493  12.522 -2.0116 -1.8989  0.5996
17035TIP3   OH272595   4.610   4.875   5.385 -0.3801  0.0509 -0.2148
17035TIP3    H172596   4.518   4.888   5.411 -0.5247 -0.4000 -0.5052
17035TIP3    H272597   4.658   4.937   5.440 -0.8677  0.3784 -0.1431
17036TIP3   OH272598   3.163   0.644  16.567 -0.1475  0.5464  0.5246
17036TIP3    H172599   3.091   0.706  16.570  0.9300  1.8977 -0.5668
17036TIP3    H272600   3.177   0.627  16.474  0.7612  0.0809  0.7311
17037TIP3   OH272601   4.925   3.983   5.316 -0.4371 -0.0471 -0.4265
17037TIP3    H172602   4.989   3.966   5.246  1.5636 -1.0146  1.5031
17037TIP3    H272603   4.972   4.040   5.377 -1.3088 -0.9651  1.1756
17038TIP3   OH272604   5.485   0.865   6.533  0.2029  0.1229  0.7485
17038TIP3    H172605   5.445   0.928   6.473  1.4919 -1.4520 -1.9233
17038TIP3    H272606   5.568   0.905   6.559  2.0027 -1.0838 -2.5427
17039TIP3   OH272607   2.875   4.628  15.504  0.2991 -0.3863  0.5272
17039TIP3    H172608   2.898   4.682  15.429 -1.4499 -1.4672 -0.8454
17039TIP3    H272609   2.872   4.690  15.577 -1.7455  1.4893 -1.0033
17040TIP3   OH272610   4.011   0.373  11.184  0.0074  0.1236  0.2447
17040TIP3    H172611   4.095   0.343  11.150 -0.3988  1.5771 -2.2561
17040TIP3    H272612   3.946   0.329  11.129 -0.9591 -1.0961  2.2400
17041TIP3   OH272613   0.363   0.352  14.545  0.0814 -0.6573 -0.7310
17041TIP3    H172614   0.288   0.352  14.604 -0.1516 -0.2727 -1.0230
17041TIP3    H272615   0.432   0.306  14.593 -0.2891 -0.8666 -0.3973
17042TIP3   OH272616   5.880   4.304  12.231  0.0445  0.1294 -0.3897
17042TIP3    H172617   5.900   4.295  12.324  0.5069 -0.1787 -0.5122
17042TIP3    H272618   5.835   4.388  12.224 -1.1978 -0.4565  0.3009
17043TIP3   OH272619   4.251   5.301   3.770  0.5353 -0.0519 -0.6308
17043TIP3    H172620   4.300   5.272   3.847  1.8330 -0.6752 -1.6600
17043TIP3    H272621   4.318   5.322   3.705 -0.5415  0.1714 -1.7104
17044TIP3   OH272622   0.296   1.351  16.943 -0.7657  0.4072 -0.0658
17044TIP3    H172623   0.330   1.440  16.940 -0.7879  0.3919 -1.2216
17044TIP3    H272624   0.248   1.341  16.861 -0.2021 -0.8928 -0.2601
17045TIP3   OH272625   3.596   5.670   1.386  0.1497  0.4528 -0.5263
17045TIP3    H172626   3.680   5.686   1.430  0.4331 -0.6733 -0.6371
17045TIP3    H272627   3.601   5.580   1.355 -0.1469  1.1107 -2.6654
17046TIP3   OH272628   2.864   5.456   2.917  0.5303  0.3829 -0.0542
17046TIP3    H172629   2.931   5.479   2.853  0.9069  3.3801  1.2815
17046TIP3    H272630   2.813   5.536   2.930 -0.9172 -0.7355  1.7952
17047TIP3   OH272631   3.331   3.834   5.981 -0.3450 -0.5871  0.2678
17047TIP3    H172632   3.375   3.750   5.987 -0.3151 -0.5547  0.5006
17047TIP3    H272633   3.359   3.870   5.896  0.3809 -0.3953  0.5838
17048TIP3   OH272634   4.980   0.081  13.204  0.4269 -0.4693  0.5388
17048TIP3    H172635   4.894   0.111  13.177  0.9813  0.2155 -0.5601
17048TIP3    H272636   4.963   0.010  13.266 -0.9092  0.1683  0.9247
17049TIP3   OH272637   6.691   4.230   6.260  0.0148 -0.5036  0.4083
17049TIP3    H172638   6.764   4.177   6.291  1.1534  1.2197  0.8320
17049TIP3    H272639   6.729   4.288   6.194  0.2842  3.7110  3.8297
17050TIP3   OH272640   5.827   1.018   3.463 -0.3287 -0.2260 -0.6214
17050TIP3    H172641   5.869   0.932   3.468  0.1123  0.0478  1.2807
17050TIP3    H272642   5.754   1.014   3.525  1.6163  1.6719  2.0819
17051TIP3   OH272643   1.291   0.556  12.580 -0.2993 -0.3046  0.3437
17051TIP3    H172644   1.342   0.636  12.590 -0.2924 -0.4114  1.2284
17051TIP3    H272645   1.201   0.583  12.597 -0.5094 -0.1788 -0.9083
17052TIP3   OH272646   3.023   4.400  14.286 -0.2068  0.3941 -0.0779
17052TIP3    H172647   2.993   4.440  14.205 -1.9430 -2.1732 -0.7962
17052TIP3    H272648   2.949   4.406  14.346  0.6373  1.1318  0.9524
17053TIP3   OH272649   4.632   5.764   3.743 -0.5346  0.2276 -0.3154
17053TIP3    H172650   4.600   5.715   3.667  2.1418 -0.5134 -1.0462
17053TIP3    H272651   4.714   5.804   3.713 -0.3644  1.4773  1.6468
17054TIP3   OH272652   5.988   3.630   2.634 -0.3903 -0.0944  0.1472
17054TIP3    H172653   6.072   3.677   2.628 -0.3806  0.3828  2.6968
17054TIP3    H272654   5.922   3.698   2.625 -0.4458 -0.0996  0.5013
17055TIP3   OH272655   1.815   6.811   4.899  0.0238 -0.3480  0.8791
17055TIP3    H172656   1.885   6.777   4.954 -1.4713 -3.3812  1.1700
17055TIP3    H272657   1.836   6.780   4.811  0.0501  0.4259  0.6114
17056TIP3   OH272658   4.371   3.111  11.319 -0.5795  0.2834 -0.1845
17056TIP3    H172659   4.338   3.075  11.402 -1.3353  1.0147 -0.1536
17056TIP3    H272660   4.459   3.075  11.311 -1.2753 -1.5119 -0.1293
17057TIP3   OH272661   4.628   0.346   5.079 -0.5493 -0.1176  0.5804
17057TIP3    H172662   4.680   0.424   5.060 -1.6806  0.5779  0.2423
17057TIP3    H272663   4.664   0.313   5.162  0.6891  0.0874  0.1405
17058TIP3   OH272664   5.215   3.540   1.606 -0.5932  0.3508  0.1160
17058TIP3    H172665   5.204   3.632   1.632 -0.9662 -0.0198  1.3533
17058TIP3    H272666   5.148   3.493   1.656 -1.4456 -0.4266 -1.6541
17059TIP3   OH272667   6.820   6.786  15.899  0.5820 -0.6596  0.1147
17059TIP3    H172668   6.735   6.748  15.877  1.1084 -2.6990  1.3740
17059TIP3    H272669   6.818   6.795  15.994  0.9511  1.4893 -0.0162
17060TIP3   OH272670   1.704   5.431   0.194  0.0682  0.3374  0.3504
17060TIP3    H172671   1.711   5.525   0.210  0.2397  0.4162 -0.1674
17060TIP3    H272672   1.762   5.392   0.260  0.4408  0.6293  0.2020
17061TIP3   OH272673   5.491   6.504   5.731 -0.3327 -0.1284  0.1010
17061TIP3    H172674   5.572   6.509   5.679  0.1290 -0.8955  0.7179
17061TIP3    H272675   5.474   6.594   5.759 -1.0765  0.4568 -2.0777
17062TIP3   OH272676   0.499   2.473   2.655 -0.3748 -0.2341 -0.0690
17062TIP3    H172677   0.463   2.491   2.568  1.6826  0.0276 -0.9318
17062TIP3    H272678   0.425   2.438   2.705 -2.2873  2.0780 -1.0841
17063TIP3   OH272679   2.023   1.114  16.693  0.0757 -0.3584 -0.4800
17063TIP3    H172680   1.946   1.106  16.636  0.2422  0.1370 -0.7754
17063TIP3    H272681   2.028   1.207  16.715 -1.1972 -0.7995  2.0462
17064TIP3   OH272682   5.051   5.019  17.062 -0.4549  0.1261  0.2251
17064TIP3    H172683   5.121   5.012  16.998  0.5552 -1.5453  1.4507
17064TIP3    H272684   4.972   4.992  17.015 -0.1727  1.1881 -0.9174
17065TIP3   OH272685   2.303   3.324   0.468  0.4311 -0.6129 -0.0694
17065TIP3    H172686   2.284   3.411   0.503 -0.3836 -0.2942 -1.2150
17065TIP3    H272687   2.364   3.285   0.530  1.4018  1.0663  0.0760
17066TIP3   OH272688   2.999   4.403   0.077  0.1961  0.9020  0.0449
17066TIP3    H172689   2.983   4.475   0.138 -0.7076  0.8705 -0.1448
17066TIP3    H272690   3.059   4.439   0.012 -0.3421  1.5224 -0.1173
17067TIP3   OH272691   1.177   1.205  14.664  0.4398  0.0018 -0.8742
17067TIP3    H172692   1.130   1.229  14.584  1.5715  2.3911 -0.8983
17067TIP3    H272693   1.184   1.286  14.714  0.5748 -1.2538  1.2406
17068TIP3   OH272694   4.529   4.120  14.412 -0.1124  0.3447  0.6374
17068TIP3    H172695   4.477   4.154  14.485  1.4626  0.6056  1.6989
17068TIP3    H272696   4.489   4.157  14.334 -2.1314 -0.3068  1.3064
17069TIP3   OH272697   4.640   3.901   2.177  0.4551 -0.2388 -0.1069
17069TIP3    H172698   4.599   3.814   2.184  0.7095 -0.2734  1.0100
17069TIP3    H272699   4.568   3.959   2.153 -0.0283 -0.5002  0.6723
17070TIP3   OH272700   4.578   5.144   6.281 -0.2538  0.9927 -0.2831
17070TIP3    H172701   4.626   5.222   6.309 -0.3601  1.2933 -0.9314
17070TIP3    H272702   4.514   5.176   6.218  0.3109  0.2579 -1.2535
17071TIP3   OH272703   6.545   2.086   2.075  0.2230  0.0993 -0.2237
17071TIP3    H172704   6.567   2.179   2.081 -1.4106  0.5056 -0.0399
17071TIP3    H272705   6.540   2.057   2.166 -0.5262  0.1590 -0.2429
17072TIP3   OH272706   5.935   0.033  12.505 -0.3788  0.4965 -0.5753
17072TIP3    H172707   6.005   0.096  12.524 -0.3164  0.1258  0.5190
17072TIP3    H272708   5.967  -0.050  12.542 -0.8195  0.0106 -1.2591
17073TIP3   OH272709   1.851   4.303   5.619  0.6501 -0.3208 -0.1395
17073TIP3    H172710   1.794   4.228   5.636  0.2635  0.3203  1.6862
17073TIP3    H272711   1.793   4.379   5.625  0.8540  0.1338 -2.8747
17074TIP3   OH272712   3.029   6.579  11.188 -0.6250 -0.1710 -0.7979
17074TIP3    H172713   3.058   6.561  11.098 -0.0991  1.1667 -0.9164
17074TIP3    H272714   3.102   6.550  11.243  0.0398  1.0985 -0.9639
17075TIP3   OH272715   1.320   0.203   1.600 -0.3134  0.1253  0.3029
17075TIP3    H172716   1.251   0.229   1.662 -0.0960 -0.6255  0.8717
17075TIP3    H272717   1.379   0.278   1.598 -0.1078  0.0003  1.3233
17076TIP3   OH272718   2.681   3.888  16.266  0.7591 -0.3176  0.4753
17076TIP3    H172719   2.587   3.895  16.252  0.9171  1.4356  0.0360
17076TIP3    H272720   2.699   3.950  16.337  1.6789 -0.0032 -0.0179
17077TIP3   OH272721   6.017   2.313  16.281 -0.6421  0.2575 -0.3006
17077TIP3    H172722   6.106   2.348  16.295 -0.1519 -0.5719 -1.2320
17077TIP3    H272723   5.989   2.352  16.198 -0.8370 -0.0818 -0.3952
17078TIP3   OH272724   4.553   4.500   3.660 -0.0006 -0.4610  0.3650
17078TIP3    H172725   4.478   4.546   3.697 -0.2126 -0.0631 -0.5517
17078TIP3    H272726   4.628   4.535   3.709 -0.0707  1.4215 -0.7680
17079TIP3   OH272727   5.905   4.569   4.227  0.0806 -0.1048  0.3070
17079TIP3    H172728   5.909   4.474   4.239 -0.6867 -0.4210 -1.6689
17079TIP3    H272729   5.859   4.581   4.144  1.1888  1.9865 -0.0547
17080TIP3   OH272730   1.258   3.094   4.353  0.2600 -0.5036  0.4711
17080TIP3    H172731   1.297   3.090   4.440 -2.1453 -1.2758  1.6072
17080TIP3    H272732   1.251   3.188   4.334 -1.7775 -0.1902  2.4296
17081TIP3   OH272733   4.552   0.225  12.802  0.7288  0.1530 -0.5069
17081TIP3    H172734   4.483   0.263  12.857  0.4799  1.0160 -1.3802
17081TIP3    H272735   4.559   0.285  12.728  1.9417 -0.3019 -0.7844
17082TIP3   OH272736   0.563   3.913   4.649 -0.1488 -0.4990 -0.7309
17082TIP3    H172737   0.585   3.943   4.737 -1.6251  0.2881 -0.6017
17082TIP3    H272738   0.648   3.898   4.607  0.5831 -0.0762  0.5410
17083TIP3   OH272739   2.863   0.067   0.345  0.2555 -0.3465  0.0485
17083TIP3    H172740   2.865  -0.024   0.374  0.3532 -0.3963 -0.1168
17083TIP3    H272741   2.795   0.069   0.277  0.2143 -0.2841  0.0909
17084TIP3   OH272742   5.968   3.489   5.215 -0.2208 -0.2542  0.7438
17084TIP3    H172743   5.945   3.439   5.294  0.1771  0.0785  1.0755
17084TIP3    H272744   6.022   3.428   5.164 -1.2210 -0.7876  0.2931
17085TIP3   OH272745   3.858   5.337   6.440 -0.4012 -0.1299  0.3167
17085TIP3    H172746   3.857   5.431   6.423 -2.5524 -0.3027 -0.9376
17085TIP3    H272747   3.882   5.298   6.356 -1.6528 -0.7317  0.2098
17086TIP3   OH272748   5.887   4.542  11.102  0.2923 -0.7344  0.1038
17086TIP3    H172749   5.865   4.547  11.009  0.2511 -0.4333  0.1275
17086TIP3    H272750   5.887   4.448  11.122 -0.2150 -0.7785 -0.0780
17087TIP3   OH272751   1.589   5.037   2.608 -0.5656 -0.0919 -0.0634
17087TIP3    H172752   1.585   4.996   2.695 -1.2881 -3.2527 -1.4370
17087TIP3    H272753   1.678   5.072   2.603  1.1192 -3.8091  0.4312
17088TIP3   OH272754   3.900   3.432  15.828  0.7300  0.8078 -0.6780
17088TIP3    H172755   3.879   3.375  15.902  1.4713 -0.8026 -1.6677
17088TIP3    H272756   3.815   3.451  15.788  0.3004  1.8312  0.6296
17089TIP3   OH272757   4.942   1.417  13.796  0.1467 -0.1471 -0.3822
17089TIP3    H172758   4.934   1.322  13.808  0.4382 -0.0739  0.4713
17089TIP3    H272759   5.006   1.444  13.862  0.6096  0.5497 -1.0954
17090TIP3   OH272760   1.302   6.331  16.535 -0.2380 -0.3468 -0.0846
17090TIP3    H172761   1.268   6.317  16.623  0.6506  0.5929  0.4402
17090TIP3    H272762   1.310   6.244  16.498 -1.6937 -0.6835  0.3333
17091TIP3   OH272763   6.097   2.528   5.651  0.7752 -0.0826  0.3182
17091TIP3    H172764   6.069   2.570   5.570 -0.6775 -0.9373  0.3369
17091TIP3    H272765   6.125   2.601   5.707  1.9029  0.5099 -0.9513
17092TIP3   OH272766   1.130   6.715   3.323 -0.3243  0.5195 -0.0574
17092TIP3    H172767   1.187   6.677   3.390 -1.2112  0.4299  0.6792
17092TIP3    H272768   1.065   6.647   3.306 -0.4980  0.7974 -0.5284
17093TIP3   OH272769   6.710   5.599   3.184  0.2127  0.1689 -0.5455
17093TIP3    H172770   6.786   5.627   3.134  0.3033  2.0167  0.5510
17093TIP3    H272771   6.743   5.527   3.238  1.5218  1.6384  0.7082
17094TIP3   OH272772   3.473   0.361  11.632  0.2084  0.8610 -0.4743
17094TIP3    H172773   3.478   0.454  11.611  0.4351  0.4190 -2.6111
17094TIP3    H272774   3.415   0.325  11.564 -0.0659 -0.5256  0.4596
17095TIP3   OH272775   4.338   5.662   3.702  0.2806  0.1387  0.3300
17095TIP3    H172776   4.268   5.614   3.657  0.7280 -0.6253  0.4425
17095TIP3    H272777   4.405   5.596   3.720  1.6578  1.1128 -1.0131
17096TIP3   OH272778   6.565   1.955   0.438  0.2844  0.1386 -0.2543
17096TIP3    H172779   6.482   1.926   0.400  0.7666  0.5964 -1.7105
17096TIP3    H272780   6.599   1.877   0.483  0.0329 -0.6701 -1.4083
17097TIP3   OH272781   4.121   4.947   3.874  0.7648 -0.2745  0.5293
17097TIP3    H172782   4.075   4.882   3.820  1.0787 -0.8062  0.8912
17097TIP3    H272783   4.193   4.976   3.819  0.4261  0.0188  0.2373
17098TIP3   OH272784   2.112   4.979  11.457 -0.0443  0.1935 -0.2312
17098TIP3    H172785   2.078   4.892  11.478  3.7460 -1.4562  0.0403
17098TIP3    H272786   2.080   4.997  11.369 -1.6999 -1.0288  0.0759
17099TIP3   OH272787   0.139   1.579  17.181  0.0355  0.1679  0.2023
17099TIP3    H172788   0.167   1.498  17.222 -1.3440  0.1000  1.0488
17099TIP3    H272789   0.052   1.560  17.145 -0.0869  1.1200 -0.0467
17100TIP3   OH272790   4.304   4.511  10.316  0.1853 -0.3258  0.4677
17100TIP3    H172791   4.253   4.465  10.249  0.8972  0.6494 -0.7919
17100TIP3    H272792   4.305   4.602  10.286  0.2629  0.1904  1.9833
17101TIP3   OH272793   1.201   1.787   4.697  0.0424 -0.7724 -0.0806
17101TIP3    H172794   1.179   1.859   4.638 -0.1883 -0.9641 -0.2253
17101TIP3    H272795   1.177   1.708   4.650  1.1030 -0.9896 -0.2639
17102TIP3   OH272796   1.220   4.818   3.751  0.1509  0.8647 -0.1360
17102TIP3    H172797   1.136   4.788   3.785 -0.8604  1.6171 -1.8664
17102TIP3    H272798   1.210   4.913   3.740  1.4325  1.0589  0.1635
17103TIP3   OH272799   2.353   0.223   0.521 -0.4498 -0.0394  0.4106
17103TIP3    H172800   2.416   0.263   0.582  0.4909  0.4427 -0.8284
17103TIP3    H272801   2.302   0.297   0.488 -0.1081 -0.1111 -0.3096
17104TIP3   OH272802   5.874   5.031  10.831  0.7015  0.2845  0.7662
17104TIP3    H172803   5.899   5.120  10.804 -1.8915  0.3234 -2.0050
17104TIP3    H272804   5.895   4.977  10.755 -2.7529 -0.4298  0.1496
17105TIP3   OH272805   1.407   5.849   2.143 -0.4384  0.4128 -0.1314
17105TIP3    H172806   1.428   5.933   2.183 -0.3857 -0.0284  0.7983
17105TIP3    H272807   1.379   5.870   2.054  1.1705  1.2776 -0.4687
17106TIP3   OH272808   3.188   2.403  11.249  0.0492 -0.3427  0.1728
17106TIP3    H172809   3.110   2.458  11.245 -0.9598 -1.7037  0.4617
17106TIP3    H272810   3.255   2.459  11.287 -0.8373  0.7837  0.1339
17107TIP3   OH272811   1.915   4.011  14.902  0.2294  0.0873 -0.5157
17107TIP3    H172812   1.867   3.995  14.984 -0.2482  0.7567 -0.6567
17107TIP3    H272813   1.848   4.009  14.834  0.7698 -1.5217 -1.0395
17108TIP3   OH272814   6.060   4.825  11.575  0.2450 -0.0322  0.0273
17108TIP3    H172815   6.134   4.780  11.615  0.1569 -0.6150 -0.4602
17108TIP3    H272816   6.100   4.884  11.511  0.3257  0.1824  0.2714
17109TIP3   OH272817   3.646   1.841  15.948 -0.5082  0.0121 -0.1465
17109TIP3    H172818   3.632   1.930  15.915  0.2360  0.5904  1.0204
17109TIP3    H272819   3.727   1.812  15.908 -0.3591  0.1573  0.0461
17110TIP3   OH272820   3.512   1.957   4.103  0.1734 -0.5857 -0.2081
17110TIP3    H172821   3.532   1.870   4.066 -1.3479  0.1379 -3.0347
17110TIP3    H272822   3.597   1.989   4.134  0.8429 -2.8938  0.5492
17111TIP3   OH272823   5.425   6.539   0.900 -0.1303  0.2788  0.2864
17111TIP3    H172824   5.493   6.584   0.849  0.8048  0.0936  1.3350
17111TIP3    H272825   5.393   6.470   0.842  2.3757 -1.2911  0.6330
17112TIP3   OH272826   4.282   0.709   4.165 -0.1396 -0.3785  0.0010
17112TIP3    H172827   4.298   0.622   4.129  0.5111 -0.0261 -0.6141
17112TIP3    H272828   4.349   0.764   4.123 -1.4277  0.6991 -0.7379
17113TIP3   OH272829   5.170   0.628   0.931 -0.2701 -0.2691 -0.3303
17113TIP3    H172830   5.164   0.639   0.836 -0.9679 -0.0458 -0.2689
17113TIP3    H272831   5.249   0.675   0.957  0.4879 -1.1912 -0.9263
17114TIP3   OH272832   1.452   2.709  14.951  0.0001  0.2475  0.1997
17114TIP3    H172833   1.536   2.696  14.995  0.2286  0.6048 -0.1204
17114TIP3    H272834   1.391   2.653  14.998  0.6509 -0.8811 -0.2650
17115TIP3   OH272835   6.065   4.366   3.014 -0.1943 -0.0282  0.7602
17115TIP3    H172836   6.093   4.399   2.928 -0.8823 -1.6537 -0.1378
17115TIP3    H272837   6.146   4.363   3.065  0.4684 -0.2536 -0.2577
17116TIP3   OH272838   4.642   5.044   0.389  0.0533  0.3824 -0.2121
17116TIP3    H172839   4.675   4.999   0.467 -1.3066 -0.3562 -0.0170
17116TIP3    H272840   4.655   4.981   0.318  0.1796  0.5669 -0.3508
17117TIP3   OH272841   1.782   5.870  10.737  0.5123  0.6343 -0.0441
17117TIP3    H172842   1.702   5.892  10.689  0.2826 -0.1510 -0.0284
17117TIP3    H272843   1.831   5.952  10.740 -1.5638  1.9596  2.4283
17118TIP3   OH272844   5.743   6.029   5.400 -0.4057  0.0692 -0.0263
17118TIP3    H172845   5.655   6.058   5.424 -0.2585  1.6827 -1.2118
17118TIP3    H272846   5.756   5.947   5.447 -1.4960  1.1696  2.3374
17119TIP3   OH272847   3.176   5.157  14.203  0.1040 -0.0351  0.5489
17119TIP3    H172848   3.236   5.222  14.168  0.1182  0.6441  1.7687
17119TIP3    H272849   3.222   5.074  14.194  1.6798  0.5606  2.2782
17120TIP3   OH272850   6.526   2.703   4.683 -0.0932 -0.0005 -0.2186
17120TIP3    H172851   6.590   2.668   4.745 -1.5589 -0.9381  0.8299
17120TIP3    H272852   6.468   2.757   4.736 -1.2512 -0.6408 -0.7914
17121TIP3   OH272853   5.921   2.440  14.068  0.1325 -0.1257 -0.6069
17121TIP3    H172854   5.954   2.386  13.996  2.0627  1.4963 -1.0191
17121TIP3    H272855   5.993   2.442  14.131 -1.2794 -0.9948  1.1421
17122TIP3   OH272856   0.003   1.325  13.430 -0.2535  0.6692  0.4841
17122TIP3    H172857   0.087   1.300  13.468 -1.0173  0.3933  2.0663
17122TIP3    H272858   0.023   1.399  13.374  1.0249  0.7126  0.9747
17123TIP3   OH272859   6.114   3.147   2.451  0.1010 -0.3620  0.7003
17123TIP3    H172860   6.125   3.169   2.358 -2.6200  0.9449  0.5816
17123TIP3    H272861   6.140   3.226   2.497  1.2528 -0.9432  1.0900
17124TIP3   OH272862   0.226   5.071   1.998 -0.2875  0.4549 -0.2278
17124TIP3    H172863   0.226   4.978   2.020 -1.1324  0.4326 -0.3071
17124TIP3    H272864   0.242   5.115   2.082 -0.0464  0.2528 -0.1637
17125TIP3   OH272865   6.742   3.797  15.761  0.0881  0.2584 -0.2868
17125TIP3    H172866   6.794   3.792  15.841  0.3227 -0.4337 -0.4798
17125TIP3    H272867   6.807   3.805  15.691  0.0772 -2.5021 -0.7114
17126TIP3   OH272868   5.133   5.759   6.841  0.0783  0.3397  0.0816
17126TIP3    H172869   5.172   5.689   6.894  0.5603  0.3877 -0.2109
17126TIP3    H272870   5.047   5.724   6.817 -0.2649  0.4315  1.1281
17127TIP3   OH272871   3.237   1.466  13.204 -0.6574  0.4173  0.1958
17127TIP3    H172872   3.310   1.527  13.194 -0.9421  0.6937 -0.2815
17127TIP3    H272873   3.165   1.521  13.236 -1.1020  0.4768 -0.8672
17128TIP3   OH272874   5.605   2.564   0.819  0.0346  0.1713 -0.2091
17128TIP3    H172875   5.595   2.469   0.812  0.5260 -0.0738  1.6829
17128TIP3    H272876   5.595   2.596   0.730 -0.3738 -1.6316 -0.8601
17129TIP3   OH272877   0.607   2.463  16.827 -0.2533  0.0850  0.5635
17129TIP3    H172878   0.698   2.437  16.843  0.5195  2.4193  0.3723
17129TIP3    H272879   0.604   2.483  16.733 -1.6441 -2.1765  0.0332
17130TIP3   OH272880   1.818   0.428  14.840  0.3556 -0.4751 -0.5776
17130TIP3    H172881   1.894   0.399  14.789 -0.1642 -2.7156 -0.1581
17130TIP3    H272882   1.742   0.394  14.792 -0.2886 -0.0525  0.1105
17131TIP3   OH272883   0.814   6.262  16.665  0.3659  0.1709 -0.1072
17131TIP3    H172884   0.743   6.227  16.611 -0.0993  0.7120  0.1476
17131TIP3    H272885   0.860   6.184  16.697  0.0383 -0.1796 -0.4714
17132TIP3   OH272886   6.191   6.140  13.607 -1.2090 -0.1725 -0.1110
17132TIP3    H172887   6.155   6.145  13.518 -0.6705 -1.3840 -0.4256
17132TIP3    H272888   6.280   6.172  13.600 -1.4528  0.5872  0.1868
17133TIP3   OH272889   6.688   5.149   1.032 -0.5106 -0.5570 -0.4479
17133TIP3    H172890   6.735   5.176   0.954 -1.9509  0.8893 -0.8613
17133TIP3    H272891   6.697   5.222   1.093 -2.0536 -0.3089 -0.4818
17134TIP3   OH272892   6.576   5.749   4.179  0.4541  0.2372 -0.0623
17134TIP3    H172893   6.527   5.725   4.257 -1.2257  0.4880 -1.0025
17134TIP3    H272894   6.625   5.670   4.157  0.5737  0.0083  0.9439
17135TIP3   OH272895   5.068   6.484   1.570 -0.4736 -0.6213  0.4709
17135TIP3    H172896   5.014   6.513   1.497 -0.4937  1.4323  1.2301
17135TIP3    H272897   5.153   6.463   1.530 -0.4193  0.6802 -0.1393
17136TIP3   OH272898   1.416   1.545  14.868 -0.1606 -0.0579  0.3227
17136TIP3    H172899   1.337   1.598  14.858 -1.8822 -2.7020 -1.2728
17136TIP3    H272900   1.462   1.585  14.942 -2.9966  1.5957  1.3562
17137TIP3   OH272901   0.032   3.263   5.419  0.4539  0.0043 -0.0862
17137TIP3    H172902   0.113   3.276   5.469  1.4044 -1.2820 -1.2540
17137TIP3    H272903   0.045   3.313   5.339 -0.1635  0.2535 -0.0377
17138TIP3   OH272904   5.169   6.631   0.749 -0.0025  0.7446 -0.4691
17138TIP3    H172905   5.234   6.700   0.762 -1.3552  1.6428  2.0126
17138TIP3    H272906   5.216   6.550   0.769  0.8533  1.1889 -0.6211
17139TIP3   OH272907   2.433   2.609   4.382 -0.1107  0.2316 -0.8246
17139TIP3    H172908   2.514   2.588   4.428 -0.2501 -2.4905 -1.6591
17139TIP3    H272909   2.367   2.554   4.425 -1.1132  0.9253 -1.4474
17140TIP3   OH272910   4.364   2.609  10.743 -0.0649  0.2374 -0.0486
17140TIP3    H172911   4.417   2.601  10.664  1.2513  0.9713  0.7177
17140TIP3    H272912   4.298   2.540  10.736  0.8711 -0.5699 -1.1285
17141TIP3   OH272913   0.665   1.355   0.832  0.9033 -0.3652  0.4823
17141TIP3    H172914   0.573   1.348   0.808  0.6474  3.0844 -0.0839
17141TIP3    H272915   0.693   1.265   0.847 -1.9832 -1.7182 -1.3660
17142TIP3   OH272916   3.240   0.106  13.127  0.4312  0.0869 -0.2049
17142TIP3    H172917   3.174   0.174  13.129  0.6731  0.3036  0.4809
17142TIP3    H272918   3.235   0.064  13.213  0.8786 -0.1863 -0.3076
17143TIP3   OH272919   2.244   0.438   4.500  0.9771 -0.0462  0.4885
17143TIP3    H172920   2.333   0.467   4.482  1.2024 -0.6521  0.6206
17143TIP3    H272921   2.192   0.469   4.426  1.1777  0.8427  0.7041
17144TIP3   OH272922   1.414   4.972  11.751  0.1122 -0.6707  0.3374
17144TIP3    H172923   1.336   5.001  11.703  0.0916 -0.9966  0.1738
17144TIP3    H272924   1.471   5.049  11.752 -0.1582 -0.4664  0.3512
17145TIP3   OH272925   1.446   0.276   2.133 -0.3020 -0.4209  0.0399
17145TIP3    H172926   1.370   0.219   2.133 -1.0494  0.4839  1.8195
17145TIP3    H272927   1.437   0.329   2.054 -1.4326 -0.4673  0.1188
17146TIP3   OH272928   2.520   3.638  12.682  0.0007  0.4854 -0.1544
17146TIP3    H172929   2.510   3.724  12.722 -0.7229  0.1429  0.4221
17146TIP3    H272930   2.508   3.576  12.755 -0.5529 -0.1333 -0.7574
17147TIP3   OH272931   6.659   2.716  11.360  0.1529  0.2216  0.2889
17147TIP3    H172932   6.649   2.706  11.265 -0.3853 -0.8154  0.4333
17147TIP3    H272933   6.753   2.708  11.376  0.4299  1.9756 -0.3037
17148TIP3   OH272934   5.237   3.992   2.792  0.0052 -0.3122  0.7861
17148TIP3    H172935   5.157   3.939   2.798  0.3698 -1.1311 -1.0257
17148TIP3    H272936   5.213   4.063   2.732  0.6487 -0.5854  0.2038
17149TIP3   OH272937   6.396   5.885   0.978 -0.2810 -0.4752 -0.1887
17149TIP3    H172938   6.474   5.923   0.937  0.4409 -2.6354 -1.0017
17149TIP3    H272939   6.382   5.938   1.056  1.2437  0.7694 -0.6954
17150TIP3   OH272940   3.258   2.802   0.980 -0.2453 -0.5541  0.3170
17150TIP3    H172941   3.214   2.742   1.040 -0.2208 -0.0617  0.8399
17150TIP3    H272942   3.256   2.757   0.895 -1.4967 -0.6728  0.3838
17151TIP3   OH272943   5.661   6.469   6.341 -0.0803 -0.1131 -0.3676
17151TIP3    H172944   5.677   6.381   6.307  0.5654  0.1032 -0.6339
17151TIP3    H272945   5.633   6.455   6.432  1.4959 -0.5332  0.0876
17152TIP3   OH272946   4.784   4.373  12.176  0.4163  0.7028  0.2268
17152TIP3    H172947   4.799   4.468  12.177  1.5958  0.5417 -0.4360
17152TIP3    H272948   4.821   4.344  12.092 -1.1073 -0.1721 -0.1669
17153TIP3   OH272949   3.744   4.660   6.632 -0.0937 -0.5753 -0.1366
17153TIP3    H172950   3.695   4.608   6.568 -1.7514  0.1551  0.4712
17153TIP3    H272951   3.764   4.599   6.702 -2.7273 -0.3268  0.9475
17154TIP3   OH272952   5.490   6.241   4.477  0.5450  0.3845  0.0129
17154TIP3    H172953   5.475   6.152   4.445 -1.6108  0.8085 -0.3122
17154TIP3    H272954   5.426   6.252   4.548 -0.9440  2.4290 -1.5455
17155TIP3   OH272955   2.875   3.703   3.469 -0.2719  0.2075  0.1693
17155TIP3    H172956   2.885   3.785   3.422 -0.9398  0.1354 -0.1097
17155TIP3    H272957   2.791   3.711   3.514  0.3122  0.2412  1.2878
17156TIP3   OH272958   2.590   1.726  13.686  0.5102 -0.1616  0.6761
17156TIP3    H172959   2.585   1.763  13.598 -1.5116 -1.6413  0.0988
17156TIP3    H272960   2.558   1.796  13.743  0.2543  0.2472  0.0434
17157TIP3   OH272961   4.247   1.358  14.246 -0.6830  0.1952 -0.5865
17157TIP3    H172962   4.250   1.441  14.293 -3.5606  1.4537 -2.3532
17157TIP3    H272963   4.257   1.291  14.314  1.0321  1.9309  0.9671
17158TIP3   OH272964   2.629   3.643  17.070 -0.0847  0.2481 -0.0393
17158TIP3    H172965   2.627   3.690  16.987 -2.1058  1.2072  0.4784
17158TIP3    H272966   2.563   3.575  17.061  0.4181 -0.3144  0.4266
17159TIP3   OH272967   2.451   6.606  15.322  0.2687  0.0427  0.2001
17159TIP3    H172968   2.510   6.573  15.390 -1.9926 -2.9065  0.9371
17159TIP3    H272969   2.381   6.651  15.370 -0.0380  0.2028 -0.3769
17160TIP3   OH272970   6.046   4.487   1.516 -0.1369  0.0426  0.8039
17160TIP3    H172971   6.114   4.442   1.465  0.9677 -0.7205  2.8191
17160TIP3    H272972   6.015   4.557   1.459  0.3050 -1.3659 -1.2695
17161TIP3   OH272973   1.334   3.982  16.536  0.0293 -0.1967  0.2297
17161TIP3    H172974   1.327   3.897  16.492  0.4301  0.4074 -1.0687
17161TIP3    H272975   1.357   4.043  16.466  0.2363  0.9025  1.2210
17162TIP3   OH272976   0.218   2.711  17.037  0.1755  0.5993 -0.0390
17162TIP3    H172977   0.195   2.762  16.960  0.2160  1.0794  0.2675
17162TIP3    H272978   0.222   2.621  17.005  1.4749  0.9325 -0.8996
17163TIP3   OH272979   0.585   1.116   1.336 -0.5269 -0.2672  0.1767
17163TIP3    H172980   0.570   1.059   1.260  1.2219  0.2186 -0.5967
17163TIP3    H272981   0.681   1.124   1.341 -0.5284 -1.0698  3.0659
17164TIP3   OH272982   2.485   5.269   1.365 -0.3970 -0.0664 -0.1684
17164TIP3    H172983   2.419   5.325   1.323  0.2295 -0.0314 -1.1441
17164TIP3    H272984   2.514   5.211   1.295  0.3581 -0.3184  0.3451
17165TIP3   OH272985   5.737   4.942   2.088 -0.3692 -0.1257  0.3583
17165TIP3    H172986   5.798   5.014   2.102  0.1351  0.1609 -2.7213
17165TIP3    H272987   5.665   4.959   2.150  1.4707  0.8619  2.3535
17166TIP3   OH272988   1.694   4.915  14.090 -0.5432 -0.2565  0.3080
17166TIP3    H172989   1.665   4.938  14.178 -0.0420  0.4049  0.3108
17166TIP3    H272990   1.746   4.835  14.102 -0.9658 -0.5017  0.5255
17167TIP3   OH272991   6.346   0.570  12.334  0.2708  0.9694  0.2314
17167TIP3    H172992   6.434   0.554  12.369  0.1203 -1.7313 -0.4175
17167TIP3    H272993   6.350   0.539  12.244 -1.5076  0.1722  0.3867
17168TIP3   OH272994   3.461   1.054   3.290  0.4377 -0.5605  0.3036
17168TIP3    H172995   3.529   1.019   3.348  1.5959  0.3777 -0.4474
17168TIP3    H272996   3.507   1.078   3.210 -0.8392 -0.1892 -0.3532
17169TIP3   OH272997   5.783   5.419   2.587  0.4945  0.1716  0.0474
17169TIP3    H172998   5.711   5.475   2.616 -0.7852 -1.3700 -0.0288
17169TIP3    H272999   5.824   5.387   2.667 -0.3612 -0.7287  0.1445
17170TIP3   OH273000   5.008   1.559  14.725 -0.1007  0.4968 -0.1708
17170TIP3    H173001   4.978   1.498  14.793  2.0737  0.4028  0.8095
17170TIP3    H273002   4.979   1.645  14.755  0.6582  0.4303  0.8102
17171TIP3   OH273003   3.193   1.766  16.527 -0.1551 -0.3901 -0.8427
17171TIP3    H173004   3.157   1.837  16.580  2.7708 -0.9814  2.3212
17171TIP3    H273005   3.135   1.692  16.543  0.1481 -0.2913  0.9187
17172TIP3   OH273006   0.586   5.111   5.890 -0.0323 -0.3881 -0.1512
17172TIP3    H173007   0.554   5.196   5.920 -0.5972 -0.3109 -0.9655
17172TIP3    H273008   0.588   5.058   5.969 -1.4137 -0.1593  0.0649
17173TIP3   OH273009   5.316   2.254  15.562  0.1397 -0.1340  0.1293
17173TIP3    H173010   5.268   2.185  15.516  1.1887  0.2978 -1.6941
17173TIP3    H273011   5.377   2.207  15.620 -0.2772 -0.6996  0.1215
17174TIP3   OH273012   0.729   1.055  12.818 -0.5158  0.8002 -0.5395
17174TIP3    H173013   0.721   1.124  12.884 -1.6451  0.3688 -0.1988
17174TIP3    H273014   0.666   0.989  12.845 -0.7005  0.4188 -1.8248
17175TIP3   OH273015   4.163   4.959   0.062 -0.0438  0.3801 -0.0465
17175TIP3    H173016   4.138   5.039   0.016  0.5645 -0.5844 -2.1814
17175TIP3    H273017   4.252   4.975   0.093 -0.2326  0.8210  0.2763
17176TIP3   OH273018   0.083   1.791   2.660  0.4067  0.1689  0.0237
17176TIP3    H173019   0.064   1.787   2.566  0.6735 -0.6024 -0.0062
17176TIP3    H273020   0.168   1.748   2.669  1.2504  1.8529  0.4029
17177TIP3   OH273021   4.933   0.534  15.190  0.1882  0.2108  0.8014
17177TIP3    H173022   4.854   0.588  15.186 -1.7960 -2.4425  1.4134
17177TIP3    H273023   4.939   0.508  15.282  0.7564 -1.0180  0.4369
17178TIP3   OH273024   1.062   5.623  14.751  0.0324  0.0977  0.3154
17178TIP3    H173025   1.071   5.698  14.691 -2.6177  1.1992  1.1271
17178TIP3    H273026   1.011   5.559  14.701 -0.7816  0.3545  0.7896
17179TIP3   OH273027   0.639   4.894  16.728  0.4508  0.0799 -0.1656
17179TIP3    H173028   0.703   4.885  16.798 -0.2699 -0.7825  0.4158
17179TIP3    H273029   0.661   4.824  16.666 -0.5003 -0.8954  0.5398
17180TIP3   OH273030   2.611   1.362   1.376  0.0610 -0.3371  0.0171
17180TIP3    H173031   2.543   1.419   1.340 -0.7376 -1.5587 -0.4832
17180TIP3    H273032   2.598   1.279   1.330  1.4997 -0.7766  0.3794
17181TIP3   OH273033   5.837   1.349  15.983 -0.4752  0.4470 -0.5110
17181TIP3    H173034   5.787   1.278  15.944  0.9093 -0.6009 -0.4429
17181TIP3    H273035   5.921   1.347  15.938  0.3024  0.7465  0.8746
17182TIP3   OH273036   1.551   2.052   2.415  0.1523 -0.0027  0.5098
17182TIP3    H173037   1.478   2.105   2.381 -0.6521 -0.9055  0.7888
17182TIP3    H273038   1.629   2.092   2.377 -0.5092  0.7953 -0.0492
17183TIP3   OH273039   0.452   2.464  11.145 -0.1073  0.6525 -0.2668
17183TIP3    H173040   0.497   2.457  11.061  0.7513  1.3879  0.1095
17183TIP3    H273041   0.505   2.412  11.205  0.3937  1.7022  0.2260
17184TIP3   OH273042   4.652   4.303   0.908 -0.5063 -0.4430  0.1006
17184TIP3    H173043   4.692   4.248   0.840  0.2129 -0.6402  0.6697
17184TIP3    H273044   4.628   4.384   0.863  1.3496  0.0395 -0.1063
17185TIP3   OH273045   5.015   4.835   6.220  0.0842  0.1668 -0.4456
17185TIP3    H173046   5.048   4.756   6.263  1.1102 -0.3662 -2.1067
17185TIP3    H273047   4.931   4.852   6.262  0.5855 -0.8562  1.0607
17186TIP3   OH273048   0.907   6.427   4.145  0.1234  0.0189 -0.2044
17186TIP3    H173049   0.854   6.405   4.222 -0.0781  0.4188 -0.2228
17186TIP3    H273050   0.995   6.396   4.166  0.7461  2.5523  1.3778
17187TIP3   OH273051   6.277   6.231  14.061  0.1625 -0.2102  0.1478
17187TIP3    H173052   6.251   6.147  14.098 -2.0344 -0.1399 -1.0689
17187TIP3    H273053   6.363   6.215  14.023  0.4582 -1.4655  1.2671
17188TIP3   OH273054   4.942   4.294  15.163  0.1919 -0.2800 -0.0236
17188TIP3    H173055   5.023   4.291  15.215 -0.2947  1.3517  0.9081
17188TIP3    H273056   4.887   4.357  15.209 -0.9626 -0.1020 -1.5769
17189TIP3   OH273057   5.462   2.083  14.556  0.0277 -0.2236 -0.2156
17189TIP3    H173058   5.537   2.141  14.550 -0.4700  0.4500 -0.0070
17189TIP3    H273059   5.500   1.995  14.561  0.8238  0.1447  0.4927
17190TIP3   OH273060   3.977   1.163  14.432  0.0997  0.0774 -0.7969
17190TIP3    H173061   3.978   1.075  14.469 -0.6836  0.6314  0.5950
17190TIP3    H273062   4.044   1.161  14.363  1.1340 -1.1753  0.1962
17191TIP3   OH273063   3.983   4.294  12.465 -0.1458  0.7536 -0.3776
17191TIP3    H173064   4.071   4.286  12.429 -0.7130  0.2109 -1.7504
17191TIP3    H273065   3.965   4.388  12.464  0.1569  0.8121 -0.8076
17192TIP3   OH273066   6.151   3.952  11.699 -0.3049  0.6403 -0.5801
17192TIP3    H173067   6.066   3.921  11.731  0.5379  0.3003  1.4709
17192TIP3    H273068   6.178   3.886  11.636  0.2573 -1.5742  1.7969
17193TIP3   OH273069   5.026   0.910   4.984  0.3226 -0.3043 -0.5303
17193TIP3    H173070   4.957   0.844   4.974  1.2451 -1.2294 -0.9205
17193TIP3    H273071   5.101   0.874   4.938  1.6444 -0.1502  1.3779
17194TIP3   OH273072   0.945   0.780   2.203 -0.4498 -0.5327 -0.2106
17194TIP3    H173073   0.983   0.792   2.290 -1.2344  1.1867 -0.0768
17194TIP3    H273074   0.911   0.866   2.179 -2.0261 -1.4370 -1.3836
17195TIP3   OH273075   0.806   0.737  15.908 -0.3995  0.3163  0.8801
17195TIP3    H173076   0.812   0.668  15.974  0.8263 -0.1659  0.2975
17195TIP3    H273077   0.730   0.713  15.856 -0.1755 -0.4275  0.8796
17196TIP3   OH273078   0.375   2.976  12.032  0.9226  0.1916 -0.1196
17196TIP3    H173079   0.303   2.920  12.061  2.1679 -1.0411  0.7684
17196TIP3    H273080   0.408   2.934  11.953 -0.0165  1.4029 -1.2053
17197TIP3   OH273081   1.385   6.412   2.643 -0.5946  0.0878 -0.3260
17197TIP3    H173082   1.339   6.347   2.695 -0.7524 -0.3362 -0.9762
17197TIP3    H273083   1.335   6.492   2.654 -0.2381  0.1822  0.7116
17198TIP3   OH273084   3.399   3.362   0.720 -0.1697 -0.4005 -0.1758
17198TIP3    H173085   3.393   3.424   0.648  2.3749  1.4121  1.0366
17198TIP3    H273086   3.482   3.317   0.708 -0.2679 -0.9376  0.9547
17199TIP3   OH273087   2.901   6.825   6.083 -0.0001 -0.4960  0.2741
17199TIP3    H173088   2.818   6.804   6.040  0.8716  0.1208 -1.8429
17199TIP3    H273089   2.876   6.860   6.168 -1.7840 -2.5911  0.6924
17200TIP3   OH273090   0.059   5.434   3.941  0.9399 -0.5542 -0.1243
17200TIP3    H173091  -0.028   5.458   3.974  0.8382  0.6686 -1.2070
17200TIP3    H273092   0.113   5.511   3.957  1.8909 -1.3551  0.6679
17201TIP3   OH273093   5.345   5.559   4.875  0.4319  0.3322 -0.3527
17201TIP3    H173094   5.378   5.536   4.962 -1.1390  0.9483  0.4525
17201TIP3    H273095   5.318   5.650   4.883  3.4618  1.5843 -2.5263
17202TIP3   OH273096   3.502   0.470   5.592  0.3347 -0.2970 -0.0815
17202TIP3    H173097   3.568   0.499   5.529  2.2090 -1.9878  1.0072
17202TIP3    H273098   3.518   0.524   5.670  0.8898 -1.1699  0.4162
17203TIP3   OH273099   6.643   1.998   5.206  0.2105 -0.1494  0.4221
17203TIP3    H173100   6.689   1.932   5.153  0.0004  1.3768 -1.8063
17203TIP3    H273101   6.567   1.951   5.241  0.1392 -1.1588 -0.9678
17204TIP3   OH273102   5.896   0.754  15.568 -0.3443  0.2413  0.3181
17204TIP3    H173103   5.802   0.770  15.571 -0.8251 -1.9654 -0.9727
17204TIP3    H273104   5.904   0.658  15.564  2.0119  0.3032  1.7111
17205TIP3   OH273105   2.701   4.561   5.924  0.2002 -0.2351 -0.1277
17205TIP3    H173106   2.740   4.528   6.005 -0.5309  2.4732  1.4536
17205TIP3    H273107   2.618   4.514   5.916 -1.6675  2.1660  3.0229
17206TIP3   OH273108   1.685   0.514   3.589 -0.0561  0.6894 -0.5822
17206TIP3    H173109   1.702   0.561   3.671  1.0358 -0.0307 -0.3817
17206TIP3    H273110   1.743   0.438   3.592 -0.5534  0.2471 -1.6864
17207TIP3   OH273111   4.771   2.691   3.152 -0.2282 -0.2855 -0.2982
17207TIP3    H173112   4.750   2.669   3.243 -1.3845 -0.3276 -0.5573
17207TIP3    H273113   4.861   2.722   3.155  0.5177 -2.3230  0.5400
17208TIP3   OH273114   1.539   4.108  12.763  0.4503  0.2758  0.0257
17208TIP3    H173115   1.455   4.131  12.723 -0.4277  0.0447  1.6278
17208TIP3    H273116   1.549   4.015  12.744  0.1069  0.2007  0.1895
17209TIP3   OH273117   0.612   2.582   5.248 -0.3350 -0.2220  0.2429
17209TIP3    H173118   0.650   2.602   5.333  0.1258 -0.6891  0.1502
17209TIP3    H273119   0.522   2.554   5.268  0.0539 -1.2219  0.6705
17210TIP3   OH273120   0.077   3.800  12.782  0.1161 -0.2421 -0.5324
17210TIP3    H173121   0.132   3.877  12.800 -0.2983 -0.0726  0.0142
17210TIP3    H273122   0.096   3.780  12.690  1.7763 -0.7478 -0.1158
17211TIP3   OH273123   1.985   5.094  15.666  0.1902 -0.2770 -0.0448
17211TIP3    H173124   1.902   5.100  15.617 -0.8933 -0.5273  1.6953
17211TIP3    H273125   1.993   5.001  15.688  0.4033 -0.0924  0.6700
17212TIP3   OH273126   4.884   3.630  14.838 -0.1717  0.0494 -0.1810
17212TIP3    H173127   4.820   3.672  14.780 -0.9842 -0.3281  0.4182
17212TIP3    H273128   4.954   3.695  14.848 -0.8975  0.8366 -0.1174
17213TIP3   OH273129   1.860   5.129  15.288 -0.4063  0.0270  0.8145
17213TIP3    H173130   1.927   5.189  15.320 -0.1255 -0.1042  0.4831
17213TIP3    H273131   1.795   5.126  15.357  0.3932 -0.5795  1.5641
17214TIP3   OH273132   6.076   0.074  14.071 -0.0005 -0.5793 -0.0104
17214TIP3    H173133   6.170   0.060  14.081 -0.1944 -1.1018  1.2714
17214TIP3    H273134   6.045  -0.001  14.020  0.3169 -0.2349 -0.7203
17215TIP3   OH273135   4.890   2.109   0.322  0.3760 -0.9700 -0.4420
17215TIP3    H173136   4.963   2.144   0.271  1.4161  0.6317  1.9586
17215TIP3    H273137   4.904   2.014   0.322  3.5484 -0.6476  1.3291
17216TIP3   OH273138   2.461   4.586  16.969 -0.3736  0.1227 -0.1068
17216TIP3    H173139   2.501   4.539  17.041  0.0061 -1.0478 -1.0434
17216TIP3    H273140   2.530   4.591  16.902 -1.1922 -0.2628 -1.0125
17217TIP3   OH273141   4.093   1.556   1.941 -0.3688 -0.3405 -0.6755
17217TIP3    H173142   4.174   1.506   1.932  0.3566  0.8291 -0.9964
17217TIP3    H273143   4.081   1.567   2.035 -0.5021 -1.0403 -0.6054
17218TIP3   OH273144   1.173   2.920   2.781  0.1978 -0.1657 -0.4683
17218TIP3    H173145   1.121   2.843   2.760 -0.1587 -0.3089  0.8349
17218TIP3    H273146   1.110   2.992   2.781  0.5211  0.1450 -1.6324
17219TIP3   OH273147   5.431   5.995   2.153 -0.9814  0.2299 -0.9251
17219TIP3    H173148   5.426   6.047   2.073 -0.3345  1.7495 -0.0009
17219TIP3    H273149   5.341   5.995   2.186 -0.3990  4.3986  1.2494
17220TIP3   OH273150   5.381   4.924  13.828  0.1094  0.2549  0.0761
17220TIP3    H173151   5.345   5.012  13.818  3.4792  1.6780 -1.1855
17220TIP3    H273152   5.354   4.879  13.748  0.4004  1.0087 -0.4652
17221TIP3   OH273153   2.266   4.220  11.420 -0.3196 -0.1148  0.1533
17221TIP3    H173154   2.240   4.153  11.358  1.1693 -1.9773  1.4283
17221TIP3    H273155   2.189   4.235  11.475 -1.2493  0.6541 -1.3079
17222TIP3   OH273156   2.161   2.582  16.451  0.0139  0.1126  0.3719
17222TIP3    H173157   2.193   2.658  16.401  1.1986 -0.2486  0.5524
17222TIP3    H273158   2.209   2.586  16.534 -0.0570 -0.7199  0.4578
17223TIP3   OH273159   1.702   0.646  11.412 -0.3902  0.5025  0.3941
17223TIP3    H173160   1.624   0.595  11.436 -1.0077  0.5744 -1.3242
17223TIP3    H273161   1.667   0.729  11.379  0.4329  0.6448 -0.1399
17224TIP3   OH273162   6.184   2.878  16.273 -0.2015  0.3521  0.3861
17224TIP3    H173163   6.219   2.800  16.316 -1.0385  0.8264  2.0600
17224TIP3    H273164   6.101   2.894  16.318 -0.9918  1.0884 -1.2693
17225TIP3   OH273165   2.946   0.649   4.626 -0.8740 -0.1491 -0.1787
17225TIP3    H173166   3.005   0.576   4.647  0.9949  1.4130  0.3775
17225TIP3    H273167   2.948   0.704   4.705 -0.7821  1.3952 -1.2262
17226TIP3   OH273168   1.997   0.749   4.307  0.0960 -0.0479 -0.0013
17226TIP3    H173169   2.083   0.706   4.306 -0.1470 -0.5418 -1.2642
17226TIP3    H273170   1.949   0.705   4.377  0.7507  0.0172  0.5043
17227TIP3   OH273171   0.143   3.308  16.147  0.6841  0.4898 -0.0771
17227TIP3    H173172   0.184   3.313  16.060  0.9803 -0.3544  0.0104
17227TIP3    H273173   0.213   3.277  16.205 -0.1063 -1.1956  0.0320
17228TIP3   OH273174   4.106   0.610   3.005 -0.3827  0.0060  0.4808
17228TIP3    H173175   4.150   0.534   2.968  0.3470  0.2825  0.7718
17228TIP3    H273176   4.029   0.573   3.050  1.0503 -0.8245  2.3890
17229TIP3   OH273177   1.633   6.127  16.962  0.0038  0.2312 -0.1766
17229TIP3    H173178   1.577   6.087  17.029  2.4031  1.5613  2.8952
17229TIP3    H273179   1.709   6.070  16.957  1.4960  2.0078  1.0552
17230TIP3   OH273180   6.797   5.924   4.110  0.5814 -0.3839  0.2076
17230TIP3    H173181   6.885   5.906   4.079  0.5056  1.0054 -0.9425
17230TIP3    H273182   6.749   5.842   4.096  1.3506 -0.7294 -0.4598
17231TIP3   OH273183   2.376   5.994   2.009  0.2026 -0.1550 -0.3522
17231TIP3    H173184   2.359   5.902   2.028  0.4795 -0.1763 -0.1944
17231TIP3    H273185   2.295   6.039   2.032  0.5554 -0.1637  1.0194
17232TIP3   OH273186   6.636   2.916  12.165  0.4268 -0.0266 -0.3445
17232TIP3    H173187   6.588   2.943  12.086 -0.6246  0.6666  0.5068
17232TIP3    H273188   6.569   2.907  12.232  1.0364 -2.5648  0.0323
17233TIP3   OH273189   6.041   1.875  15.493 -0.1174 -0.0143  0.5534
17233TIP3    H173190   5.952   1.840  15.489 -0.7281  1.4934  0.4715
17233TIP3    H273191   6.097   1.801  15.469 -1.4801 -0.3949 -1.6693
17234TIP3   OH273192   0.218   5.037  15.025 -0.3233 -0.3701 -0.0033
17234TIP3    H173193   0.172   4.977  15.084 -0.6974 -1.1534 -1.0530
17234TIP3    H273194   0.182   5.123  15.046 -0.6524 -0.6725  0.7113
17235TIP3   OH273195   0.677   0.183  16.141 -0.4592  0.0884  0.3818
17235TIP3    H173196   0.748   0.126  16.168 -2.6286 -1.5370  3.2466
17235TIP3    H273197   0.609   0.124  16.108 -1.8017  1.2221  0.9855
17236TIP3   OH273198   3.212   3.340   6.192  0.5554 -0.0623 -0.1661
17236TIP3    H173199   3.130   3.312   6.233  0.5803 -0.7327 -0.5581
17236TIP3    H273200   3.278   3.330   6.260  0.2353  0.9983  0.3229
17237TIP3   OH273201   2.810   0.699  16.122  0.7258 -0.1835  0.0338
17237TIP3    H173202   2.780   0.766  16.184 -2.1305 -0.1213 -1.2166
17237TIP3    H273203   2.843   0.748  16.047  1.2458 -0.2084  0.2480
17238TIP3   OH273204   1.537   4.261   2.545 -0.2314  0.1839  0.0316
17238TIP3    H173205   1.465   4.273   2.606 -0.8707 -0.3471 -0.5901
17238TIP3    H273206   1.607   4.221   2.597 -0.8228 -0.4185  0.3843
17239TIP3   OH273207   5.152   3.148  11.266  0.2062  0.0264 -0.4144
17239TIP3    H173208   5.199   3.188  11.193  0.6516 -3.5977 -2.3959
17239TIP3    H273209   5.064   3.185  11.261  0.2918  0.1101 -2.6963
17240TIP3   OH273210   5.887   4.322   2.020  0.2733 -0.0289  0.2639
17240TIP3    H173211   5.924   4.369   1.945  0.3326  1.7811  1.3856
17240TIP3    H273212   5.806   4.284   1.987 -0.2050  1.5658 -0.4941
17241TIP3   OH273213   6.445   2.626  11.675  0.1066  0.2091 -0.3277
17241TIP3    H173214   6.448   2.577  11.757  1.5308  0.7953 -0.0000
17241TIP3    H273215   6.528   2.675  11.673  0.1713  0.0902 -2.1828
17242TIP3   OH273216   3.394   3.109  14.052  0.2264  0.1387  0.1063
17242TIP3    H173217   3.408   3.021  14.016  0.6493 -0.0700  0.7567
17242TIP3    H273218   3.482   3.147  14.055  1.0382 -1.3827  4.7779
17243TIP3   OH273219   1.498   4.210   1.518  0.0121 -0.0162 -0.7255
17243TIP3    H173220   1.592   4.210   1.499 -0.0912 -0.1953 -1.2748
17243TIP3    H273221   1.461   4.151   1.452 -0.3547 -0.8194  0.1882
17244TIP3   OH273222   6.540   0.482  16.741  0.0488  0.5248 -0.3565
17244TIP3    H173223   6.601   0.543  16.783  0.2459  0.5289 -0.6466
17244TIP3    H273224   6.454   0.522  16.755  0.1311  0.6301 -0.1358
17245TIP3   OH273225   3.547   4.497   0.624 -0.0132 -0.6337 -0.0961
17245TIP3    H173226   3.453   4.509   0.610 -0.1026 -0.0991  0.8114
17245TIP3    H273227   3.556   4.405   0.648 -0.2776 -0.7325 -0.3605
17246TIP3   OH273228   0.681   3.185   5.855 -0.1018  1.3095  0.3523
17246TIP3    H173229   0.659   3.162   5.945  0.2917  0.0093  0.1397
17246TIP3    H273230   0.749   3.252   5.863  1.4977 -0.3188  1.0681
17247TIP3   OH273231   2.277   5.704  13.488  0.2211 -0.4472 -0.2412
17247TIP3    H173232   2.319   5.764  13.426 -0.6693 -1.4077 -1.8380
17247TIP3    H273233   2.189   5.692  13.453 -0.1029 -1.5020  0.8889
17248TIP3   OH273234   6.060   3.223   4.653 -0.3639  0.4346 -0.1371
17248TIP3    H173235   5.996   3.210   4.583 -1.1112  0.0173  0.6065
17248TIP3    H273236   6.137   3.259   4.609 -1.3253  1.5508 -0.9667
17249TIP3   OH273237   5.992   6.345  16.402 -0.0556 -0.4776 -0.5448
17249TIP3    H173238   5.942   6.363  16.322 -2.6669 -2.1730  0.5562
17249TIP3    H273239   5.992   6.249  16.408  0.0284 -0.3785  1.4833
17250TIP3   OH273240   1.218   4.364   3.293 -0.1426 -0.5186 -0.4041
17250TIP3    H173241   1.126   4.343   3.278  0.8800 -3.7076 -3.5865
17250TIP3    H273242   1.246   4.301   3.360 -0.2837  0.6538  0.7900
17251TIP3   OH273243   4.725   5.569  12.009  0.7064 -0.1942 -0.3093
17251TIP3    H173244   4.780   5.492  11.997  2.3087  0.7163  0.9103
17251TIP3    H273245   4.777   5.628  12.063  0.1235  2.3823 -2.3732
17252TIP3   OH273246   6.251   4.182  15.843 -0.1722  0.2531 -0.1685
17252TIP3    H173247   6.304   4.223  15.775 -1.3404 -1.1682 -2.0443
17252TIP3    H273248   6.176   4.145  15.796 -1.2954 -0.3701  1.9724
17253TIP3   OH273249   2.998   1.097   4.992  0.0222 -0.4138 -0.2819
17253TIP3    H173250   2.969   1.187   4.976 -2.6185 -1.0973  0.2104
17253TIP3    H273251   2.983   1.083   5.086  0.0217 -1.4719 -0.4269
17254TIP3   OH273252   1.892   4.561   0.697 -0.6369 -0.0296 -0.3287
17254TIP3    H173253   1.852   4.501   0.635  0.9375  1.0083 -2.4795
17254TIP3    H273254   1.901   4.643   0.649 -2.0677  1.8102  2.2729
17255TIP3   OH273255   2.910   5.217   3.024  0.6237 -0.0102 -0.4712
17255TIP3    H173256   2.999   5.229   2.992  0.0380  0.3361 -2.0303
17255TIP3    H273257   2.862   5.292   2.989 -0.2732 -0.1315  0.4442
17256TIP3   OH273258   1.596   0.052  13.723 -0.1261 -0.2845  0.1883
17256TIP3    H173259   1.586   0.041  13.818 -0.1483  0.9885  0.3459
17256TIP3    H273260   1.682   0.015  13.704  2.2541  3.8730  1.5687
17257TIP3   OH273261   5.205   5.857   1.436 -0.9370  0.3011  0.6671
17257TIP3    H173262   5.271   5.796   1.467  1.2219  1.7071 -0.8401
17257TIP3    H273263   5.183   5.910   1.512  0.0587  0.1177  1.0945
17258TIP3   OH273264   0.956   1.298   1.507  0.4508  0.4293  0.3002
17258TIP3    H173265   0.925   1.239   1.577 -0.5295 -1.1422 -1.3570
17258TIP3    H273266   1.040   1.262   1.481 -0.0288 -0.1300 -0.5370
17259TIP3   OH273267   2.989   2.191   5.379  0.1052  0.5562 -0.0568
17259TIP3    H173268   3.036   2.194   5.462 -0.9359 -0.6719  0.6016
17259TIP3    H273269   3.024   2.265   5.329  2.3089  0.0495  0.6184
17260TIP3   OH273270   5.507   6.413   0.592 -0.0439 -0.1976  0.1330
17260TIP3    H173271   5.423   6.367   0.587  0.7994 -1.7592 -0.4055
17260TIP3    H273272   5.496   6.490   0.536 -1.8203  0.8797  1.8247
17261TIP3   OH273273   4.891   0.138   4.379  0.1458 -0.0218 -0.5510
17261TIP3    H173274   4.893   0.127   4.474  1.3070 -0.0366 -0.5659
17261TIP3    H273275   4.802   0.170   4.361  0.2065  0.9197  0.6481
17262TIP3   OH273276   2.906   3.206   5.423 -0.0043 -0.7408  0.1085
17262TIP3    H173277   2.926   3.169   5.509 -0.5746  0.5131  0.7987
17262TIP3    H273278   2.822   3.249   5.434  1.2667  2.0900 -0.2020
17263TIP3   OH273279   0.992   4.237  14.133 -0.4467  0.0462  0.0955
17263TIP3    H173280   0.914   4.190  14.103  0.5992 -1.1122 -0.9295
17263TIP3    H273281   1.064   4.195  14.086  0.8073  1.0329  1.0896
17264TIP3   OH273282   0.957   0.937   4.150  0.0425 -0.2623 -1.1009
17264TIP3    H173283   1.017   1.009   4.169  0.5560 -0.5905 -1.4500
17264TIP3    H273284   0.951   0.936   4.055 -0.5223 -0.2315 -1.0655
17265TIP3   OH273285   0.783   5.491   3.823  0.2694  0.0073  0.1316
17265TIP3    H173286   0.738   5.544   3.888 -0.7794 -0.0943 -0.4817
17265TIP3    H273287   0.852   5.547   3.788  1.8227 -0.4131  2.3253
17266TIP3   OH273288   1.605   6.788  16.012  0.1233  0.4896  0.2035
17266TIP3    H173289   1.565   6.820  16.093  1.0966  1.9238  0.1482
17266TIP3    H273290   1.659   6.860  15.981 -0.3688  0.0339 -1.8511
17267TIP3   OH273291   6.136   6.451  14.064  0.1114  0.2497  0.5882
17267TIP3    H173292   6.185   6.369  14.057  0.8916  0.8172 -1.1575
17267TIP3    H273293   6.124   6.463  14.158 -0.2067 -1.9481  0.9024
17268TIP3   OH273294   2.526   5.638   1.443 -0.3393  0.4408  0.3495
17268TIP3    H173295   2.533   5.697   1.518  0.0882  0.5053  0.2569
17268TIP3    H273296   2.584   5.565   1.464 -0.4023  0.3437  0.1866
17269TIP3   OH273297   4.413   1.887  14.141 -0.4373  0.1345 -0.6531
17269TIP3    H173298   4.465   1.812  14.170 -0.1921 -0.0123 -1.4649
17269TIP3    H273299   4.322   1.861  14.157 -0.3329 -0.1597 -0.5340
17270TIP3   OH273300   2.718   2.242  12.460  0.0197 -0.3618  0.5377
17270TIP3    H173301   2.724   2.176  12.528 -0.0795 -0.5661  0.3500
17270TIP3    H273302   2.783   2.308  12.484 -0.2548 -0.2651  1.0090
17271TIP3   OH273303   2.705   4.160   4.175  0.3334  0.0845 -0.3324
17271TIP3    H173304   2.666   4.242   4.206 -0.3821 -0.6176  0.6968
17271TIP3    H273305   2.671   4.151   4.086  1.5137  1.5606 -0.9881
17272TIP3   OH273306   4.519   3.734  14.064 -0.4309 -0.0776 -0.0188
17272TIP3    H173307   4.612   3.722  14.083 -0.4761  0.5400  0.6322
17272TIP3    H273308   4.481   3.766  14.146 -1.2911 -0.6745 -0.1663
17273TIP3   OH273309   1.182   5.229  15.222 -0.5528  0.2484 -0.0782
17273TIP3    H173310   1.164   5.176  15.144 -0.1452  1.0353 -0.7305
17273TIP3    H273311   1.248   5.293  15.192  2.2169 -1.5439  1.7748
17274TIP3   OH273312   1.959   5.825  16.469  0.2059  0.2871  0.2345
17274TIP3    H173313   2.018   5.879  16.522 -0.1522  0.5292  0.3881
17274TIP3    H273314   1.877   5.875  16.466 -1.3719 -1.8532  3.3836
17275TIP3   OH273315   3.808   3.780  11.603  0.0535  0.1900 -0.0316
17275TIP3    H173316   3.843   3.732  11.678  0.1509  0.7518  0.2918
17275TIP3    H273317   3.776   3.712  11.543  0.1310 -0.2698  0.4404
17276TIP3   OH273318   2.867   3.347   1.164  0.7096  0.2275  0.0295
17276TIP3    H173319   2.890   3.259   1.135  2.5486  0.5070  0.4871
17276TIP3    H273320   2.784   3.337   1.211  0.2775 -1.0386 -0.9568
17277TIP3   OH273321   3.466   4.509  12.951 -0.0158  0.3395 -0.0216
17277TIP3    H173322   3.450   4.517  13.045 -0.3693 -1.4373  0.1038
17277TIP3    H273323   3.537   4.445  12.944 -0.1993  0.2275 -0.9641
17278TIP3   OH273324   4.329   2.635  16.138  0.5050 -0.1848 -0.1576
17278TIP3    H173325   4.299   2.641  16.047  0.6753  2.1168 -0.1199
17278TIP3    H273326   4.249   2.627  16.189  0.4639 -3.9334 -0.5406
17279TIP3   OH273327   6.312   1.070   4.849 -0.4795 -0.1682 -0.1046
17279TIP3    H173328   6.245   1.002   4.841 -0.2261 -0.4781  0.3793
17279TIP3    H273329   6.283   1.123   4.923 -1.1794  0.8331 -1.0566
17280TIP3   OH273330   2.906   2.407   4.835  0.1490  0.4216  0.2995
17280TIP3    H173331   2.841   2.339   4.819 -0.5333  0.4027  2.6903
17280TIP3    H273332   2.978   2.362   4.879  0.4880  0.9328  0.2857
17281TIP3   OH273333   3.928   3.289  16.067 -0.1226 -0.7997 -0.0842
17281TIP3    H173334   3.909   3.335  16.149 -1.0259  0.7599 -1.1124
17281TIP3    H273335   4.008   3.239  16.085  0.0691  0.0337  1.5393
17282TIP3   OH273336   3.182   6.759  17.048 -0.1921  0.5270 -0.3234
17282TIP3    H173337   3.141   6.842  17.026  1.1075  0.6321 -2.7573
17282TIP3    H273338   3.276   6.779  17.054  0.0458 -0.5859 -0.0494
17283TIP3   OH273339   4.423   5.567  15.153 -0.0888 -0.7919  0.1580
17283TIP3    H173340   4.468   5.485  15.176  2.7536  0.1655 -1.5664
17283TIP3    H273341   4.478   5.636  15.190 -2.1335  0.4465  1.0833
17284TIP3   OH273342   6.194   3.598  13.629 -0.1142  0.2024 -0.0310
17284TIP3    H173343   6.260   3.631  13.690  0.5726  2.0103 -1.6571
17284TIP3    H273344   6.120   3.659  13.639  0.9109  2.0475 -2.5835
17285TIP3   OH273345   1.050   2.491  15.726  0.6302 -0.6391 -0.7331
17285TIP3    H173346   1.145   2.487  15.732  0.7668  0.4487 -1.7645
17285TIP3    H273347   1.028   2.443  15.647  0.4502  0.2381 -1.2291
17286TIP3   OH273348   5.305   0.665  12.128  0.6282  0.1106 -0.6530
17286TIP3    H173349   5.257   0.588  12.098 -1.8878  1.8432 -1.4744
17286TIP3    H273350   5.395   0.652  12.098  0.1300 -2.1806 -1.3113
17287TIP3   OH273351   3.543   4.889  12.603 -0.5853  0.5607  0.2170
17287TIP3    H173352   3.509   4.865  12.517 -0.9950 -0.6672  0.7070
17287TIP3    H273353   3.470   4.931  12.647 -0.5767  0.5873  0.2063
17288TIP3   OH273354   6.289   5.432  11.369  0.0451 -0.2425  0.7731
17288TIP3    H173355   6.283   5.401  11.459 -0.6413  0.2003  0.8954
17288TIP3    H273356   6.224   5.381  11.322 -0.5289  0.4302  0.8129
17289TIP3   OH273357   2.546   5.234  12.899 -0.4653  0.1501  0.5270
17289TIP3    H173358   2.585   5.299  12.958 -0.3515 -0.2797  0.9339
17289TIP3    H273359   2.582   5.151  12.929  1.4427  0.1117 -1.5955
17290TIP3   OH273360   5.504   6.703  14.807  0.6233 -0.0258  0.2697
17290TIP3    H173361   5.530   6.681  14.717 -3.0577  0.4963 -1.0940
17290TIP3    H273362   5.567   6.657  14.862  0.9664 -3.3489 -2.5404
17291TIP3   OH273363   1.759   3.867   6.405  0.2070  0.4268  0.8444
17291TIP3    H173364   1.839   3.907   6.438  0.3670  1.4456 -0.6790
17291TIP3    H273365   1.741   3.794   6.466  1.4090  1.1344  2.0950
17292TIP3   OH273366   4.209   6.367  14.635 -0.2773 -0.0554  0.8817
17292TIP3    H173367   4.258   6.325  14.564  0.7293  0.0337  1.4906
17292TIP3    H273368   4.276   6.387  14.701 -0.7013  2.4009  0.6744
17293TIP3   OH273369   4.905   5.310   3.701 -0.1324  0.1555  0.2242
17293TIP3    H173370   4.885   5.390   3.750 -0.3764  0.7748 -0.8737
17293TIP3    H273371   4.996   5.319   3.675  0.7347 -1.2207  2.4726
17294TIP3   OH273372   2.915   4.089   5.104 -0.0271 -0.2349  0.5813
17294TIP3    H173373   2.840   4.138   5.070  1.0193  1.5804  0.8043
17294TIP3    H273374   2.979   4.156   5.127  0.9315 -1.6379  2.1857
17295TIP3   OH273375   0.964   5.372   1.506 -0.2634 -0.3380  0.2550
17295TIP3    H173376   0.955   5.373   1.411  0.1688 -0.2321  0.2131
17295TIP3    H273377   0.920   5.291   1.533  1.5324 -1.5564 -0.2547
17296TIP3   OH273378   3.492   3.530   3.746  0.2216  0.3764 -0.2999
17296TIP3    H173379   3.520   3.512   3.657  0.4744 -0.9361  0.0227
17296TIP3    H273380   3.396   3.528   3.742  0.1274  2.9070 -1.0147
17297TIP3   OH273381   1.392   3.691   3.054 -0.2658  0.4828  0.5012
17297TIP3    H173382   1.388   3.596   3.061  1.0987  0.4375  1.0255
17297TIP3    H273383   1.325   3.723   3.114  1.0764 -0.1430  2.4196
17298TIP3   OH273384   3.055   5.739   4.170 -0.4950  0.3599 -0.1126
17298TIP3    H173385   3.134   5.775   4.131  0.5518 -1.3513  0.3344
17298TIP3    H273386   2.984   5.784   4.125  0.6576  3.6457  1.0696
17299TIP3   OH273387   1.753   0.298   0.027 -0.1632  0.3962 -0.1570
17299TIP3    H173388   1.663   0.330   0.023 -0.5473 -0.2873  1.8174
17299TIP3    H273389   1.749   0.225   0.088  1.6984  0.1585 -0.2724
17300TIP3   OH273390   4.076   3.121   5.259  0.0783 -0.1511  0.2538
17300TIP3    H173391   4.045   3.035   5.287  0.4475 -0.2761  0.2917
17300TIP3    H273392   4.165   3.127   5.294  0.5135 -0.2640 -0.7933
17301TIP3   OH273393   4.898   4.530  15.317 -0.4175  0.1073 -0.0275
17301TIP3    H173394   4.812   4.535  15.358  1.0011  0.2461  3.2995
17301TIP3    H273395   4.956   4.499  15.387  2.1277 -0.7108 -2.3276
17302TIP3   OH273396   1.573   1.905  14.371 -0.1724  0.1489  0.0964
17302TIP3    H173397   1.492   1.855  14.364  0.3835 -0.7105 -0.4391
17302TIP3    H273398   1.638   1.842  14.400  0.8611  0.1669 -1.9334
17303TIP3   OH273399   0.761   4.850  10.610 -0.0280 -0.4415 -0.0265
17303TIP3    H173400   0.835   4.894  10.651 -0.9357  0.3581  0.7945
17303TIP3    H273401   0.795   4.820  10.526  0.6810  1.7170 -0.5774
17304TIP3   OH273402   1.642   4.325   4.906  0.0525  0.3268  0.1192
17304TIP3    H173403   1.575   4.270   4.946 -0.1079 -1.8556 -2.7676
17304TIP3    H273404   1.654   4.398   4.966 -2.6015 -0.8617  2.2600
17305TIP3   OH273405   4.264   4.800   1.469 -0.0152 -0.4598 -0.7060
17305TIP3    H173406   4.215   4.757   1.399  0.7820  0.3239 -1.7841
17305TIP3    H273407   4.307   4.729   1.516 -0.2212 -0.9734 -1.2858
17306TIP3   OH273408   0.398   6.061  11.752  0.7551 -0.5897 -0.1252
17306TIP3    H173409   0.375   5.994  11.817  0.3377  0.4543  0.8441
17306TIP3    H273410   0.452   6.123  11.801 -1.9302  1.7893  0.0962
17307TIP3   OH273411   3.354   4.655  16.533 -0.1316 -0.0156  0.4555
17307TIP3    H173412   3.403   4.621  16.458 -1.7341 -0.1522 -0.5675
17307TIP3    H273413   3.270   4.682  16.497 -0.8997  0.0424  2.1831
17308TIP3   OH273414   0.706   1.815   0.945  0.2408 -0.3579 -0.1703
17308TIP3    H173415   0.628   1.786   0.897  1.0684 -2.1179 -0.5287
17308TIP3    H273416   0.729   1.899   0.905  0.0877 -1.1089 -1.9291
17309TIP3   OH273417   0.191   1.600   1.885 -0.0714 -0.0269 -0.0730
17309TIP3    H173418   0.189   1.539   1.959  0.9930  0.6459  0.5445
17309TIP3    H273419   0.116   1.658   1.900  0.1310  0.1003  0.4949
17310TIP3   OH273420   2.863   0.086   4.380 -0.0687  0.0225  0.0895
17310TIP3    H173421   2.913   0.008   4.403  1.0517  0.6151 -0.2332
17310TIP3    H273422   2.800   0.056   4.314 -0.4175 -0.8107  0.7771
17311TIP3   OH273423   2.382   6.692   3.691  0.0917  0.4384  0.0413
17311TIP3    H173424   2.349   6.606   3.717 -1.0204  0.7011 -0.4615
17311TIP3    H273425   2.455   6.708   3.751  1.1481 -1.3966 -0.6761
17312TIP3   OH273426   1.096   1.702   2.683  0.0546 -0.1399  0.9678
17312TIP3    H173427   1.077   1.618   2.725  0.5550 -0.7239  0.0715
17312TIP3    H273428   1.192   1.705   2.679  0.0229 -0.0020  0.1012
17313TIP3   OH273429   0.653   3.844   6.405  0.6860 -0.0550 -0.5243
17313TIP3    H173430   0.558   3.853   6.408  0.6694 -0.3590  0.1664
17313TIP3    H273431   0.671   3.765   6.455  1.2638 -0.3393 -1.1691
17314TIP3   OH273432   0.992   1.955   1.695 -0.5553 -0.3532 -0.2022
17314TIP3    H173433   0.964   2.046   1.693  1.1853  0.2054 -1.3383
17314TIP3    H273434   0.965   1.923   1.781 -1.2128  1.2139  0.2044
17315TIP3   OH273435   3.123   5.331   5.157  0.0133  0.2577 -0.1728
17315TIP3    H173436   3.091   5.406   5.108  0.0072  0.0052 -0.5567
17315TIP3    H273437   3.196   5.365   5.209 -0.4824  0.7001  0.2492
17316TIP3   OH273438   0.570   4.873  11.559 -0.0934  0.2802 -1.2453
17316TIP3    H173439   0.539   4.856  11.648 -0.6358  0.7844 -1.3292
17316TIP3    H273440   0.528   4.806  11.505 -1.5611  1.3144 -1.4508
17317TIP3   OH273441   2.156   0.406   0.579  0.2806  0.0545 -0.5154
17317TIP3    H173442   2.149   0.433   0.488  0.2191 -0.2350 -0.5964
17317TIP3    H273443   2.233   0.454   0.612 -1.0465  1.9685 -0.0605
17318TIP3   OH273444   6.300   2.017   1.970 -0.7756  0.0513 -0.3180
17318TIP3    H173445   6.387   2.036   2.004 -0.7484 -1.6124  0.6586
17318TIP3    H273446   6.241   2.065   2.027 -0.6211 -1.0981  0.8426
17319TIP3   OH273447   6.181   5.709  16.841 -0.3154 -0.4603 -0.0003
17319TIP3    H173448   6.149   5.690  16.753 -1.2455  0.2123  0.1866
17319TIP3    H273449   6.268   5.668  16.844 -1.2035 -2.5186 -0.4401
17320TIP3   OH273450   3.618   4.250  13.616 -0.8028  0.5345 -0.3598
17320TIP3    H173451   3.525   4.248  13.635 -0.5079 -3.5617  1.6586
17320TIP3    H273452   3.658   4.285  13.696 -0.4666 -1.9784  0.6585
17321TIP3   OH273453   3.826   2.024   1.050  0.5038  0.4094  0.0769
17321TIP3    H173454   3.743   2.072   1.054  1.6868  2.5127  1.2210
17321TIP3    H273455   3.866   2.052   0.968 -0.0565 -0.9288 -0.6813
17322TIP3   OH273456   5.152   4.619  11.102 -0.7465 -0.2242  0.2825
17322TIP3    H173457   5.233   4.620  11.154 -1.2936  0.0669  1.1448
17322TIP3    H273458   5.175   4.665  11.022  0.0591 -0.5008  0.3466
17323TIP3   OH273459   6.187   3.526  14.389 -0.2221 -0.4359  0.0812
17323TIP3    H173460   6.199   3.496  14.479  1.4228 -0.8314 -0.2497
17323TIP3    H273461   6.274   3.552  14.360 -1.1399  2.2821 -0.5140
17324TIP3   OH273462   1.390   6.455  16.029  0.5941  0.4651  0.1221
17324TIP3    H173463   1.473   6.487  15.994 -0.0664  2.9856  0.7014
17324TIP3    H273464   1.323   6.496  15.974 -0.3313  0.0144  0.8771
17325TIP3   OH273465   3.462   4.776  17.173 -0.4596 -0.2817 -0.1866
17325TIP3    H173466   3.436   4.845  17.112  0.5488  0.3154  0.0448
17325TIP3    H273467   3.558   4.781  17.176 -0.3523 -1.8959 -0.3962
17326TIP3   OH273468   0.247   0.355   1.791  0.0819 -0.1381  0.1858
17326TIP3    H173469   0.172   0.341   1.734 -0.9264  1.3753  1.0704
17326TIP3    H273470   0.317   0.381   1.731 -0.3961 -0.4767 -0.5454
17327TIP3   OH273471   6.136   0.689  15.983 -0.0938  0.0012 -0.4396
17327TIP3    H173472   6.227   0.695  15.953 -0.7613  0.2939 -2.5286
17327TIP3    H273473   6.139   0.721  16.073  1.6345  1.6257 -1.0080
17328TIP3   OH273474   0.165   2.304  11.074 -0.7644  0.1031  0.0139
17328TIP3    H173475   0.194   2.278  10.987 -0.1158 -1.9865  0.7878
17328TIP3    H273476   0.245   2.324  11.122 -0.8301 -1.6805  0.9576
17329TIP3   OH273477   4.028   0.921   2.762  0.0943 -0.1151  0.4025
17329TIP3    H173478   4.069   0.839   2.792 -1.1544 -1.1232 -0.5386
17329TIP3    H273479   4.037   0.980   2.837  0.8897 -1.1497  1.1626
17330TIP3   OH273480   6.136   4.650   5.336  0.7919 -0.1444 -0.2574
17330TIP3    H173481   6.106   4.741   5.339 -0.3442 -0.4604 -1.5700
17330TIP3    H273482   6.057   4.598   5.343  1.5359 -1.1203  2.0548
17331TIP3   OH273483   4.961   3.804  14.434  0.1463  0.0507  0.1544
17331TIP3    H173484   4.980   3.775  14.345 -0.6568 -0.3283  0.0996
17331TIP3    H273485   4.959   3.899  14.428 -2.4014  0.0071 -0.7992
17332TIP3   OH273486   4.926   4.576   3.793  0.2413 -0.1863  0.0086
17332TIP3    H173487   4.862   4.586   3.864  1.0062  0.1534  0.6636
17332TIP3    H273488   5.010   4.597   3.833  0.7817 -0.6886 -0.8265
17333TIP3   OH273489   5.977   4.187   6.279  0.2706  0.3907  0.0563
17333TIP3    H173490   6.065   4.214   6.253  0.5225 -1.5707 -1.3245
17333TIP3    H273491   5.992   4.123   6.349 -0.1002  0.5751  0.3049
17334TIP3   OH273492   1.957   5.025  13.238  0.7494 -0.3811  0.3841
17334TIP3    H173493   1.918   5.064  13.316  0.7115 -0.6850  0.5190
17334TIP3    H273494   1.982   5.100  13.184 -0.2044 -0.1705  0.2061
17335TIP3   OH273495   0.058   2.320  15.093 -0.3993  0.3617  0.2036
17335TIP3    H173496   0.078   2.367  15.011 -0.6990  2.4859  1.2765
17335TIP3    H273497  -0.026   2.356  15.121  0.2474  0.5587  2.0292
17336TIP3   OH273498   4.944   4.910   0.877  0.6598 -0.0452  0.0334
17336TIP3    H173499   4.977   4.999   0.888  0.0503  0.0585  1.1424
17336TIP3    H273500   4.889   4.894   0.954  0.9564 -1.4768 -0.0125
17337TIP3   OH273501   4.848   4.872   4.321 -0.1581 -0.2132 -0.1643
17337TIP3    H173502   4.884   4.960   4.330 -0.6729  0.0697 -0.7572
17337TIP3    H273503   4.910   4.826   4.264  1.2130 -0.8996  1.8081
17338TIP3   OH273504   3.043   2.289  12.450 -0.2022 -0.2872  0.1292
17338TIP3    H173505   2.979   2.322  12.513 -1.2415 -2.6719  0.4068
17338TIP3    H273506   3.075   2.208  12.487  1.8657  0.0425 -0.7725
17339TIP3   OH273507   6.795   4.697  11.717 -0.0117  0.0261  0.3918
17339TIP3    H173508   6.765   4.755  11.787  0.8245  1.0241 -0.0501
17339TIP3    H273509   6.851   4.752  11.662 -0.8344 -0.6616 -1.2137
17340TIP3   OH273510   1.631   4.991  16.173 -0.4765  0.4187 -1.0145
17340TIP3    H173511   1.691   4.972  16.101 -0.5149  1.1925 -1.2617
17340TIP3    H273512   1.599   5.080  16.155 -2.1334 -0.1753 -1.1825
17341TIP3   OH273513   6.827   5.903   1.453 -0.0398 -0.3097  0.5329
17341TIP3    H173514   6.749   5.958   1.445  0.1141 -0.3450 -2.0510
17341TIP3    H273515   6.879   5.923   1.375  0.8862 -2.7808  0.4161
17342TIP3   OH273516   5.204   2.633   5.696  0.3639  0.2465 -0.3236
17342TIP3    H173517   5.238   2.626   5.785  2.6782  1.5378 -1.0257
17342TIP3    H273518   5.170   2.545   5.677  1.8157 -0.6733  1.0607
17343TIP3   OH273519   1.054   5.605  13.846  0.0721  0.4796  0.1970
17343TIP3    H173520   0.993   5.532  13.842  0.4457  0.0670  1.6343
17343TIP3    H273521   1.029   5.661  13.772 -2.7392  0.8698  1.3207
17344TIP3   OH273522   4.477   6.691   0.955 -0.1614  0.2478 -0.1296
17344TIP3    H173523   4.417   6.679   1.028 -0.2914  3.9124  0.5499
17344TIP3    H273524   4.425   6.668   0.878 -1.1025 -0.4596  0.6871
17345TIP3   OH273525   0.215   3.905  13.733 -0.8489  0.1503  0.1283
17345TIP3    H173526   0.233   3.840  13.801  0.2206 -0.5291 -0.7602
17345TIP3    H273527   0.212   3.855  13.651  0.4194  1.2327 -0.6353
17346TIP3   OH273528   6.016   3.914  11.306  0.1828 -0.0233  0.1461
17346TIP3    H173529   6.046   3.973  11.237  1.0929 -0.7555 -0.1205
17346TIP3    H273530   5.942   3.867  11.268 -1.4374  1.8681  0.8360
17347TIP3   OH273531   3.958   5.282  13.492 -0.2148  0.6712 -0.1028
17347TIP3    H173532   4.027   5.265  13.556 -0.6227 -0.3584  0.0911
17347TIP3    H273533   4.003   5.302  13.411  0.3140  1.7134  0.4303
17348TIP3   OH273534   0.501   3.036   3.441  0.2807 -0.4656  0.0368
17348TIP3    H173535   0.491   2.947   3.476 -0.8189  0.1293  1.3223
17348TIP3    H273536   0.442   3.089   3.494  0.5148  0.9520 -1.0704
17349TIP3   OH273537   2.607   6.044  12.024  0.4250  0.7836 -0.0281
17349TIP3    H173538   2.521   6.083  12.011  0.0722 -0.2064 -0.7422
17349TIP3    H273539   2.668   6.116  12.011 -0.2250  1.1850 -0.9459
17350TIP3   OH273540   4.420   5.884   1.713 -0.4834  0.0403  0.6712
17350TIP3    H173541   4.327   5.907   1.715 -0.0525  1.9606  0.3906
17350TIP3    H273542   4.424   5.798   1.755 -2.1980  0.5668  2.0628
17351TIP3   OH273543   6.672   4.692  13.323 -0.5044  0.2829 -0.0665
17351TIP3    H173544   6.652   4.602  13.297  0.3033 -0.0167  0.3245
17351TIP3    H273545   6.724   4.727  13.251  0.3961 -0.0358  0.4176
17352TIP3   OH273546   0.181   0.092  11.887  0.4545 -0.7876  0.1993
17352TIP3    H173547   0.157  -0.000  11.899  0.3331 -0.6410  1.1681
17352TIP3    H273548   0.133   0.119  11.809 -2.7088 -0.5006  2.0734
17353TIP3   OH273549   5.179   4.950  12.778 -0.5891 -0.2761 -0.3934
17353TIP3    H173550   5.120   4.919  12.709 -2.3653 -1.0283  1.3416
17353TIP3    H273551   5.205   4.871  12.824  0.6835  0.1986 -0.2737
17354TIP3   OH273552   4.229   1.427  16.595  0.5309  0.7456  0.3712
17354TIP3    H173553   4.173   1.400  16.669  1.9106  0.5783  1.3906
17354TIP3    H273554   4.204   1.368  16.524 -0.4157  0.5067  0.8772
17355TIP3   OH273555   6.109   1.424  15.053  0.6620 -0.1059  0.4035
17355TIP3    H173556   6.148   1.511  15.063 -0.9397  0.4451  2.9486
17355TIP3    H273557   6.135   1.377  15.132 -1.0057 -0.8324  0.5638
17356TIP3   OH273558   4.480   0.926  14.015 -0.6449 -0.5049  0.1565
17356TIP3    H173559   4.493   0.835  14.040  2.1561 -0.1893  0.1788
17356TIP3    H273560   4.391   0.947  14.044 -0.4407 -2.4597  2.4584
17357TIP3   OH273561   0.814   3.399  16.277 -0.2297 -0.2629  0.2287
17357TIP3    H173562   0.811   3.303  16.281 -0.0870 -0.2812 -0.0416
17357TIP3    H273563   0.896   3.418  16.232 -0.3262 -0.0158  0.1568
17358TIP3   OH273564   2.891   5.812   4.738 -0.1134  0.1393  0.7066
17358TIP3    H173565   2.923   5.900   4.718 -2.2284  0.9079  0.4074
17358TIP3    H273566   2.959   5.754   4.705  1.0282  1.6494  0.2851
17359TIP3   OH273567   0.765   5.567   6.320  0.0928 -0.1539 -0.4029
17359TIP3    H173568   0.681   5.609   6.337  0.7473  0.6298  1.0630
17359TIP3    H273569   0.747   5.504   6.251 -1.6920  0.0066 -0.1139
17360TIP3   OH273570   3.576   3.593  13.801  0.1255 -0.4676  0.0610
17360TIP3    H173571   3.552   3.589  13.709  1.7842  1.2005 -0.4848
17360TIP3    H273572   3.666   3.560  13.805 -0.8455 -3.3389  1.5804
17361TIP3   OH273573   5.042   2.891  12.656 -0.7053 -0.0793 -0.1661
17361TIP3    H173574   5.018   2.970  12.607  0.8939  0.4719 -0.1173
17361TIP3    H273575   4.978   2.826  12.629 -1.3889  0.9225 -1.0557
17362TIP3   OH273576   3.168   2.091   0.384  0.6331 -0.4055  0.5085
17362TIP3    H173577   3.244   2.074   0.328 -1.1540  0.2118 -2.3057
17362TIP3    H273578   3.182   2.035   0.461  2.1065 -3.1877 -1.5954
17363TIP3   OH273579   3.177   0.290   5.822 -0.0600 -0.0971  0.5325
17363TIP3    H173580   3.092   0.314   5.860  0.1379  1.9400 -0.1678
17363TIP3    H273581   3.227   0.256   5.895 -2.4922 -4.6724  0.4043
17364TIP3   OH273582   3.550   1.020  11.774  0.3862 -0.3553 -0.6447
17364TIP3    H173583   3.579   1.107  11.801 -0.0629 -0.4223  0.0701
17364TIP3    H273584   3.498   1.036  11.696 -0.2377  0.0898 -0.1446
17365TIP3   OH273585   2.701   5.815  13.907  0.3754 -0.0615 -0.0955
17365TIP3    H173586   2.749   5.754  13.964  0.4731 -2.3110 -2.3777
17365TIP3    H273587   2.744   5.806  13.821 -1.3155  1.2410 -1.1357
17366TIP3   OH273588   1.497   5.837   4.205  0.0120 -0.5582 -0.0184
17366TIP3    H173589   1.429   5.902   4.190 -1.6877 -1.5946  2.4653
17366TIP3    H273590   1.464   5.758   4.162  0.9369 -0.4097 -1.0291
17367TIP3   OH273591   6.136   3.569   1.166 -0.6377 -0.3687  0.1316
17367TIP3    H173592   6.099   3.567   1.077  0.7577 -1.2991 -0.4704
17367TIP3    H273593   6.198   3.642   1.164  2.2074 -2.6112 -0.9464
17368TIP3   OH273594   0.065   2.941   6.735 -0.1600  0.0087 -0.3848
17368TIP3    H173595   0.054   3.035   6.743  0.5477  0.0104  0.7266
17368TIP3    H273596   0.156   2.930   6.706 -0.1362 -0.3341 -0.1895
17369TIP3   OH273597   4.283   0.412  16.471 -0.1561  0.0586  0.2308
17369TIP3    H173598   4.200   0.447  16.437 -0.2580  1.9012  2.2239
17369TIP3    H273599   4.257   0.349  16.538  0.0843 -1.8506 -1.3716
17370TIP3   OH273600   5.332   2.735  10.538 -0.1731  0.5651  0.7139
17370TIP3    H173601   5.427   2.743  10.547  0.0944 -1.2360 -0.1159
17370TIP3    H273602   5.317   2.645  10.512 -2.2619  0.3125  2.4244
17371TIP3   OH273603   4.574   4.765  13.314 -0.2572 -0.7239 -0.0136
17371TIP3    H173604   4.666   4.756  13.289 -0.6394  0.7313 -2.2551
17371TIP3    H273605   4.576   4.774  13.409  1.8107 -1.7054  0.0902
17372TIP3   OH273606   4.745   3.030  15.504 -0.3575 -0.0249  0.2649
17372TIP3    H173607   4.734   2.966  15.574 -0.3756 -0.6304 -0.2849
17372TIP3    H273608   4.806   3.094  15.540  1.7516 -1.7321 -0.0729
17373TIP3   OH273609   2.289   4.416  13.016  0.8542 -0.2544 -0.4273
17373TIP3    H173610   2.372   4.427  13.064 -0.0370 -0.4410  1.2297
17373TIP3    H273611   2.235   4.490  13.044 -0.0246 -0.8868 -0.4309
17374TIP3   OH273612   1.160   0.481  16.709 -0.1351 -0.1085 -0.4619
17374TIP3    H173613   1.117   0.416  16.653  0.5730 -0.1963 -0.9226
17374TIP3    H273614   1.193   0.430  16.784 -2.0681  0.1814  0.6491
17375TIP3   OH273615   4.104   5.651  15.241  0.2364 -0.1120 -0.0570
17375TIP3    H173616   4.140   5.735  15.213  0.4447 -0.8189 -2.0649
17375TIP3    H273617   4.122   5.647  15.335  1.4228  1.4825 -0.1764
17376TIP3   OH273618   0.844   5.169  16.777  0.4490  0.1163 -0.1378
17376TIP3    H173619   0.760   5.127  16.760 -0.8993  2.8098 -0.7651
17376TIP3    H273620   0.864   5.147  16.868 -0.4623 -1.3207 -0.2630
17377TIP3   OH273621   5.120   6.596  12.807 -0.4020 -0.0971 -0.1487
17377TIP3    H173622   5.164   6.571  12.725 -1.2841 -0.2014 -0.6068
17377TIP3    H273623   5.164   6.677  12.834  0.7556 -0.7450 -0.0291
17378TIP3   OH273624   6.633   2.543   1.310  0.2716  0.0353 -0.3323
17378TIP3    H173625   6.704   2.605   1.294 -0.3591  0.7244 -0.5126
17378TIP3    H273626   6.668   2.482   1.375  0.0887  2.0648  1.8130
17379TIP3   OH273627   0.166   3.947  17.024  0.1652  0.6701 -0.6567
17379TIP3    H173628   0.169   3.976  17.115  0.6189 -2.6173  0.5047
17379TIP3    H273629   0.258   3.932  17.001 -0.0875 -0.3997 -0.9820
17380TIP3   OH273630   0.049   5.375   4.304 -0.1606  0.3377 -0.1485
17380TIP3    H173631   0.109   5.313   4.344 -1.8007 -1.1935  0.0573
17380TIP3    H273632   0.004   5.417   4.378  0.4593  1.3001 -0.3016
17381TIP3   OH273633   4.288   5.542  16.537 -0.1690  0.0241  0.1063
17381TIP3    H173634   4.226   5.615  16.536 -1.0149 -0.6814 -0.2204
17381TIP3    H273635   4.250   5.480  16.599  1.6586  0.7644  2.1399
17382TIP3   OH273636   1.590   0.897   2.276 -0.1565  0.0753 -0.2662
17382TIP3    H173637   1.583   0.863   2.366 -0.9393  0.8334 -0.0229
17382TIP3    H273638   1.644   0.975   2.285  0.8088 -0.5252 -0.6687
17383TIP3   OH273639   6.212   4.360   2.771 -0.0217  0.2505 -0.0497
17383TIP3    H173640   6.281   4.304   2.736  0.3937  2.0168 -2.3303
17383TIP3    H273641   6.146   4.364   2.701 -2.5221 -1.3120  2.0228
17384TIP3   OH273642   4.121   5.021  16.517 -0.1181 -0.1246 -0.0912
17384TIP3    H173643   4.058   5.017  16.588 -0.4391  1.4266 -0.2648
17384TIP3    H273644   4.199   5.061  16.555  0.1052 -0.3085 -0.3458
17385TIP3   OH273645   3.302   3.618   2.088 -0.1371 -0.1663 -0.1468
17385TIP3    H173646   3.312   3.546   2.025  2.6010 -0.5367  0.5963
17385TIP3    H273647   3.233   3.588   2.148 -1.2079 -0.7741 -1.6257
17386TIP3   OH273648   0.125   0.203   2.479 -0.2691  1.0504  0.3323
17386TIP3    H173649   0.200   0.260   2.496  0.4535  0.3753 -0.4966
17386TIP3    H273650   0.156   0.142   2.412 -1.5956  0.8155 -0.0934
17387TIP3   OH273651   3.750   5.862  14.367  0.3752 -0.2039 -0.1107
17387TIP3    H173652   3.794   5.946  14.375  0.2374 -0.2671  2.3546
17387TIP3    H273653   3.668   5.874  14.416 -0.7657 -1.1078 -1.6993
17388TIP3   OH273654   1.753   0.771   2.871  0.1774  0.2108  0.1254
17388TIP3    H173655   1.682   0.768   2.808 -0.0068  0.1271  0.3377
17388TIP3    H273656   1.715   0.740   2.953  0.6449 -0.5544  0.0651
17389TIP3   OH273657   5.248   5.024  16.066  0.2570 -0.7574  0.6683
17389TIP3    H173658   5.199   4.975  16.132 -0.7036  0.4094  0.8413
17389TIP3    H273659   5.309   5.078  16.116  1.4566 -1.8744  0.4677
17390TIP3   OH273660   0.386   0.978   2.533 -0.3253  0.0735 -0.2105
17390TIP3    H173661   0.377   1.055   2.588  1.1718 -0.0966  0.3305
17390TIP3    H273662   0.352   0.906   2.586 -1.3614  0.2993 -0.5636
17391TIP3   OH273663   0.593   2.322  11.750 -0.3871  0.2530 -0.3970
17391TIP3    H173664   0.603   2.395  11.690 -0.4213 -0.4620 -1.2936
17391TIP3    H273665   0.516   2.344  11.802  1.2116  2.2019  1.3416
17392TIP3   OH273666   6.564   4.106  10.955 -0.1684  0.2499 -0.0102
17392TIP3    H173667   6.650   4.100  10.914  0.9958 -0.0004  2.3176
17392TIP3    H273668   6.505   4.063  10.894  1.3434  0.4091 -1.6529
17393TIP3   OH273669   0.507   6.359   5.414 -0.0760 -0.1495 -0.1355
17393TIP3    H173670   0.572   6.421   5.380  1.3764 -2.0341 -1.0829
17393TIP3    H273671   0.510   6.286   5.351  1.5549 -3.1555  3.0496
17394TIP3   OH273672   5.086   5.808   0.193  0.0266  0.2441  0.2239
17394TIP3    H173673   5.068   5.721   0.156 -1.3483  0.6365 -0.1239
17394TIP3    H273674   5.142   5.850   0.129  0.2768 -0.2070  0.1416
17395TIP3   OH273675   0.533   2.008   5.209  0.0867  0.7753 -0.0603
17395TIP3    H173676   0.476   1.976   5.139 -2.5977  0.7001  1.9946
17395TIP3    H273677   0.607   1.947   5.210 -0.2706  0.2296 -2.1583
17396TIP3   OH273678   5.159   4.365  12.006  0.1136 -0.3830 -0.0672
17396TIP3    H173679   5.244   4.347  11.965  0.2299 -0.6303  0.2812
17396TIP3    H273680   5.181   4.397  12.093 -0.0963  1.0829 -0.5293
17397TIP3   OH273681   0.918   2.419   4.684 -0.5025  0.2819 -0.3399
17397TIP3    H173682   0.860   2.426   4.609  1.0401 -0.4711 -1.6522
17397TIP3    H273683   0.974   2.497   4.680  0.1457 -0.1775 -0.4930
17398TIP3   OH273684   6.559   3.203  13.527  0.3849 -0.0370  0.3190
17398TIP3    H173685   6.528   3.128  13.476  0.7692 -0.8297  1.1999
17398TIP3    H273686   6.608   3.257  13.465  1.5665 -1.3978  0.0125
17399TIP3   OH273687   5.198   1.219   0.270  0.2763 -0.0778 -0.2901
17399TIP3    H173688   5.195   1.140   0.324 -1.0140  0.5948  0.6591
17399TIP3    H273689   5.133   1.203   0.201  0.2997 -0.0139 -0.3273
17400TIP3   OH273690   0.768   1.050  16.804  0.1918  0.1550 -0.2886
17400TIP3    H173691   0.680   1.071  16.772  1.6326  1.5705 -3.9238
17400TIP3    H273692   0.788   1.119  16.867 -1.2665 -0.1813  0.5745
17401TIP3   OH273693   1.266   1.982  15.479  0.5854  0.0681  0.1680
17401TIP3    H173694   1.357   1.988  15.506  0.5404 -0.5748  0.4736
17401TIP3    H273695   1.265   2.015  15.389  1.3252 -1.0168 -0.2597
17402TIP3   OH273696   5.917   1.744  15.743  0.2962  0.8250  0.2633
17402TIP3    H173697   5.952   1.827  15.775  0.4452  0.9926 -0.3237
17402TIP3    H273698   5.823   1.750  15.759  0.4531  0.5672  1.4105
17403TIP3   OH273699   3.395   4.044  14.611  0.1464  0.2790  0.1069
17403TIP3    H173700   3.359   4.041  14.522 -0.2392 -2.2753  0.2655
17403TIP3    H273701   3.318   4.051  14.668  0.2474  0.0114  0.2807
17404TIP3   OH273702   3.445   6.312  12.266 -0.5501  0.1684  0.4183
17404TIP3    H173703   3.441   6.226  12.307  0.2578  0.3792  0.9640
17404TIP3    H273704   3.421   6.373  12.336  1.4572  0.5824  0.8180
17405TIP3   OH273705   4.883   5.877  15.270 -0.2668  0.2416 -0.3070
17405TIP3    H173706   4.858   5.803  15.214  2.1570 -0.3481 -0.7446
17405TIP3    H273707   4.921   5.836  15.348 -0.1207  1.0254  0.0350
17406TIP3   OH273708   4.305   1.907   3.977  0.1161  0.2738 -0.0182
17406TIP3    H173709   4.366   1.874   3.910  0.0861 -0.8765  0.4884
17406TIP3    H273710   4.354   1.902   4.059 -0.2570  0.4858  0.2198
17407TIP3   OH273711   1.649   5.575  16.356 -0.6772 -0.1510 -0.2363
17407TIP3    H173712   1.664   5.669  16.351 -0.7664 -0.1851 -1.5376
17407TIP3    H273713   1.734   5.538  16.378 -0.2015  0.1066 -1.5824
17408TIP3   OH273714   5.624   1.516   1.852  0.0692  0.2415 -0.8527
17408TIP3    H173715   5.616   1.589   1.913  0.1265  1.4802 -2.2595
17408TIP3    H273716   5.548   1.525   1.795 -0.3342 -1.2718 -0.5917
17409TIP3   OH273717   6.603   3.339   0.632  0.0955  0.3702 -0.2073
17409TIP3    H173718   6.566   3.277   0.569  1.5417  0.7791 -1.5381
17409TIP3    H273719   6.698   3.332   0.620  0.7037 -1.6182  4.0011
17410TIP3   OH273720   6.741   5.499  12.374  0.2377  0.2421 -0.6398
17410TIP3    H173721   6.690   5.478  12.296 -0.4003 -0.8954  0.0685
17410TIP3    H273722   6.680   5.490  12.447  0.4544  2.6437 -0.0806
17411TIP3   OH273723   5.735   0.324   4.478 -0.0232 -0.8143 -0.0945
17411TIP3    H173724   5.766   0.371   4.401 -2.1270  2.8279  1.0271
17411TIP3    H273725   5.660   0.273   4.447  0.5527 -1.2270 -0.8386
17412TIP3   OH273726   0.365   5.544   0.313 -0.1424 -0.0844 -0.5495
17412TIP3    H173727   0.410   5.602   0.375  0.0685 -2.2146  1.4648
17412TIP3    H273728   0.428   5.530   0.243  1.3760 -0.9031  0.8984
17413TIP3   OH273729   2.308   4.266  16.237  0.5788  0.4659  0.6203
17413TIP3    H173730   2.335   4.255  16.146  0.1382 -1.4908  0.6652
17413TIP3    H273731   2.378   4.316  16.278  2.0264 -0.7553 -0.2528
17414TIP3   OH273732   2.961   0.201  11.609  0.2222  0.5886 -0.8650
17414TIP3    H173733   3.035   0.239  11.561  0.2943  0.5496 -0.7849
17414TIP3    H273734   2.992   0.115  11.637  2.3481  2.6060  4.1581
17415TIP3   OH273735   3.212   5.801  15.707 -0.0846  0.1979 -0.3224
17415TIP3    H173736   3.117   5.799  15.692 -0.4001  0.2472  1.4106
17415TIP3    H273737   3.226   5.881  15.758  0.9469  0.3678 -0.8582
17416TIP3   OH273738   4.651   0.387  11.713  0.0301 -0.0967 -0.3730
17416TIP3    H173739   4.678   0.361  11.801 -0.1491 -1.9878 -0.8277
17416TIP3    H273740   4.728   0.431  11.676  0.4621 -0.2248  0.3600
17417TIP3   OH273741   5.830   6.661  13.381 -0.0304  0.2880  0.1909
17417TIP3    H173742   5.904   6.700  13.335  1.3192  0.3853  2.2651
17417TIP3    H273743   5.794   6.597  13.320  1.9938 -0.0103 -0.7727
17418TIP3   OH273744   6.289   0.066  12.846  0.5265  0.2903  0.0648
17418TIP3    H173745   6.196   0.041  12.848  0.3190  0.8303 -1.5140
17418TIP3    H273746   6.288   0.158  12.821  1.4708  0.6037  1.1210
17419TIP3   OH273747   5.250   3.789   6.231 -0.4441  0.8490  0.4766
17419TIP3    H173748   5.297   3.707   6.247 -0.7476  0.2545 -1.4480
17419TIP3    H273749   5.315   3.858   6.250  0.3690  0.1156  0.4032
17420TIP3   OH273750   1.612   3.479  13.472  0.5061  0.9982 -0.7480
17420TIP3    H173751   1.565   3.407  13.513 -0.8084  2.8783  1.1880
17420TIP3    H273752   1.659   3.522  13.543  0.5808  2.5783 -1.6942
17421TIP3   OH273753   0.990   6.343  17.105 -0.1274  0.1742 -0.3783
17421TIP3    H173754   0.939   6.419  17.076 -1.4320 -0.1239  1.0361
17421TIP3    H273755   1.049   6.325  17.031 -2.2283  0.3797 -2.2351
17422TIP3   OH273756   3.210   5.992  15.039 -0.2417 -0.5229 -0.4153
17422TIP3    H173757   3.252   6.078  15.047 -1.4242 -0.0408  1.0870
17422TIP3    H273758   3.276   5.937  14.996  1.3456  0.5970  0.4898
17423TIP3   OH273759   6.184   6.527   4.277 -0.2689  0.4121 -0.4065
17423TIP3    H173760   6.202   6.460   4.343 -1.6534  0.1225 -0.2947
17423TIP3    H273761   6.233   6.604   4.307 -0.1946  0.0287  0.4863
17424TIP3   OH273762   3.980   0.836   3.194  0.3061  0.0653 -0.1693
17424TIP3    H173763   3.887   0.829   3.174  0.9139 -0.5913 -3.3744
17424TIP3    H273764   4.007   0.748   3.218  0.2790  0.0625 -0.1491
17425TIP3   OH273765   1.435   5.599   1.380 -0.0650  0.3238  0.1354
17425TIP3    H173766   1.406   5.526   1.326 -0.0133  1.1305 -1.0103
17425TIP3    H273767   1.461   5.667   1.317  0.9630  0.9135  1.1576
17426TIP3   OH273768   4.107   5.026  13.977  0.3890  0.3603  0.0060
17426TIP3    H173769   4.049   5.041  14.052  1.9435 -0.3761  1.4348
17426TIP3    H273770   4.066   4.953  13.929 -1.1827  1.5365 -0.5219
17427TIP3   OH273771   5.609   2.717   5.310  0.1320 -0.4817 -0.3914
17427TIP3    H173772   5.558   2.674   5.379  0.5741 -0.7315 -0.2209
17427TIP3    H273773   5.563   2.694   5.229 -0.4356 -0.1192 -0.1795
17428TIP3   OH273774   2.484   3.044   1.735 -0.1326 -0.1863  0.4854
17428TIP3    H173775   2.557   3.101   1.760  0.4434 -0.2971 -0.8498
17428TIP3    H273776   2.519   2.956   1.741 -0.4343 -0.2940  0.6944
17429TIP3   OH273777   4.683   2.223  11.691 -0.5251  0.4054 -0.0244
17429TIP3    H173778   4.600   2.252  11.729  0.3769  0.7426  1.7728
17429TIP3    H273779   4.750   2.272  11.739  0.8051 -1.0579 -0.3107
17430TIP3   OH273780   5.385   4.891   5.093  0.1134 -0.2996  0.0138
17430TIP3    H173781   5.376   4.802   5.127  0.1347 -0.4511 -0.3716
17430TIP3    H273782   5.322   4.896   5.021  0.7537 -0.2997 -0.5563
17431TIP3   OH273783   0.610   5.005   5.597  0.3427 -0.0531 -0.2202
17431TIP3    H173784   0.659   5.006   5.679  1.1764  2.3852 -0.6446
17431TIP3    H273785   0.671   4.967   5.533  0.1905 -0.7088  0.0223
17432TIP3   OH273786   2.102   3.815   6.139  0.0790 -0.3981  0.3891
17432TIP3    H173787   2.055   3.895   6.162 -1.1596 -1.3265  1.2163
17432TIP3    H273788   2.153   3.793   6.217  0.0912 -0.6429  0.3148
17433TIP3   OH273789   1.044   0.384  14.544  0.7652 -0.2241 -0.3500
17433TIP3    H173790   1.013   0.469  14.513 -0.1960 -0.7292 -0.8280
17433TIP3    H273791   1.072   0.339  14.465  0.8126 -0.5266 -0.1595
17434TIP3   OH273792   3.169   1.480   6.029 -0.0086 -0.0931  0.4820
17434TIP3    H173793   3.152   1.392   6.063 -0.1195  0.4082  1.7656
17434TIP3    H273794   3.264   1.488   6.026  0.0004 -0.1174  0.7300
17435TIP3   OH273795   5.129   5.734   1.198  0.3523  0.0085  0.1504
17435TIP3    H173796   5.041   5.770   1.185 -0.4317 -2.1780 -1.2181
17435TIP3    H273797   5.149   5.750   1.290 -1.0048  1.5033  0.2245
17436TIP3   OH273798   6.409   4.632   0.781  0.2446  0.0079 -0.2786
17436TIP3    H173799   6.423   4.595   0.694 -2.3016  1.6278 -1.5019
17436TIP3    H273800   6.346   4.573   0.823  0.1811  0.1420 -0.1849
17437TIP3   OH273801   0.186   5.622   2.572 -0.4594  0.2551 -0.3284
17437TIP3    H173802   0.137   5.668   2.640 -0.8603  2.4715 -2.0223
17437TIP3    H273803   0.157   5.531   2.580 -0.9406  0.5394  2.0256
17438TIP3   OH273804   2.873   5.852   0.718  0.2565 -0.2201  0.4523
17438TIP3    H173805   2.911   5.918   0.776 -0.2444 -0.3152  0.9024
17438TIP3    H273806   2.945   5.794   0.695  0.4429 -0.2383  1.0645
17439TIP3   OH273807   2.791   4.333  16.844  0.0782 -0.4900 -0.5140
17439TIP3    H173808   2.772   4.313  16.752 -1.5753 -0.4496 -0.2136
17439TIP3    H273809   2.799   4.247  16.885 -2.6863 -0.6362 -0.0708
17440TIP3   OH273810   5.070   5.421   1.636  0.4903 -0.4606  0.1374
17440TIP3    H173811   5.124   5.351   1.599 -0.6391 -0.6102 -1.3499
17440TIP3    H273812   5.008   5.375   1.693  0.2082 -0.6107 -0.2815
17441TIP3   OH273813   4.883   5.596   0.310 -0.1139  0.1338 -0.1841
17441TIP3    H173814   4.854   5.678   0.269  2.5111  2.0697  1.5113
17441TIP3    H273815   4.932   5.550   0.242  0.3930  1.1389 -0.5165
17442TIP3   OH273816   2.769   6.215  11.452 -0.4390  0.3303 -0.1664
17442TIP3    H173817   2.735   6.141  11.401 -0.3504  1.1338 -1.4572
17442TIP3    H273818   2.795   6.177  11.536 -0.4923 -1.0807 -0.7576
17443TIP3   OH273819   6.040   1.291   2.124 -0.3742 -0.1730 -0.5596
17443TIP3    H173820   6.036   1.315   2.217 -2.7734 -1.0815 -0.3379
17443TIP3    H273821   6.059   1.372   2.078 -0.1018  0.4784  0.6644
17444TIP3   OH273822   2.181   0.935  15.135 -0.1417  0.4330 -0.0747
17444TIP3    H173823   2.141   0.959  15.218  0.6570 -0.4300  0.5887
17444TIP3    H273824   2.130   0.981  15.069 -2.7329 -1.2142  0.6441
17445TIP3   OH273825   6.251   0.766  11.354 -0.3243 -0.5060 -0.5117
17445TIP3    H173826   6.253   0.837  11.290 -0.1964 -0.0863 -0.0493
17445TIP3    H273827   6.340   0.733  11.357 -0.1748 -0.0748 -0.0592
17446TIP3   OH273828   1.012   6.652   0.016  0.1550 -0.2184 -0.1257
17446TIP3    H173829   0.959   6.635   0.094 -0.9424  1.2524 -0.5061
17446TIP3    H273830   0.965   6.607  -0.054  1.1131 -1.4959  0.0013
17447TIP3   OH273831   3.944   3.127   3.546 -0.2094  0.0498 -0.1332
17447TIP3    H173832   3.894   3.064   3.598 -0.8996  1.6727  1.2923
17447TIP3    H273833   3.980   3.076   3.473  1.6019 -2.5923  2.3728
17448TIP3   OH273834   4.471   4.925  12.839  0.6773 -0.5198  0.6616
17448TIP3    H173835   4.535   4.993  12.816 -0.4802  0.4037  0.0434
17448TIP3    H273836   4.485   4.856  12.775  0.5077  0.0492 -0.0019
17449TIP3   OH273837   1.505   3.199  13.852  0.2650  0.1425  0.3015
17449TIP3    H173838   1.463   3.114  13.863 -0.9592  0.7126  0.1947
17449TIP3    H273839   1.583   3.181  13.801  0.1113 -0.9408  0.4304
17450TIP3   OH273840   5.431   0.306   4.804 -0.0393 -0.1276 -0.1008
17450TIP3    H173841   5.460   0.272   4.889 -0.7573  1.7493  0.9703
17450TIP3    H273842   5.335   0.303   4.808 -0.0788 -0.1648 -0.9046
17451TIP3   OH273843   5.903   4.245   3.993 -0.2275  0.3454 -0.1715
17451TIP3    H173844   5.808   4.233   3.989 -0.2329 -0.0195  0.7568
17451TIP3    H273845   5.939   4.168   3.948 -0.3777  0.6980 -0.8926
17452TIP3   OH273846   6.812   6.092  15.095  0.6953  0.3667  0.7773
17452TIP3    H173847   6.834   6.182  15.070 -2.4432  0.6572 -1.5478
17452TIP3    H273848   6.786   6.099  15.187 -0.2259  2.0077  0.4304
17453TIP3   OH273849   2.333   5.492  11.919  0.0183  0.0283 -0.0464
17453TIP3    H173850   2.362   5.571  11.964 -0.4410  0.8050 -1.0990
17453TIP3    H273851   2.259   5.520  11.866 -1.2438 -1.4518  0.8528
17454TIP3   OH273852   3.847   4.207  17.009 -0.4876  0.5077  0.4164
17454TIP3    H173853   3.852   4.150  17.086 -0.1675 -1.5212 -1.0297
17454TIP3    H273854   3.938   4.227  16.988 -0.6221  2.2323  1.3535
17455TIP3   OH273855   4.290   6.250   3.613  0.2341  0.1319 -0.1938
17455TIP3    H173856   4.346   6.181   3.647 -1.2950 -0.2362  1.7416
17455TIP3    H273857   4.204   6.234   3.653 -0.5268  2.3242 -0.7920
17456TIP3   OH273858   2.306   3.764   5.632 -0.1446  0.2881 -0.0622
17456TIP3    H173859   2.348   3.678   5.630 -0.5304  0.0796  0.5366
17456TIP3    H273860   2.248   3.761   5.707  0.4136  1.3514  0.4353
17457TIP3   OH273861   3.342   0.211   5.515  0.2750  0.6713 -0.5801
17457TIP3    H173862   3.276   0.154   5.554  1.1232 -0.3486 -0.6095
17457TIP3    H273863   3.318   0.299   5.546  0.0382  0.0864  1.0086
17458TIP3   OH273864   5.560   6.211   4.774 -0.2518  0.8185  0.1545
17458TIP3    H173865   5.465   6.199   4.766 -0.0316 -1.8040  0.5879
17458TIP3    H273866   5.575   6.219   4.869  0.1087 -0.5488  0.2194
17459TIP3   OH273867   1.980   1.403  16.171 -0.2680 -0.2254 -0.2904
17459TIP3    H173868   1.903   1.440  16.215  0.2142  0.3523  0.0865
17459TIP3    H273869   1.988   1.314  16.208  0.5104  0.4726  1.3270
17460TIP3   OH273870   4.812   2.066  12.871 -0.3558 -0.4272  0.0068
17460TIP3    H173871   4.740   2.004  12.858 -0.5469 -0.2741  0.2991
17460TIP3    H273872   4.779   2.126  12.939  0.3307 -0.8030  0.6910
17461TIP3   OH273873   2.586   2.434  14.505 -0.2628 -0.4731 -0.2551
17461TIP3    H173874   2.656   2.393  14.556  1.9677  1.0261 -1.8992
17461TIP3    H273875   2.520   2.365  14.495  0.4982 -1.6711  2.1520
17462TIP3   OH273876   2.042   0.599   4.574 -0.1140  0.5739 -0.0300
17462TIP3    H173877   2.062   0.685   4.610 -0.7791  1.0269 -0.7124
17462TIP3    H273878   2.126   0.555   4.567  0.8439  2.5939 -3.3018
17463TIP3   OH273879   2.277   0.147  15.937  0.7553  0.4226  0.0012
17463TIP3    H173880   2.332   0.220  15.969  1.0029  0.1295  0.2503
17463TIP3    H273881   2.282   0.082  16.007 -0.5868  0.7264  0.4119
17464TIP3   OH273882   5.412   5.084   1.820  0.5910  0.1395 -0.0092
17464TIP3    H173883   5.448   4.995   1.818  0.8395  0.2544 -0.6336
17464TIP3    H273884   5.487   5.140   1.833  0.4425  0.2684  0.3016
17465TIP3   OH273885   6.773   0.458   3.506 -0.2441  0.5241 -0.2178
17465TIP3    H173886   6.825   0.478   3.584 -1.5911  1.1934  0.5498
17465TIP3    H273887   6.786   0.364   3.492  1.2508  0.6966 -0.1341
17466TIP3   OH273888   2.745   6.609   1.364  0.5032  0.1779  0.3235
17466TIP3    H173889   2.731   6.576   1.452  2.3574  1.5870  1.2214
17466TIP3    H273890   2.831   6.576   1.339 -0.4955 -1.2629 -1.5378
17467TIP3   OH273891   2.887   0.811   2.316 -0.3979  0.3303  0.1080
17467TIP3    H173892   2.835   0.828   2.395  1.9355  0.3312  1.7254
17467TIP3    H273893   2.857   0.724   2.288  0.3468 -0.7965  2.4548
17468TIP3   OH273894   4.675   2.997  12.137  0.3131 -0.2982 -0.3639
17468TIP3    H173895   4.731   2.965  12.066 -0.8569 -0.5321 -1.2060
17468TIP3    H273896   4.631   3.073  12.100 -1.4480 -1.3115 -0.4395
17469TIP3   OH273897   4.249   2.956   2.159 -0.2939  0.1468  0.0198
17469TIP3    H173898   4.228   2.864   2.141  1.2106 -0.5846  1.5718
17469TIP3    H273899   4.188   2.981   2.228 -1.8207  0.8929 -1.5503
17470TIP3   OH273900   2.979   6.473   2.747 -0.1687  0.3964 -0.3591
17470TIP3    H173901   2.907   6.461   2.685 -0.1060 -0.0632 -0.3453
17470TIP3    H273902   2.967   6.562   2.780  0.0959  0.8351 -1.4071
17471TIP3   OH273903   0.871   0.739   0.192 -0.1286  0.0558  0.1194
17471TIP3    H173904   0.882   0.715   0.284 -1.2581 -0.8966  0.0317
17471TIP3    H273905   0.947   0.701   0.148 -0.2592 -0.6446  0.4728
17472TIP3   OH273906   6.557   2.226  14.045 -0.6517  0.1229 -0.1379
17472TIP3    H173907   6.501   2.210  13.970 -1.3059  0.6710  0.2256
17472TIP3    H273908   6.518   2.301  14.089  1.4229  1.7454 -0.9189
17473TIP3   OH273909   2.944   1.953  12.208  0.0570  0.3447 -0.3652
17473TIP3    H173910   2.964   1.956  12.302  0.1381 -0.6597 -0.3369
17473TIP3    H273911   2.932   2.045  12.183  0.4930  0.6576  0.5254
17474TIP3   OH273912   4.522   1.924  11.841  0.4738  0.7343  0.0901
17474TIP3    H173913   4.581   2.000  11.847  1.0259  0.2441  1.1386
17474TIP3    H273914   4.467   1.931  11.919 -0.1567  0.5989 -0.3359
17475TIP3   OH273915   1.110   2.657   4.686  0.1931  0.0699  0.2900
17475TIP3    H173916   1.064   2.680   4.767 -0.2221  0.7998 -0.1383
17475TIP3    H273917   1.167   2.732   4.669  0.1208  0.0151 -0.2020
17476TIP3   OH273918   1.962   3.965  13.590 -0.0860  0.0803 -0.6763
17476TIP3    H173919   1.969   3.972  13.495 -1.6272  1.0163 -0.7444
17476TIP3    H273920   2.030   4.024  13.624  0.9210 -0.7627 -1.1566
17477TIP3   OH273921   0.041   0.221  15.230  0.4138 -0.2736  0.0604
17477TIP3    H173922  -0.048   0.204  15.261  0.2584 -1.0053 -0.7296
17477TIP3    H273923   0.084   0.135  15.235  1.0336  0.0430  0.2860
17478TIP3   OH273924   1.883   6.545  16.921 -0.0097  0.4952  0.0792
17478TIP3    H173925   1.965   6.543  16.871 -0.3738  0.8741 -0.5424
17478TIP3    H273926   1.880   6.633  16.958  0.0664  0.3445  0.4400
17479TIP3   OH273927   6.514   2.132   3.983  0.6007  0.2576 -0.2957
17479TIP3    H173928   6.487   2.213   3.939  0.5174 -0.3905 -1.4626
17479TIP3    H273929   6.555   2.080   3.915 -0.3836 -1.1717  0.1576
17480TIP3   OH273930   2.855   1.919  11.693 -0.2079 -0.4128  0.2516
17480TIP3    H173931   2.810   2.003  11.682 -0.4520 -0.5228  0.4001
17480TIP3    H273932   2.822   1.885  11.776 -0.5837 -0.9404 -0.1023
17481TIP3   OH273933   6.313   2.314  16.263  0.3370 -0.2580 -0.4877
17481TIP3    H173934   6.311   2.249  16.192  1.2416 -0.3649 -0.4276
17481TIP3    H273935   6.338   2.395  16.220 -2.6666  0.5516 -0.9071
17482TIP3   OH273936   2.800   1.290  12.252  0.0254 -0.5607 -0.2422
17482TIP3    H173937   2.807   1.220  12.317  0.3733  1.5461  2.1615
17482TIP3    H273938   2.761   1.363  12.300  2.9595  2.0867 -1.5456
17483TIP3   OH273939   1.414   0.042   5.412 -0.0349 -0.2666  0.3954
17483TIP3    H173940   1.416   0.059   5.506  0.3400  0.1586  0.3157
17483TIP3    H273941   1.401   0.128   5.372 -2.9133 -0.7273  0.1313
17484TIP3   OH273942   3.636   6.274  11.252  0.4980 -0.1704 -0.2115
17484TIP3    H173943   3.626   6.361  11.212 -0.8351 -0.6221 -0.9349
17484TIP3    H273944   3.694   6.227  11.193  0.3953 -0.1018 -0.3668
17485TIP3   OH273945   0.311   4.166  11.937  0.1293 -0.1262 -0.2669
17485TIP3    H173946   0.234   4.186  11.883  1.5795  0.3744 -2.2465
17485TIP3    H273947   0.291   4.206  12.022 -0.8896  1.9478 -1.4005
17486TIP3   OH273948   0.934   5.334  14.961 -0.4005 -0.0215  0.5780
17486TIP3    H173949   0.930   5.369  14.872  1.6516  0.1443  0.5117
17486TIP3    H273950   1.027   5.324  14.979 -0.8056 -0.9820  2.3655
17487TIP3   OH273951   6.073   0.193  15.180 -0.2987  0.6186 -0.2629
17487TIP3    H173952   6.043   0.128  15.245  0.4655  0.0628 -0.4478
17487TIP3    H273953   6.155   0.227  15.217 -0.4922  1.1919 -0.3600
17488TIP3   OH273954   4.681   1.992  12.261  0.2347  0.4392 -0.0487
17488TIP3    H173955   4.667   2.053  12.189 -1.7794  0.0911 -0.0219
17488TIP3    H273956   4.612   1.926  12.250 -0.3976  0.5968  2.4263
17489TIP3   OH273957   5.992   5.360   4.544 -0.3073 -0.6632 -0.3953
17489TIP3    H173958   5.990   5.365   4.449 -0.2695  3.1509 -0.3529
17489TIP3    H273959   5.904   5.385   4.572  0.5102  1.4131  0.5160
17490TIP3   OH273960   2.514   6.128   4.564 -0.2050  0.3666  0.2643
17490TIP3    H173961   2.551   6.057   4.617 -0.8370  0.5410  0.9592
17490TIP3    H273962   2.587   6.160   4.512 -0.0319 -1.1953 -0.5200
17491TIP3   OH273963   3.218   3.331   5.916  0.1133 -0.6044  0.5072
17491TIP3    H173964   3.228   3.337   6.011  2.9324  1.8634  0.2197
17491TIP3    H273965   3.177   3.414   5.891  0.0844 -0.9056 -0.5055
17492TIP3   OH273966   3.901   3.813  13.146 -0.0347 -0.2167 -0.1342
17492TIP3    H173967   3.923   3.906  13.146 -0.3747 -0.1288  0.6567
17492TIP3    H273968   3.907   3.787  13.054  1.2617  0.2915 -0.2095
17493TIP3   OH273969   1.761   2.640  12.168  0.0461 -0.2818  0.7787
17493TIP3    H173970   1.786   2.590  12.091  1.3990  0.5937  0.6222
17493TIP3    H273971   1.667   2.627  12.175 -0.6296  1.6445 -2.5281
17494TIP3   OH273972   3.264   6.223  11.300 -0.1489  0.0361  0.0661
17494TIP3    H173973   3.168   6.234  11.298 -0.3206 -0.2675  2.7408
17494TIP3    H273974   3.295   6.295  11.355  0.7613 -1.7000  1.9578
17495TIP3   OH273975   4.888   3.546  15.232  0.3922 -0.0393  0.2209
17495TIP3    H173976   4.913   3.588  15.314 -0.6459  1.3818 -0.1671
17495TIP3    H273977   4.971   3.520  15.192  0.9238 -0.4133  1.5339
17496TIP3   OH273978   2.560   6.306   3.682  0.1391  0.0461  0.5265
17496TIP3    H173979   2.565   6.212   3.666 -0.7579  0.2640 -1.4181
17496TIP3    H273980   2.502   6.315   3.757  1.3615 -0.9722  1.6423
17497TIP3   OH273981   3.527   1.428  12.268 -0.1435  0.4139 -0.6904
17497TIP3    H173982   3.438   1.420  12.301 -0.2455  1.9724 -0.5198
17497TIP3    H273983   3.572   1.481  12.333  0.5824  0.6553 -1.3711
17498TIP3   OH273984   5.660   3.736   4.478 -0.1908  0.4637  0.4245
17498TIP3    H173985   5.582   3.710   4.527 -0.3731 -0.2741 -0.2407
17498TIP3    H273986   5.627   3.788   4.405 -0.0172  0.5604  0.4143
17499TIP3   OH273987   0.312   5.883   1.568 -0.0779 -0.0028  0.1151
17499TIP3    H173988   0.228   5.915   1.535 -0.6701 -1.1542  0.4301
17499TIP3    H273989   0.374   5.952   1.548 -0.8292  0.2750 -1.4219
17500TIP3   OH273990   2.165   4.879   4.650 -0.4972 -0.0366  0.2412
17500TIP3    H173991   2.103   4.876   4.577 -2.2280  1.0143  1.5971
17500TIP3    H273992   2.154   4.794   4.694  0.3118 -0.5406 -0.5048
17501TIP3   OH273993   4.637   1.778   6.268  0.3860 -0.4020  0.1961
17501TIP3    H173994   4.688   1.848   6.308  0.1209 -0.2141  0.2075
17501TIP3    H273995   4.693   1.701   6.273  0.1561 -0.5139  1.4238
17502TIP3   OH273996   2.434   0.386  13.754  0.2731  0.2928 -0.0015
17502TIP3    H173997   2.520   0.392  13.713  0.0763 -1.1423 -0.6713
17502TIP3    H273998   2.373   0.404  13.683 -0.0116  3.3163  0.8682
17503TIP3   OH273999   1.540   2.138  15.770  0.5577 -0.0275  0.5597
17503TIP3    H174000   1.603   2.073  15.803  1.9247  1.1142  0.2756
17503TIP3    H274001   1.525   2.113  15.679 -2.4314 -2.5742  1.5850
17504TIP3   OH274002   0.063   5.883   6.680  0.2531  0.6496 -0.1007
17504TIP3    H174003   0.100   5.810   6.729  1.9840  1.1725 -0.5743
17504TIP3    H274004   0.104   5.960   6.718 -1.2845  1.3927  0.1484
17505TIP3   OH274005   0.198   4.942  13.034 -0.2734 -0.0087  0.0902
17505TIP3    H174006   0.250   4.916  12.958 -0.9179  1.6523 -0.9770
17505TIP3    H274007   0.247   5.015  13.072 -0.8392  0.2937  0.2474
17506TIP3   OH274008   3.383   0.237   2.184  0.3311 -0.6496 -0.7873
17506TIP3    H174009   3.365   0.270   2.096  0.5714 -0.0157 -0.6048
17506TIP3    H274010   3.453   0.173   2.171  0.6640 -0.2457 -1.0082
17507TIP3   OH274011   2.970   3.142  12.237 -0.1695 -0.1806  0.5687
17507TIP3    H174012   3.027   3.204  12.283 -0.1869  0.8113 -0.6886
17507TIP3    H274013   3.026   3.066  12.222  0.1816 -0.0549  1.1817
17508TIP3   OH274014   2.551   4.091  11.340 -0.2783 -0.0774  0.1473
17508TIP3    H174015   2.598   4.170  11.312  0.1353 -0.9497 -1.8392
17508TIP3    H274016   2.478   4.085  11.279 -0.0029 -1.4868 -0.0672
17509TIP3   OH274017   4.111   4.634   3.565 -0.0268 -0.4340  0.5786
17509TIP3    H174018   4.121   4.714   3.514  0.3144 -0.0561  1.2277
17509TIP3    H274019   4.049   4.658   3.634 -0.7194 -1.0255  0.1769
17510TIP3   OH274020   2.804   5.168   1.623  0.5553 -0.0986 -0.2513
17510TIP3    H174021   2.818   5.096   1.685  0.6559  0.3227  0.2210
17510TIP3    H274022   2.723   5.145   1.577 -0.0423  0.0561  0.7073
17511TIP3   OH274023   0.117   1.077  11.764 -0.1334 -0.3639 -0.0774
17511TIP3    H174024   0.067   1.085  11.682 -0.7212  0.4975  0.3614
17511TIP3    H274025   0.204   1.051  11.735 -0.3317 -0.0689 -0.9902
17512TIP3   OH274026   0.926   6.007  16.729 -0.1498 -0.1674  0.2358
17512TIP3    H174027   1.014   5.973  16.743  1.7265  3.4404 -1.3151
17512TIP3    H274028   0.918   6.013  16.633 -1.0950  1.7033  0.3899
17513TIP3   OH274029   6.180   6.258  12.491 -0.1904  0.0357  0.0280
17513TIP3    H174030   6.178   6.169  12.456  1.1122 -0.1427  0.3391
17513TIP3    H274031   6.094   6.271  12.529 -0.8546 -0.6001 -1.1952
17514TIP3   OH274032   1.952   5.542  14.813  0.6582  0.0395 -0.9927
17514TIP3    H174033   1.921   5.551  14.903 -2.5056 -0.7468 -1.8532
17514TIP3    H274034   1.938   5.628  14.773 -0.0543 -0.1812 -1.2482
17515TIP3   OH274035   4.997   0.591  16.616  0.3146  0.0325  0.1438
17515TIP3    H174036   5.050   0.641  16.678  0.6328  0.7758 -0.7086
17515TIP3    H274037   4.906   0.610  16.641  0.4237 -0.5583  1.0616
17516TIP3   OH274038   4.885   1.863   2.764  0.4044  0.4411  0.4246
17516TIP3    H174039   4.865   1.818   2.682 -0.1500 -0.9825  1.2951
17516TIP3    H274040   4.800   1.875   2.806  0.8249 -0.5732  1.6294
17517TIP3   OH274041   2.506   6.135   5.866  0.8306 -0.1077  0.1505
17517TIP3    H174042   2.573   6.107   5.803  0.9308 -2.7641  1.3221
17517TIP3    H274043   2.443   6.184   5.813  2.4349  0.4024 -1.4195
17518TIP3   OH274044   6.173   4.092   1.034 -0.5131  0.3636 -0.2574
17518TIP3    H174045   6.189   4.080   0.940  0.2180  0.1628 -0.1130
17518TIP3    H274046   6.119   4.017   1.058  0.5717 -0.4312 -0.2172
17519TIP3   OH274047   3.664   1.076  15.097  0.0772 -0.0674 -0.1403
17519TIP3    H174048   3.587   1.120  15.132  1.0121  0.5071  1.3292
17519TIP3    H274049   3.736   1.138  15.112  0.8428 -0.6014 -1.4160
17520TIP3   OH274050   6.486   5.757   4.464 -0.0854  0.4837  0.0086
17520TIP3    H174051   6.524   5.743   4.550  0.3721  0.3508 -0.2127
17520TIP3    H274052   6.512   5.845   4.439  2.3975 -0.5045 -1.2791
17521TIP3   OH274053   2.093   2.472   1.633  0.1593 -0.2148  0.0909
17521TIP3    H174054   2.038   2.518   1.569 -0.3900 -0.2675  0.5200
17521TIP3    H274055   2.031   2.431   1.692  0.6219 -1.8430 -0.5061
17522TIP3   OH274056   2.291   0.573   2.679  0.6077  0.7880  0.0371
17522TIP3    H174057   2.338   0.510   2.733 -0.4379 -0.3845 -0.3879
17522TIP3    H274058   2.220   0.605   2.734  0.7198  1.0808  0.0156
17523TIP3   OH274059   1.777   4.533   3.354 -0.6017  0.5186 -0.0452
17523TIP3    H174060   1.747   4.451   3.393 -0.9059  1.7946  2.6274
17523TIP3    H274061   1.868   4.516   3.332  0.0250  0.0314  2.5327
17524TIP3   OH274062   0.115   5.695  12.521 -0.2096  0.2223 -0.3549
17524TIP3    H174063   0.044   5.743  12.478  0.2516  0.7374 -0.5404
17524TIP3    H274064   0.105   5.605  12.489 -0.6241  0.3417 -0.5721
17525TIP3   OH274065   1.602   3.671   4.699  0.5716  0.6238  0.1706
17525TIP3    H174066   1.621   3.719   4.618 -0.9832  1.4652  0.2719
17525TIP3    H274067   1.575   3.738   4.761  2.7018  0.1149  1.7520
17526TIP3   OH274068   1.834   1.733  11.057 -0.2498  0.3808  0.1198
17526TIP3    H174069   1.849   1.828  11.062  0.5942  0.2094  3.0783
17526TIP3    H274070   1.907   1.696  11.108 -0.2406 -1.9212 -1.4757
17527TIP3   OH274071   3.643   4.870  15.195  0.0949 -0.1913  0.1962
17527TIP3    H174072   3.611   4.889  15.283 -0.9607  1.3104 -0.4731
17527TIP3    H274073   3.691   4.949  15.169 -2.0942  0.6494 -1.6497
17528TIP3   OH274074   0.597   5.070  10.761  0.2141  0.4565  0.4802
17528TIP3    H174075   0.662   5.016  10.715  0.3750  0.8731  0.2029
17528TIP3    H274076   0.611   5.158  10.726 -1.3089  0.3484 -0.4785
17529TIP3   OH274077   4.340   1.346   1.354 -0.6036  0.0848 -0.1303
17529TIP3    H174078   4.419   1.366   1.304  0.1142 -1.6618  0.2188
17529TIP3    H274079   4.352   1.255   1.381 -2.0741  0.2434  1.1777
17530TIP3   OH274080   6.451   1.320  16.218  0.5379  0.9186 -0.1311
17530TIP3    H174081   6.376   1.272  16.183  0.7047 -0.2920  1.1256
17530TIP3    H274082   6.524   1.296  16.161  1.4888 -3.3544  2.4911
17531TIP3   OH274083   3.525   6.388  16.674 -0.3282 -0.4156  0.0258
17531TIP3    H174084   3.590   6.403  16.743  0.7369 -1.9058 -0.5949
17531TIP3    H274085   3.448   6.356  16.721 -0.5973  1.2327  0.7562
17532TIP3   OH274086   1.158   1.000   0.176 -0.4730  0.0825 -0.2676
17532TIP3    H174087   1.193   1.089   0.163 -1.6147  0.6113  0.1405
17532TIP3    H274088   1.121   0.976   0.091  1.5118 -0.8049 -0.9390
17533TIP3   OH274089   1.051   0.151   3.264 -0.0946 -0.7012  0.4508
17533TIP3    H174090   1.083   0.065   3.291  0.5055 -0.7749 -0.4407
17533TIP3    H274091   1.128   0.208   3.267  0.3255 -0.9955 -2.2242
17534TIP3   OH274092   3.331   4.013  12.755 -0.1631  0.3217 -0.2851
17534TIP3    H174093   3.388   3.974  12.690 -1.4212  1.8018 -2.3948
17534TIP3    H274094   3.382   4.086  12.792 -0.5178  1.5167 -2.0211
17535TIP3   OH274095   6.768   0.899   3.754 -0.0745  0.1996  0.3423
17535TIP3    H174096   6.789   0.969   3.692 -0.4169  0.0387  0.0411
17535TIP3    H274097   6.853   0.868   3.784  0.1209 -0.2250 -0.6171
17536TIP3   OH274098   5.827   2.667   5.535  0.0998 -0.0737 -0.3230
17536TIP3    H174099   5.780   2.584   5.539 -0.8811  0.4782  0.1014
17536TIP3    H274100   5.759   2.732   5.514  0.6237  0.7688  0.4980
17537TIP3   OH274101   1.472   3.603   6.183  0.2200  0.5809 -0.0945
17537TIP3    H174102   1.565   3.584   6.191  0.2914 -0.2436 -2.2911
17537TIP3    H274103   1.458   3.620   6.090 -2.1046 -1.1064 -0.1621
17538TIP3   OH274104   5.065   5.998   2.000  0.2746  0.2010  0.1975
17538TIP3    H174105   5.009   5.932   1.959  2.3216 -0.9473 -0.9058
17538TIP3    H274106   5.021   6.020   2.082 -1.7042 -0.6996 -0.5823
17539TIP3   OH274107   4.590   6.282   3.620  0.3981  0.0823 -0.5067
17539TIP3    H174108   4.574   6.195   3.657  0.0981 -1.2031 -3.3842
17539TIP3    H274109   4.504   6.313   3.593  0.7427  0.3791 -1.2979
17540TIP3   OH274110   5.312   3.429   4.684  0.4676 -0.2172 -0.4043
17540TIP3    H174111   5.268   3.376   4.750  2.1754 -1.9837 -0.5937
17540TIP3    H274112   5.350   3.366   4.623  1.4628  1.2753 -1.4156
17541TIP3   OH274113   3.516   6.804  15.619  0.2340 -0.1772 -0.3116
17541TIP3    H174114   3.463   6.732  15.653 -0.0828  1.4042  2.8509
17541TIP3    H274115   3.592   6.760  15.579  0.6556 -2.3414  2.5032
17542TIP3   OH274116   3.737   6.081  10.370 -0.7178 -0.1232 -0.2221
17542TIP3    H174117   3.670   6.084  10.302  1.2179 -2.4846 -2.4499
17542TIP3    H274118   3.695   6.036  10.444 -1.7220 -1.2487 -1.4271
17543TIP3   OH274119   3.568   6.745  13.763 -0.1439 -0.2435  0.0166
17543TIP3    H174120   3.619   6.727  13.841 -0.7294 -1.1484  0.2099
17543TIP3    H274121   3.506   6.672  13.758 -0.2563 -0.0854 -1.1672
17544TIP3   OH274122   1.589   3.493  15.825 -0.0802 -0.3264  0.5231
17544TIP3    H174123   1.528   3.436  15.779  0.1136 -1.3443  1.4788
17544TIP3    H274124   1.551   3.580  15.818 -0.1143 -0.4510 -1.4380
17545TIP3   OH274125   5.751   1.009  11.262 -0.3260  0.3932  0.0083
17545TIP3    H174126   5.664   0.984  11.231 -0.8657  2.0953  0.0260
17545TIP3    H274127   5.807   1.002  11.184  0.0354 -2.7203  0.4566
17546TIP3   OH274128   2.336   4.457  12.759  0.5598 -0.0702 -0.1367
17546TIP3    H174129   2.411   4.514  12.744  0.4604  0.1466  0.1847
17546TIP3    H274130   2.321   4.460  12.853 -0.9403  1.2892 -0.3810
17547TIP3   OH274131   5.562   5.870  16.140  0.7685 -0.6095  0.0805
17547TIP3    H174132   5.551   5.961  16.170  0.3359 -0.5275 -0.3149
17547TIP3    H274133   5.488   5.823  16.179 -0.9390 -0.1172 -2.3543
17548TIP3   OH274134   5.263   2.282  13.383 -0.0859 -0.4329  0.2419
17548TIP3    H174135   5.235   2.350  13.322 -0.1027  0.1635  0.9021
17548TIP3    H274136   5.299   2.213  13.328 -0.2233  0.0423 -0.4434
17549TIP3   OH274137   2.543   6.771  12.858  0.8280 -0.2101 -0.6738
17549TIP3    H174138   2.562   6.822  12.936  0.8525 -0.0037 -0.8129
17549TIP3    H274139   2.484   6.702  12.888 -2.0600  1.8846 -1.0586
17550TIP3   OH274140   1.257   6.388  14.097  0.0551 -0.2243  0.1037
17550TIP3    H174141   1.163   6.394  14.081 -0.1064 -2.1523  0.1564
17550TIP3    H274142   1.266   6.406  14.191 -0.1681  0.6367 -0.0320
17551TIP3   OH274143   3.324   3.115  12.731  0.3424  0.2699 -0.2494
17551TIP3    H174144   3.365   3.116  12.645 -1.1066  0.3982 -0.9819
17551TIP3    H274145   3.346   3.200  12.769  1.2398  0.0966 -0.3666
17552TIP3   OH274146   0.277   3.789   2.574 -0.1242  0.1422 -0.2692
17552TIP3    H174147   0.227   3.783   2.655  1.8941  1.4836  1.1902
17552TIP3    H274148   0.336   3.714   2.576  0.5129  0.6347 -0.0298
17553TIP3   OH274149   2.979   3.679   4.294  0.2122 -0.4867 -0.2083
17553TIP3    H174150   2.942   3.670   4.382 -0.7845  2.2838 -0.2350
17553TIP3    H274151   2.904   3.672   4.235  0.5357 -0.1211 -0.6769
17554TIP3   OH274152   0.735   4.242   2.646 -0.4585 -0.9248 -0.5051
17554TIP3    H174153   0.720   4.258   2.739  3.4819  2.0301 -0.1202
17554TIP3    H274154   0.709   4.324   2.603  1.2114 -0.8507 -1.4538
17555TIP3   OH274155   6.634   3.257   0.005  0.4557 -0.3818 -0.0238
17555TIP3    H174156   6.575   3.281  -0.066 -1.3047  3.9571  2.5165
17555TIP3    H274157   6.607   3.169   0.030 -0.8149 -0.8667 -2.7389
17556TIP3   OH274158   4.869   1.727   0.059  0.8012  0.4651 -0.3704
17556TIP3    H174159   4.807   1.792   0.094  2.2535  0.7757  1.7876
17556TIP3    H274160   4.874   1.660   0.127  1.0813 -0.7553 -1.5588
17557TIP3   OH274161   3.462   0.161  12.411  0.0939  0.0567  0.2334
17557TIP3    H174162   3.406   0.178  12.336  0.5033  0.2905 -0.0265
17557TIP3    H274163   3.508   0.080  12.390 -1.5159 -1.1770  1.2707
17558TIP3   OH274164   2.080   1.326  14.083  0.1414  0.0826 -0.1674
17558TIP3    H174165   2.066   1.239  14.119 -1.2238  0.0454 -0.7338
17558TIP3    H274166   2.140   1.313  14.010  1.8153 -0.0277  1.1561
17559TIP3   OH274167   6.266   5.767   3.903 -0.2266 -0.0082 -0.0694
17559TIP3    H174168   6.264   5.675   3.929  1.1507 -0.8944 -2.7353
17559TIP3    H274169   6.329   5.807   3.963 -0.1309 -1.0036  0.5216
17560TIP3   OH274170   3.855   0.572  16.623  0.5092  0.2100  0.9912
17560TIP3    H174171   3.862   0.487  16.579 -0.3177  0.3844  0.5128
17560TIP3    H274172   3.778   0.613  16.585  1.1461  1.3711  0.9007
17561TIP3   OH274173   1.293   2.540  12.608  0.0906  0.6050  0.1101
17561TIP3    H174174   1.301   2.470  12.543  0.5433 -0.5755  1.4094
17561TIP3    H274175   1.367   2.598  12.588 -0.6519  1.0951 -1.3714
17562TIP3   OH274176   2.345   2.813   4.936 -0.1062  0.0379  0.4087
17562TIP3    H174177   2.323   2.866   5.013 -1.5774 -0.6737  0.5224
17562TIP3    H274178   2.276   2.746   4.934 -1.1662  1.0902 -2.5444
17563TIP3   OH274179   5.810   3.288   1.489  0.2804 -0.0958  0.1050
17563TIP3    H174180   5.755   3.360   1.521 -0.2820 -0.1255 -0.7636
17563TIP3    H274181   5.794   3.216   1.551 -0.2030  0.0903  0.1983
17564TIP3   OH274182   1.942   5.536   5.718  0.6924 -0.2114 -0.0079
17564TIP3    H174183   1.950   5.631   5.706  0.5097 -0.4027 -2.1398
17564TIP3    H274184   1.848   5.519   5.709  0.8624 -0.7101 -1.1042
17565TIP3   OH274185   5.269   1.885   2.675 -0.5728 -0.4164  0.1180
17565TIP3    H174186   5.284   1.852   2.764  1.0258 -0.6365 -0.1990
17565TIP3    H274187   5.255   1.979   2.686 -0.4112 -0.4452  0.5964
17566TIP3   OH274188   4.308   6.748   5.551  0.0063 -0.2779  0.1101
17566TIP3    H174189   4.298   6.775   5.642 -1.5026 -1.0260  0.1997
17566TIP3    H274190   4.314   6.831   5.503  0.0302  0.1347  0.8096
17567TIP3   OH274191   4.077   1.789   0.185 -0.4646 -0.0692  0.4707
17567TIP3    H174192   4.134   1.797   0.262  1.5672  0.9884 -1.0642
17567TIP3    H274193   4.070   1.877   0.150 -2.2161 -0.3560 -0.0344
17568TIP3   OH274194   6.498   4.205  13.745  0.6221  0.3242  0.0061
17568TIP3    H174195   6.560   4.143  13.707  1.4229  2.1321 -1.7823
17568TIP3    H274196   6.412   4.172  13.718  0.8163 -1.4060  1.3115
17569TIP3   OH274197   5.476   4.525  14.005  0.5245 -0.6556 -0.2123
17569TIP3    H174198   5.456   4.618  14.012 -1.6099 -0.8741 -2.1947
17569TIP3    H274199   5.458   4.490  14.092 -2.0366  0.2809 -0.2649
17570TIP3   OH274200   6.765   2.835   3.936  0.2595  0.4042 -0.6515
17570TIP3    H174201   6.742   2.803   4.024  2.2576 -0.4856 -0.3985
17570TIP3    H274202   6.722   2.774   3.877 -0.6610  0.6869 -0.2869
17571TIP3   OH274203   2.522   0.278   5.575 -0.3675  0.4572 -0.0386
17571TIP3    H174204   2.561   0.212   5.632 -0.1373  0.2100 -0.4797
17571TIP3    H274205   2.442   0.238   5.543  0.9109 -0.5568 -2.1510
17572TIP3   OH274206   3.345   5.901  14.283 -0.0733  0.5209 -0.2420
17572TIP3    H174207   3.295   5.971  14.327 -0.4231  0.0715  0.0965
17572TIP3    H274208   3.310   5.820  14.322 -0.3050  0.1168 -1.2750
17573TIP3   OH274209   6.308   2.019  14.886  0.2194  0.0409 -0.0865
17573TIP3    H174210   6.331   1.988  14.974 -1.2076 -3.2761 -0.7311
17573TIP3    H274211   6.355   1.960  14.827  0.0535  1.3158 -1.5584
17574TIP3   OH274212   0.604   6.355   1.548 -0.5906  0.3072 -0.5098
17574TIP3    H174213   0.533   6.404   1.589 -0.2782  1.1320 -0.9157
17574TIP3    H274214   0.572   6.337   1.460 -0.7467 -0.3283 -0.3272
17575TIP3   OH274215   6.129   3.174   1.684 -0.7718  0.2665  0.3575
17575TIP3    H174216   6.074   3.190   1.761 -0.2492  0.3517  0.7223
17575TIP3    H274217   6.115   3.081   1.663 -0.8448  0.2185  0.6158
17576TIP3   OH274218   2.675   1.210  14.326 -0.2197 -0.2087  0.0816
17576TIP3    H174219   2.729   1.201  14.404  0.2738  0.5734 -0.1540
17576TIP3    H274220   2.737   1.237  14.258 -0.8452  0.3206 -0.2846
17577TIP3   OH274221   6.435   0.471   1.397 -0.7818  0.3981 -0.0306
17577TIP3    H174222   6.485   0.506   1.323 -1.0609  0.6370 -0.1073
17577TIP3    H274223   6.407   0.548   1.446 -0.5569  0.2391  0.3569
17578TIP3   OH274224   0.932   5.199  13.106  0.2649  0.3225 -0.0459
17578TIP3    H174225   0.928   5.125  13.046 -1.0681  0.8658 -0.6678
17578TIP3    H274226   0.857   5.187  13.165 -0.5330  1.6425 -0.7471
17579TIP3   OH274227   5.514   5.484  15.691 -0.3294 -0.0587 -0.1119
17579TIP3    H174228   5.508   5.424  15.617 -0.6318 -0.0064 -0.1345
17579TIP3    H274229   5.580   5.548  15.665  0.5120 -0.7844  0.2108
17580TIP3   OH274230   5.099   3.118   2.915 -0.3167 -0.2329 -0.1496
17580TIP3    H174231   5.006   3.102   2.905 -0.5405  1.0968 -0.4609
17580TIP3    H274232   5.104   3.185   2.983  0.3961 -0.1404 -0.2845
17581TIP3   OH274233   4.661   3.194  16.173 -0.7618  0.3036 -0.6041
17581TIP3    H174234   4.633   3.103  16.163 -2.5132  0.7355  0.0105
17581TIP3    H274235   4.733   3.191  16.235  0.0620 -0.7731 -1.5717
17582TIP3   OH274236   5.331   3.710  14.489  0.0060  1.0277  0.2802
17582TIP3    H174237   5.383   3.788  14.510  1.4747  0.3039 -0.5576
17582TIP3    H274238   5.393   3.638  14.494 -0.7239  0.2219 -1.4973
17583TIP3   OH274239   1.529   4.436  14.992 -0.2412 -0.0929  0.2307
17583TIP3    H174240   1.465   4.389  14.939  0.1610  0.5652 -0.8552
17583TIP3    H274241   1.525   4.526  14.961 -1.7375  0.9067  2.9513
17584TIP3   OH274242   1.341   6.227  11.494  0.1300 -0.2152 -0.6491
17584TIP3    H174243   1.417   6.268  11.452 -0.0478  0.8392  0.0224
17584TIP3    H274244   1.380   6.162  11.553  0.4464 -0.6214 -1.2958
17585TIP3   OH274245   2.924   1.659   0.664 -0.1939 -0.6891  0.4624
17585TIP3    H174246   2.985   1.603   0.711 -0.4343 -0.3821  1.1686
17585TIP3    H274247   2.905   1.730   0.726 -0.2857 -0.1044 -0.2195
17586TIP3   OH274248   4.589   5.983   5.304  0.0811 -0.4845 -0.1569
17586TIP3    H174249   4.563   5.910   5.360 -0.8796 -0.4750 -0.5648
17586TIP3    H274250   4.591   5.945   5.216 -1.7890  0.2559 -0.5725
17587TIP3   OH274251   2.211   0.483   5.155  0.1187  0.4552  0.1079
17587TIP3    H174252   2.259   0.559   5.122 -1.0517  1.0428 -0.2951
17587TIP3    H274253   2.129   0.520   5.188 -0.4508 -0.6361 -0.0647
17588TIP3   OH274254   4.091   3.095  17.126 -0.1508 -0.4889 -0.5318
17588TIP3    H174255   4.020   3.039  17.094  0.5731 -0.9710 -1.3774
17588TIP3    H274256   4.107   3.156  17.054 -1.1853  1.1002  0.5260
17589TIP3   OH274257   3.917   5.796   3.816 -0.3594 -0.1570 -0.0458
17589TIP3    H174258   4.008   5.811   3.842 -0.5764  1.3109 -0.0463
17589TIP3    H274259   3.868   5.799   3.898 -0.6909  1.5608 -0.2788
17590TIP3   OH274260   1.083   5.425  16.919  0.0281  0.1455 -0.3245
17590TIP3    H174261   1.095   5.343  16.871  0.7615 -1.6408  2.6763
17590TIP3    H274262   1.030   5.401  16.995 -1.4724  2.9158 -0.3547
17591TIP3   OH274263   6.284   5.969  16.358  0.3037  0.1084 -0.0988
17591TIP3    H174264   6.306   6.062  16.355 -0.3085  0.2394 -1.2416
17591TIP3    H274265   6.263   5.947  16.267  2.4422 -1.6364 -0.2572
17592TIP3   OH274266   1.093   0.943   1.541 -0.0507  0.0870  0.1758
17592TIP3    H174267   1.022   0.996   1.577 -1.3633 -1.4536 -0.0293
17592TIP3    H274268   1.139   1.003   1.481 -0.1732  1.5583  1.4694
17593TIP3   OH274269   4.408   2.791  13.329 -0.3218 -0.2853  0.0753
17593TIP3    H174270   4.469   2.864  13.318  1.6657 -1.9142 -0.4123
17593TIP3    H274271   4.363   2.809  13.412  1.6151  0.4540  1.0191
17594TIP3   OH274272   1.419   3.535  13.287  0.4969  0.1562 -0.2690
17594TIP3    H174273   1.424   3.481  13.208 -0.9380 -0.4758  0.0428
17594TIP3    H274274   1.496   3.510  13.337  0.9746 -0.0612 -1.0808
17595TIP3   OH274275   0.822   4.495  11.297 -0.1002  0.0822  0.4773
17595TIP3    H174276   0.868   4.431  11.351  1.0500  0.4122 -0.0807
17595TIP3    H274277   0.813   4.572  11.354  0.5731  0.2163  0.4209
17596TIP3   OH274278   3.420   3.390  10.201 -0.1852  0.3410 -0.1863
17596TIP3    H174279   3.367   3.470  10.207  0.4007  0.6838  0.6492
17596TIP3    H274280   3.358   3.319  10.218 -0.2762  0.7847  1.4944
17597TIP3   OH274281   5.179   0.337  13.829  0.1199  0.4213  0.6771
17597TIP3    H174282   5.231   0.407  13.790  2.5538 -0.2793  2.4020
17597TIP3    H274283   5.160   0.367  13.918 -0.4841 -0.2848  0.8007
17598TIP3   OH274284   1.686   1.624  12.768 -1.0767 -0.0251  0.4161
17598TIP3    H174285   1.749   1.565  12.726 -1.3895 -0.5907  0.7374
17598TIP3    H274286   1.735   1.665  12.840 -0.9485 -0.1197  0.3822
17599TIP3   OH274287   5.017   4.855  11.219  0.0289  0.3066 -0.3848
17599TIP3    H174288   5.075   4.780  11.203  0.4882  0.2260  1.4025
17599TIP3    H274289   5.073   4.931  11.210  0.0490  0.3164 -0.1785
17600TIP3   OH274290   0.483   6.170  15.738 -0.1858 -0.6403  0.0453
17600TIP3    H174291   0.420   6.116  15.786  1.8394 -0.9036  2.6748
17600TIP3    H274292   0.494   6.248  15.793  0.4867  0.2002 -1.2283
17601TIP3   OH274293   6.756   4.280  15.072 -0.1054  0.1902  0.2553
17601TIP3    H174294   6.707   4.219  15.016  0.7363 -0.2844  0.0136
17601TIP3    H274295   6.692   4.347  15.096 -0.8496 -0.3693 -0.1127
17602TIP3   OH274296   1.074   3.014  15.417  0.1860 -0.4761  0.1255
17602TIP3    H174297   1.156   2.966  15.426 -0.0421 -1.0826 -0.8832
17602TIP3    H274298   1.092   3.100  15.456  0.3557 -1.5973  2.7306
17603TIP3   OH274299   3.866   4.873   5.854 -0.5706 -0.3964  0.3537
17603TIP3    H174300   3.958   4.897   5.849 -0.2060 -1.5401  1.3365
17603TIP3    H274301   3.862   4.783   5.822 -1.5530  0.0420 -0.8773
17604TIP3   OH274302   0.179   3.976   1.921  0.6953 -0.4874  0.1456
17604TIP3    H174303   0.147   3.993   2.010  1.1983  1.2257  0.0354
17604TIP3    H274304   0.121   3.908   1.888 -0.7067  0.1661  1.1399
17605TIP3   OH274305   5.845   2.640  12.589 -0.0914  0.1578  0.1477
17605TIP3    H174306   5.763   2.682  12.615 -0.3591 -0.2259 -0.0522
17605TIP3    H274307   5.847   2.649  12.493  0.3054  0.5314  0.1917
17606TIP3   OH274308   3.686   2.652  12.134  0.6701  0.1921  0.2673
17606TIP3    H174309   3.674   2.735  12.180  1.1247  1.3654 -1.6199
17606TIP3    H274310   3.609   2.600  12.157 -0.2417  1.6196  0.5154
17607TIP3   OH274311   2.113   6.643   2.605 -0.5881 -0.6082 -0.4001
17607TIP3    H174312   2.149   6.729   2.625  1.7663 -2.0956  2.4715
17607TIP3    H274313   2.176   6.604   2.544 -0.3523 -1.1600  0.1904
17608TIP3   OH274314   5.472   5.678  10.696  0.0464  0.3301 -0.1554
17608TIP3    H174315   5.464   5.773  10.696  2.0912  0.5672 -1.8605
17608TIP3    H274316   5.533   5.658  10.767 -0.4126  0.2390  0.2289
17609TIP3   OH274317   6.760   3.425   2.937 -0.1616 -0.0496  0.0241
17609TIP3    H174318   6.820   3.497   2.956 -0.3204 -0.1638  1.0171
17609TIP3    H274319   6.809   3.368   2.878  0.7917 -0.2304  0.9450
17610TIP3   OH274320   3.317   5.708   4.368  0.2153 -0.0793 -0.7490
17610TIP3    H174321   3.404   5.671   4.384 -0.2912 -0.9341  0.1943
17610TIP3    H274322   3.257   5.647   4.412 -0.9135  0.1499 -1.9066
17611TIP3   OH274323   5.756   4.424  13.929  0.3615 -0.2893 -0.2231
17611TIP3    H174324   5.661   4.427  13.941  0.3430  0.1545 -0.4468
17611TIP3    H274325   5.791   4.450  14.014  0.2669  0.3840 -0.3826
17612TIP3   OH274326   4.479   2.781   1.146 -0.3279  0.1801 -0.0198
17612TIP3    H174327   4.449   2.868   1.120 -0.1837  0.0754 -0.5544
17612TIP3    H274328   4.413   2.750   1.208  0.3078  1.2005  1.2119
17613TIP3   OH274329   3.807   1.159  16.920 -0.1254  0.1521 -0.0724
17613TIP3    H174330   3.804   1.072  16.960  1.1804  0.6078  1.0969
17613TIP3    H274331   3.899   1.183  16.920 -0.3905  1.2916 -0.9610
17614TIP3   OH274332   2.173   5.799  15.238  0.3412 -0.0867  0.4017
17614TIP3    H174333   2.261   5.772  15.266  0.3495 -0.5822 -0.1102
17614TIP3    H274334   2.115   5.770  15.309  0.4703 -0.5723  0.3057
17615TIP3   OH274335   0.821   0.894  14.060 -0.0446  0.2273 -0.2323
17615TIP3    H174336   0.892   0.933  14.009  0.5794  1.6414  1.6416
17615TIP3    H274337   0.860   0.872  14.144 -1.5356 -0.1763  0.3899
17616TIP3   OH274338   1.480   3.756  16.746 -0.1347  0.2806 -0.3064
17616TIP3    H174339   1.546   3.785  16.683  0.6592 -0.3698  0.2069
17616TIP3    H274340   1.496   3.809  16.824  1.4543 -1.5671  0.7087
17617TIP3   OH274341   1.528   4.521  15.959 -0.9539 -0.2472 -0.1518
17617TIP3    H174342   1.512   4.600  16.010  0.2226  0.2341 -0.5087
17617TIP3    H274343   1.483   4.536  15.876 -0.5383  0.1600 -0.3094
17618TIP3   OH274344   2.807   2.510  11.814 -0.2608 -0.1501  0.2620
17618TIP3    H174345   2.775   2.506  11.724 -0.0672 -0.8870  0.2231
17618TIP3    H274346   2.896   2.475  11.809  0.0282  0.5047  0.6194
17619TIP3   OH274347   6.711   5.683  14.051 -0.4234  0.4985 -0.2564
17619TIP3    H174348   6.780   5.635  14.006  0.1170  1.2236 -0.2011
17619TIP3    H274349   6.687   5.627  14.125 -0.6721 -0.2635 -0.8996
17620TIP3   OH274350   1.008   0.958  13.281 -0.1588  0.0100  0.7258
17620TIP3    H174351   1.049   0.901  13.216 -0.4078  0.2374  0.3645
17620TIP3    H274352   1.072   0.963  13.352  0.0622 -0.3454  0.5597
17621TIP3   OH274353   5.665   6.350  12.765 -0.0446  0.0722  0.4435
17621TIP3    H174354   5.758   6.370  12.763 -0.1504  0.8556  2.0101
17621TIP3    H274355   5.660   6.262  12.802  0.0158  0.5852  1.6924
17622TIP3   OH274356   0.019   2.033   6.416  0.1041  0.8262  0.0404
17622TIP3    H174357   0.103   2.079   6.415  1.0450 -0.6602  2.4930
17622TIP3    H274358   0.008   2.004   6.506 -1.8036 -1.2549 -0.7486
17623TIP3   OH274359   4.488   3.235  15.717  0.7754 -0.0241 -0.1413
17623TIP3    H174360   4.489   3.143  15.743 -0.5527  0.2226  0.9074
17623TIP3    H274361   4.472   3.233  15.623 -1.5111 -0.8687  0.1916
17624TIP3   OH274362   2.619   4.681  11.331  0.4241 -0.7223  0.4141
17624TIP3    H174363   2.550   4.617  11.346  0.5547 -0.9282  0.1427
17624TIP3    H274364   2.573   4.764  11.318  0.2715 -0.6819  1.1699
17625TIP3   OH274365   4.041   0.802  12.924  0.3829 -0.0147 -0.1434
17625TIP3    H174366   4.089   0.792  13.007  1.5910  2.0475 -0.5342
17625TIP3    H274367   4.038   0.896  12.909  0.2294 -0.3302 -2.4755
17626TIP3   OH274368   1.239   0.056  15.073 -0.3488  0.0674  0.1676
17626TIP3    H174369   1.292   0.122  15.117  1.1023 -0.2967 -0.9313
17626TIP3    H274370   1.287   0.038  14.992 -2.3449 -0.0608 -1.0520
17627TIP3   OH274371   2.206   2.699  14.628 -0.1530  0.1450 -0.2320
17627TIP3    H174372   2.250   2.628  14.582 -0.3597 -1.4732  1.9293
17627TIP3    H274373   2.194   2.667  14.717 -1.5422  2.3558  0.4697
17628TIP3   OH274374   1.893   2.610   6.562  0.0298  0.2006 -0.0158
17628TIP3    H174375   1.944   2.666   6.619 -1.1542  1.3000 -0.0025
17628TIP3    H274376   1.819   2.580   6.616  0.0558 -0.4930 -0.3452
17629TIP3   OH274377   5.962   3.674  16.926  0.4515 -0.0144  0.1615
17629TIP3    H174378   5.980   3.580  16.928 -0.3817 -0.1750  0.7469
17629TIP3    H274379   5.887   3.686  16.985 -1.6001  0.5573 -2.3739
17630TIP3   OH274380   1.910   5.733   3.465  0.3075  0.0245  0.1047
17630TIP3    H174381   1.875   5.790   3.396  1.0405 -0.9814 -1.1574
17630TIP3    H274382   1.835   5.681   3.494  0.3876 -1.0480 -1.4936
17631TIP3   OH274383   5.535   1.114   0.377 -0.1054  0.3871 -0.1340
17631TIP3    H174384   5.579   1.149   0.454 -1.0528 -0.6160  0.8845
17631TIP3    H274385   5.446   1.148   0.383 -0.3369 -0.1427 -0.4891
17632TIP3   OH274386   2.620   1.005   6.546 -0.1355  0.3742  0.0217
17632TIP3    H174387   2.652   0.920   6.516 -0.8196  0.8407 -2.1609
17632TIP3    H274388   2.528   1.006   6.521 -0.0082  1.9595 -0.4420
17633TIP3   OH274389   0.594   2.107   0.635 -0.3642  0.1447 -0.1265
17633TIP3    H174390   0.570   2.191   0.675  0.2958 -0.4051  1.4859
17633TIP3    H274391   0.688   2.098   0.652 -0.0857 -0.1794 -1.7182
17634TIP3   OH274392   2.342   1.160   1.128 -0.2644 -0.5817 -0.1946
17634TIP3    H174393   2.295   1.092   1.080  2.3544 -1.4657 -1.7111
17634TIP3    H274394   2.365   1.225   1.062  0.0110  0.1826  0.6358
17635TIP3   OH274395   3.757   4.000  13.929 -0.4828  0.0759 -0.1789
17635TIP3    H174396   3.753   3.953  13.846 -1.4787  0.5296 -0.4059
17635TIP3    H274397   3.834   4.056  13.922 -1.1135  0.8456 -1.2168
17636TIP3   OH274398   5.728   4.032   0.543  0.0576 -0.1438  0.1354
17636TIP3    H174399   5.647   4.055   0.588  0.3730  0.8189  0.2339
17636TIP3    H274400   5.747   4.107   0.486  0.6724 -0.5237 -0.1781
17637TIP3   OH274401   1.102   1.215  11.590  0.7644 -0.5580  0.6270
17637TIP3    H174402   1.007   1.203  11.589  0.9092 -1.9446 -0.7040
17637TIP3    H274403   1.137   1.130  11.563  2.3245  0.3181 -0.2499
17638TIP3   OH274404   1.737   4.979   3.937  0.3472 -0.3507  0.6871
17638TIP3    H174405   1.743   4.994   4.031  2.1844  0.3761  0.4885
17638TIP3    H274406   1.807   4.917   3.917  0.8181  0.4871 -0.3841
17639TIP3   OH274407   1.362   4.638   0.396  0.5166 -0.2394 -0.1173
17639TIP3    H174408   1.379   4.637   0.302  0.4981  2.0931 -0.1945
17639TIP3    H274409   1.383   4.727   0.423 -0.7134 -0.5024  1.8663
17640TIP3   OH274410   3.345   6.256  16.203  0.4442 -0.2987 -0.1782
17640TIP3    H174411   3.298   6.174  16.220  0.7916 -0.4162  0.2508
17640TIP3    H274412   3.417   6.255  16.266 -0.1064  0.8060  0.5034
17641TIP3   OH274413   5.820   0.628  14.636 -0.2508  0.3466 -0.5465
17641TIP3    H174414   5.836   0.709  14.684 -2.2528  1.1140 -1.0939
17641TIP3    H274415   5.795   0.564  14.702 -2.2759  1.2008 -0.4351
17642TIP3   OH274416   0.136   0.199   3.184  0.8156  0.4091  0.5773
17642TIP3    H174417   0.135   0.240   3.098 -0.1810 -1.0969 -0.1662
17642TIP3    H274418   0.208   0.135   3.179 -1.1988 -1.9497 -0.3291
17643TIP3   OH274419   4.367   5.922   2.598  0.1412  0.0850  0.4222
17643TIP3    H174420   4.362   5.915   2.503  0.8551  1.6059  0.2412
17643TIP3    H274421   4.461   5.928   2.617 -0.0439  1.0705  1.0985
17644TIP3   OH274422   2.497   0.188  14.181  0.0580  0.0096  0.2487
17644TIP3    H174423   2.520   0.264  14.128 -2.2584  0.7037  0.1217
17644TIP3    H274424   2.403   0.199  14.199 -0.2888 -2.6708  0.4664
17645TIP3   OH274425   6.068   1.459  13.432 -0.9157 -0.0866 -0.0011
17645TIP3    H174426   6.125   1.518  13.482 -0.8954  0.7699 -0.9883
17645TIP3    H274427   6.103   1.372  13.448  0.7294  0.4174 -0.6269
17646TIP3   OH274428   6.188   2.761   5.984 -0.1068 -0.2675 -0.1842
17646TIP3    H174429   6.177   2.851   5.954 -0.0989 -1.2243 -3.3774
17646TIP3    H274430   6.281   2.753   6.003 -0.0436  0.3106 -0.2302
17647TIP3   OH274431   1.414   6.035  16.776  0.4471  0.0402 -0.1350
17647TIP3    H174432   1.494   5.994  16.743 -0.0430 -0.7910 -0.3387
17647TIP3    H274433   1.443   6.089  16.849  1.2648  0.1998 -0.5586
17648TIP3   OH274434   5.528   6.035  12.205 -0.5292  0.2337 -0.3646
17648TIP3    H174435   5.507   5.970  12.272 -0.4470  0.8091  0.2296
17648TIP3    H274436   5.489   6.116  12.237  3.6400  1.7397  1.5209
17649TIP3   OH274437   1.633   1.160  11.395 -0.3657 -0.0694  0.4111
17649TIP3    H174438   1.707   1.197  11.348 -0.2633  0.0256  0.6458
17649TIP3    H274439   1.567   1.229  11.394 -0.3790 -0.0825  0.3714
17650TIP3   OH274440   6.765   1.868   2.401 -0.1172 -1.0300 -0.0015
17650TIP3    H174441   6.676   1.875   2.435  0.2761 -1.0219  1.0591
17650TIP3    H274442   6.780   1.950   2.354 -0.7051 -1.0788 -0.2709
17651TIP3   OH274443   2.339   4.467   2.693 -0.2570 -0.3097 -0.3146
17651TIP3    H174444   2.351   4.374   2.711 -1.2860 -0.1890  1.2433
17651TIP3    H274445   2.398   4.486   2.620 -0.0295 -2.1697 -0.6523
17652TIP3   OH274446   1.718   6.197  14.688 -0.1938 -0.8935  0.2480
17652TIP3    H174447   1.692   6.176  14.778 -0.8877  0.1579  0.3137
17652TIP3    H274448   1.802   6.242  14.697 -0.9607  0.5463  0.5302
17653TIP3   OH274449   3.988   4.029   0.958  0.3739  0.0016  0.4376
17653TIP3    H174450   3.910   3.992   1.000  1.0168 -0.3041  1.3747
17653TIP3    H274451   4.016   4.099   1.016 -0.8002  2.0237 -1.2830
17654TIP3   OH274452   3.549   3.132   3.870  0.2536 -0.3836  0.7254
17654TIP3    H174453   3.514   3.045   3.889  3.0324 -1.6706  0.5428
17654TIP3    H274454   3.551   3.176   3.955  1.3911 -1.5917  1.3672
17655TIP3   OH274455   5.519   6.288  16.922 -0.5803 -0.2718  0.5067
17655TIP3    H174456   5.473   6.333  16.851  0.2341 -0.5618 -0.2218
17655TIP3    H274457   5.539   6.202  16.886  1.4438  0.2057  0.4069
17656TIP3   OH274458   0.894   3.660  15.319 -0.4368 -0.2530  0.3473
17656TIP3    H174459   0.853   3.718  15.255 -0.8014  0.0788  0.8646
17656TIP3    H274460   0.874   3.701  15.404  1.4623  0.2575  0.6095
17657TIP3   OH274461   1.767   2.898  11.483  0.4259  0.4053  0.6787
17657TIP3    H174462   1.802   2.835  11.420  1.6488  1.0473  0.6823
17657TIP3    H274463   1.673   2.902  11.464  0.8346  0.9306 -1.4154
17658TIP3   OH274464   0.825   2.687   3.244 -0.0474 -0.0845 -0.0122
17658TIP3    H174465   0.785   2.771   3.221 -0.0675 -0.2398 -0.5548
17658TIP3    H274466   0.856   2.700   3.333  1.2374  0.9905 -0.5722
17659TIP3   OH274467   5.171   2.224   5.458 -0.0786  0.6183 -0.1726
17659TIP3    H174468   5.167   2.133   5.488  0.9096  0.5001 -0.3807
17659TIP3    H274469   5.088   2.237   5.411 -0.5968  0.0853  0.5562
17660TIP3   OH274470   5.227   1.740  15.096 -0.2227  0.0527  0.2368
17660TIP3    H174471   5.214   1.800  15.170  2.3597  1.2622 -0.1635
17660TIP3    H274472   5.239   1.654  15.137 -0.6017  0.3985  1.0895
17661TIP3   OH274473   3.478   0.652   2.524 -0.3248 -0.3768  0.1414
17661TIP3    H174474   3.518   0.577   2.569 -0.1508  0.0517  0.7043
17661TIP3    H274475   3.391   0.659   2.563  0.4805  1.1542  1.8035
17662TIP3   OH274476   1.706   2.088  13.582 -0.2601 -0.1317  0.2762
17662TIP3    H174477   1.737   2.064  13.670 -1.1819 -1.3036  0.3054
17662TIP3    H274478   1.747   2.024  13.524  1.4291  1.4544 -0.3666
17663TIP3   OH274479   3.032   5.789   5.779  0.0633  0.1797  0.1250
17663TIP3    H174480   3.086   5.777   5.857  0.3213 -0.0525 -0.0868
17663TIP3    H274481   3.012   5.700   5.750 -2.5277  0.1794  1.6209
17664TIP3   OH274482   6.581   4.741  13.756  0.0603 -0.2939 -0.4712
17664TIP3    H174483   6.510   4.783  13.707 -1.1586 -0.0283  1.3664
17664TIP3    H274484   6.536   4.692  13.825  1.6427 -1.0785  0.0549
17665TIP3   OH274485   1.207   3.937   1.882 -0.2071  0.6214 -0.3260
17665TIP3    H174486   1.230   4.029   1.899  0.7168  0.5853 -1.2721
17665TIP3    H274487   1.131   3.941   1.824 -1.6619  0.7500  1.4958
17666TIP3   OH274488   2.417   0.676  11.772 -0.2721  0.0891 -0.0668
17666TIP3    H174489   2.384   0.668  11.682 -0.5550  0.2588  0.0230
17666TIP3    H274490   2.473   0.599  11.783  1.0330  0.8734 -0.9200
17667TIP3   OH274491   3.291   0.033   5.922  0.5867 -0.2263 -0.2650
17667TIP3    H174492   3.289  -0.049   5.971  0.4412 -0.4494 -0.6323
17667TIP3    H274493   3.291   0.102   5.988 -0.3739 -0.5053  0.0442
17668TIP3   OH274494   2.349   1.294  12.915  0.3626 -0.1455 -0.0388
17668TIP3    H174495   2.327   1.267  13.004 -0.1651  0.1981 -0.0639
17668TIP3    H274496   2.282   1.358  12.891  0.7761  0.1221 -0.5068
17669TIP3   OH274497   4.539   1.447   6.011  0.2895 -0.2594 -0.1203
17669TIP3    H174498   4.577   1.362   5.987 -0.1351 -0.2855 -0.7423
17669TIP3    H274499   4.507   1.483   5.928  0.8698  0.7185  0.0669
17670TIP3   OH274500   5.170   0.383   5.550 -0.2111  0.3940 -0.4468
17670TIP3    H174501   5.226   0.457   5.527 -0.5203  0.0176 -2.6643
17670TIP3    H274502   5.216   0.339   5.622  1.5316  0.9971 -1.1423
17671TIP3   OH274503   0.624   1.206   4.746 -0.3408  0.1680 -0.1315
17671TIP3    H174504   0.619   1.244   4.834 -1.3202  0.4551 -0.2973
17671TIP3    H274505   0.627   1.112   4.760 -0.3134  0.2190  0.2169
17672TIP3   OH274506   4.168   1.663  14.738 -0.5229  0.0616 -0.0979
17672TIP3    H174507   4.144   1.711  14.659 -0.2144  0.3894  0.0030
17672TIP3    H274508   4.091   1.669  14.795 -0.6647  0.0124 -0.2835
17673TIP3   OH274509   4.373   4.223   3.072 -0.1965 -0.1905  0.6440
17673TIP3    H174510   4.321   4.145   3.092 -1.2200  0.7421  1.7412
17673TIP3    H274511   4.393   4.262   3.157 -1.3623  1.7703  0.0964
17674TIP3   OH274512   1.325   3.824   0.996  0.2236 -0.0456  0.1011
17674TIP3    H174513   1.411   3.859   1.021  0.2504  1.8636 -2.3301
17674TIP3    H274514   1.327   3.821   0.901 -1.7007 -1.9856  0.0371
17675TIP3   OH274515   3.774   3.877   1.824  0.6378  0.5607  0.0637
17675TIP3    H174516   3.826   3.799   1.842  0.3018  0.0426 -1.1085
17675TIP3    H274517   3.833   3.951   1.841  0.8614  0.0785  1.4801
17676TIP3   OH274518   1.791   4.337   2.359  0.0406 -0.2045  0.3070
17676TIP3    H174519   1.856   4.359   2.292 -0.1803  0.2524  0.2450
17676TIP3    H274520   1.710   4.379   2.330 -0.0243  0.1172  0.9324
17677TIP3   OH274521   2.442   5.273   2.420  0.5821  0.5113  0.2176
17677TIP3    H174522   2.423   5.227   2.338 -0.9241  0.0784  0.7646
17677TIP3    H274523   2.487   5.208   2.474  0.4932  0.4102  0.1709
17678TIP3   OH274524   1.029   1.248  14.429  0.1407  0.7268 -0.1963
17678TIP3    H174525   0.950   1.246  14.376  0.1893 -1.1261 -0.2426
17678TIP3    H274526   1.101   1.247  14.366  0.1941 -1.0945 -0.1657
17679TIP3   OH274527   1.251   3.061   5.734 -0.0088 -0.1494 -0.0695
17679TIP3    H174528   1.223   3.101   5.817  0.1110 -0.2387  0.0138
17679TIP3    H274529   1.216   2.972   5.737 -0.7343  0.1094 -0.4902
17680TIP3   OH274530   2.387   0.559  15.049 -0.1054 -0.0874  0.2259
17680TIP3    H174531   2.368   0.536  14.959 -0.6268  1.9821 -0.2410
17680TIP3    H274532   2.302   0.553  15.094 -0.4237  1.5215 -0.0844
17681TIP3   OH274533   6.234   5.180  14.434 -0.1261  0.0435  0.1195
17681TIP3    H174534   6.287   5.252  14.470  0.7980 -1.1371  1.2242
17681TIP3    H274535   6.257   5.178  14.341  0.7379  0.4305  0.3126
17682TIP3   OH274536   1.629   0.620   1.455 -0.1891 -0.1505  0.2474
17682TIP3    H174537   1.558   0.675   1.486 -0.2517 -0.4168  0.5847
17682TIP3    H274538   1.634   0.637   1.361  0.0968  0.7715  0.4189
17683TIP3   OH274539   6.586   0.465  13.849  0.1015  0.1543  0.2641
17683TIP3    H174540   6.605   0.372  13.837 -1.2078  0.1644 -2.7616
17683TIP3    H274541   6.491   0.470  13.850  0.0191  1.1968  4.2007
17684TIP3   OH274542   0.376   3.775  11.977 -0.1036 -0.9079  0.5731
17684TIP3    H174543   0.314   3.705  11.996  0.9692 -2.4669 -1.2562
17684TIP3    H274544   0.339   3.821  11.902 -0.3627 -0.0425  1.2118
17685TIP3   OH274545   2.354   0.066   5.567  0.1474 -0.4788 -0.4596
17685TIP3    H174546   2.423   0.013   5.608  0.2867 -1.1914 -1.5572
17685TIP3    H274547   2.288   0.002   5.540 -0.3325  0.0599 -0.5748
17686TIP3   OH274548   6.038   4.062   3.038 -0.2390 -0.0396  0.1097
17686TIP3    H174549   5.999   4.139   2.995 -0.0155  0.6138  1.0302
17686TIP3    H274550   6.111   4.037   2.982  0.1342  0.8761  0.1632
17687TIP3   OH274551   3.065   1.007  11.969 -0.7934 -0.9511  0.3112
17687TIP3    H174552   3.151   0.968  11.950 -0.2527 -0.2223  1.1368
17687TIP3    H274553   3.002   0.946  11.932  0.0985  0.4133 -4.0170
17688TIP3   OH274554   4.623   3.362  13.256  0.1258 -0.0740  0.6473
17688TIP3    H174555   4.584   3.318  13.331 -2.1540  0.8993  0.1280
17688TIP3    H274556   4.550   3.410  13.216  1.4605  0.1802 -1.6546
17689TIP3   OH274557   2.135   4.158   3.718  0.3244  0.1107 -0.0194
17689TIP3    H174558   2.172   4.111   3.643  0.7092 -0.3979  0.4846
17689TIP3    H274559   2.042   4.137   3.716  0.8128 -2.7362  1.6066
17690TIP3   OH274560   3.267   4.283  14.177 -0.0072 -0.4372 -0.0905
17690TIP3    H174561   3.188   4.322  14.214  0.1637 -0.8656  0.7290
17690TIP3    H274562   3.291   4.342  14.105 -0.1399  0.5925  0.6934
17691TIP3   OH274563   1.262   3.746  15.723 -0.2069  0.0212 -0.0347
17691TIP3    H174564   1.281   3.742  15.630 -2.5584 -0.4364 -0.5659
17691TIP3    H274565   1.223   3.833  15.737  2.1896  1.0107  1.0257
17692TIP3   OH274566   3.231   4.765  10.849  0.2999 -0.2997  0.1474
17692TIP3    H174567   3.201   4.832  10.786  0.3470 -1.1926 -0.8511
17692TIP3    H274568   3.240   4.813  10.931 -2.1499  0.4109  0.0912
17693TIP3   OH274569   4.531   2.117   3.052 -0.3564  0.2857  0.4432
17693TIP3    H174570   4.525   2.166   3.134 -0.4206 -1.6057  1.6242
17693TIP3    H274571   4.507   2.181   2.985 -0.5860  1.8186  1.9017
17694TIP3   OH274572   5.661   1.238   0.087  0.3111 -0.0788 -0.4149
17694TIP3    H174573   5.572   1.204   0.074  0.7151 -1.3752 -0.0125
17694TIP3    H274574   5.717   1.161   0.082  1.6028  0.9133 -2.1518
17695TIP3   OH274575   0.177   3.915  15.699 -0.4042  0.4709  0.0968
17695TIP3    H174576   0.134   3.993  15.664 -1.6161  1.1861  2.9613
17695TIP3    H274577   0.260   3.946  15.733  0.1678  0.0310 -0.8578
17696TIP3   OH274578   3.038   3.236   0.921  0.0037  0.6500 -0.0746
17696TIP3    H174579   3.019   3.176   0.992 -1.4038  1.4971  0.2970
17696TIP3    H274580   3.017   3.187   0.841 -0.9660  0.5935  0.2146
17697TIP3   OH274581   3.711   0.977  13.837 -0.3980  0.1270 -0.5495
17697TIP3    H174582   3.746   0.892  13.809  0.4010 -0.1808  1.2425
17697TIP3    H274583   3.656   0.956  13.912  1.4302  1.3399  1.2284
17698TIP3   OH274584   4.077   1.528   1.033  0.3455 -0.4266  0.2856
17698TIP3    H174585   4.126   1.461   0.986  4.1321  1.4414  1.1800
17698TIP3    H274586   4.056   1.488   1.117  0.9803 -1.0792  0.1396
17699TIP3   OH274587   0.897   2.454  15.373 -0.4458 -0.5147 -0.1146
17699TIP3    H174588   0.860   2.369  15.347 -0.9991 -0.8359  1.5703
17699TIP3    H274589   0.859   2.516  15.312 -0.2299 -1.4447 -1.2299
17700TIP3   OH274590   5.574   3.975  13.123 -0.8782  0.3047  0.0521
17700TIP3    H174591   5.643   3.975  13.189 -1.3745  0.3275  0.5755
17700TIP3    H274592   5.567   3.883  13.096 -0.2274  0.3981 -0.4472
17701TIP3   OH274593   1.107   5.503   0.791 -0.2486 -0.1336 -0.2590
17701TIP3    H174594   1.085   5.577   0.735 -0.9313 -0.6274 -0.6652
17701TIP3    H274595   1.151   5.541   0.866 -2.0077  0.8674  0.3180
17702TIP3   OH274596   0.026   3.404   2.575 -0.6324  0.8388  0.3565
17702TIP3    H174597   0.076   3.379   2.653 -0.1497  2.4934  0.6015
17702TIP3    H274598  -0.043   3.338   2.570  1.3797 -1.4097  0.1430
17703TIP3   OH274599   6.695   2.421  16.253  0.3835  0.1834  0.2575
17703TIP3    H174600   6.726   2.511  16.255 -1.0011  0.6637  1.5816
17703TIP3    H274601   6.736   2.383  16.175  0.4927  2.1170 -0.6757
17704TIP3   OH274602   6.616   1.008   0.676  0.1111 -0.1795  0.1081
17704TIP3    H174603   6.665   0.939   0.631  0.1723  0.6190 -1.0861
17704TIP3    H274604   6.540   0.962   0.713  0.4161 -0.9772 -0.2222
17705TIP3   OH274605   0.425   6.033  11.229 -0.6981 -0.2372 -0.7238
17705TIP3    H174606   0.400   6.010  11.140  0.7229  0.1382 -1.2537
17705TIP3    H274607   0.437   5.949  11.273  2.7906 -0.6632 -2.1645
17706TIP3   OH274608   0.385   3.754   3.405 -0.5702  0.3881 -0.1509
17706TIP3    H174609   0.414   3.663   3.400 -0.3183  0.1081  3.7109
17706TIP3    H274610   0.465   3.805   3.393 -0.2777  0.0024  0.1416
17707TIP3   OH274611   1.069   5.722  11.231 -0.0488 -0.2520 -0.0843
17707TIP3    H174612   1.000   5.676  11.279 -0.7359 -0.4100 -1.1918
17707TIP3    H274613   1.044   5.814  11.237  0.2426 -0.2040  0.4385
17708TIP3   OH274614   1.291   0.492   0.703  0.1393  0.2074  0.5031
17708TIP3    H174615   1.250   0.425   0.648  1.9192  0.3334 -1.0661
17708TIP3    H274616   1.247   0.573   0.677  0.2476  0.1154  0.0274
17709TIP3   OH274617   0.430   2.044  16.232  0.1823 -0.6117 -0.5410
17709TIP3    H174618   0.384   2.044  16.316 -0.9542 -3.1428 -1.0879
17709TIP3    H274619   0.523   2.042  16.256 -0.1199 -3.0677  0.7771
17710TIP3   OH274620   2.437   2.434  15.245  0.1190  0.1042  0.3746
17710TIP3    H174621   2.481   2.503  15.294  1.6338 -1.3993  1.2287
17710TIP3    H274622   2.443   2.357  15.301  0.2935 -1.2244 -1.3922
17711TIP3   OH274623   0.462   5.291  11.987 -0.4096 -0.1279  0.4110
17711TIP3    H174624   0.492   5.278  11.897  0.0857 -2.0286  0.8028
17711TIP3    H274625   0.540   5.274  12.041 -0.9870 -0.2037  1.2373
17712TIP3   OH274626   3.443   0.486  16.842 -0.1309 -0.0455  0.0247
17712TIP3    H174627   3.514   0.544  16.868  0.1370 -0.7928  1.0447
17712TIP3    H274628   3.365   0.525  16.881  0.1676 -0.7788  1.4067
17713TIP3   OH274629   0.195   6.728   0.604 -0.4046 -0.6077 -0.0041
17713TIP3    H174630   0.237   6.710   0.689  1.1354 -3.2895 -1.1947
17713TIP3    H274631   0.251   6.794   0.563  0.7002 -1.5946 -0.1467
17714TIP3   OH274632   5.525   3.548  15.961  0.1665  0.3080 -0.2437
17714TIP3    H174633   5.615   3.521  15.980 -1.1192 -2.4517  2.7842
17714TIP3    H274634   5.490   3.479  15.905 -0.4652  0.7079 -0.3592
17715TIP3   OH274635   4.716   5.087   5.528 -0.0115 -0.1790 -0.3950
17715TIP3    H174636   4.810   5.106   5.522 -0.1184  0.0180 -2.2381
17715TIP3    H274637   4.675   5.173   5.539 -0.0164 -0.1573 -0.5683
17716TIP3   OH274638   0.555   0.505   2.174  0.7376  0.3341 -0.5709
17716TIP3    H174639   0.517   0.427   2.215  1.0391  0.2334 -0.4764
17716TIP3    H274640   0.566   0.481   2.082 -1.1045  0.9924 -1.0088
17717TIP3   OH274641   0.058   3.403  12.851 -0.4120  0.3627 -0.0333
17717TIP3    H174642   0.081   3.333  12.789 -0.3534 -0.1818  0.5933
17717TIP3    H274643  -0.037   3.400  12.856 -0.3830  0.0409  0.3231
17718TIP3   OH274644   2.264   2.267   1.352 -0.2376  0.4527  0.1841
17718TIP3    H174645   2.254   2.282   1.257  1.3663 -0.1921 -0.1163
17718TIP3    H274646   2.178   2.238   1.381 -0.0409 -2.3642 -1.6857
17719TIP3   OH274647   3.337   5.434   5.338  0.5412  0.0443 -0.1483
17719TIP3    H174648   3.417   5.444   5.287  0.8130 -2.4238 -0.3505
17719TIP3    H274649   3.361   5.377   5.411 -1.0693 -1.1676 -0.4827
17720TIP3   OH274650   4.968   4.668   5.314  0.0528  0.1632  0.4904
17720TIP3    H174651   4.899   4.710   5.365  1.0653  1.1988  1.0564
17720TIP3    H274652   4.956   4.575   5.330 -1.9361  0.2131 -0.3767
17721TIP3   OH274653   4.794   5.494   5.860 -0.5972 -0.2599 -0.5540
17721TIP3    H174654   4.740   5.417   5.876  1.5899 -1.4608  1.8927
17721TIP3    H274655   4.755   5.562   5.914 -0.9466 -0.4538 -0.5562
17722TIP3   OH274656   1.134   0.877  15.168 -0.3771  0.5866 -0.1618
17722TIP3    H174657   1.130   0.805  15.105 -3.1354  0.1150  0.4135
17722TIP3    H274658   1.140   0.956  15.114  0.2924  0.0503 -0.8865
17723TIP3   OH274659   0.568   4.013   2.574  0.1725 -0.2719  0.1952
17723TIP3    H174660   0.622   4.092   2.584  0.3416 -0.2802 -0.5752
17723TIP3    H274661   0.585   3.984   2.484  0.4130 -1.4142  0.5957
17724TIP3   OH274662   6.327   4.265  12.971  0.4718  0.4876 -0.2011
17724TIP3    H174663   6.260   4.255  13.039 -0.1947 -0.5682 -0.9745
17724TIP3    H274664   6.410   4.254  13.017  0.0171 -3.7375  0.0275
17725TIP3   OH274665   6.789   5.138  17.166  0.0981 -0.0568  0.0209
17725TIP3    H174666   6.794   5.046  17.193  2.8806 -0.0922 -0.3285
17725TIP3    H274667   6.845   5.144  17.089  0.1435  1.9687  0.1550
17726TIP3   OH274668   0.047   3.280  15.819 -0.0029  0.0770 -0.0376
17726TIP3    H174669   0.136   3.286  15.852 -0.4098  0.4020  1.0508
17726TIP3    H274670  -0.007   3.317  15.888 -1.0558 -0.8446 -0.3305
17727TIP3   OH274671   4.402   3.598  14.796  0.4920 -0.4373  0.0936
17727TIP3    H174672   4.319   3.642  14.776  1.8400  1.5592 -1.5652
17727TIP3    H274673   4.469   3.661  14.769  2.5617 -2.1906  0.8983
17728TIP3   OH274674   1.759   3.822   5.066 -0.1731 -0.5371  0.1547
17728TIP3    H174675   1.780   3.869   5.147 -0.4259 -2.6645  1.5517
17728TIP3    H274676   1.686   3.765   5.091 -0.9040 -0.5664 -1.8738
17729TIP3   OH274677   4.165   1.419  17.054 -0.7096  0.2847 -0.0983
17729TIP3    H174678   4.193   1.432  17.145  0.9456 -2.6179 -0.0691
17729TIP3    H274679   4.241   1.446  17.002 -1.0759  0.4642 -0.5390
17730TIP3   OH274680   6.684   3.806  15.301  0.3316 -0.3422 -0.0756
17730TIP3    H174681   6.719   3.857  15.374 -0.5938 -0.2884  0.3436
17730TIP3    H274682   6.710   3.716  15.320 -0.5042 -0.4348  0.7036
17731TIP3   OH274683   1.118   4.407  12.734 -0.0230  0.5521  0.2326
17731TIP3    H174684   1.030   4.418  12.698 -0.0413 -0.1255  0.0539
17731TIP3    H274685   1.176   4.440  12.665 -0.1827  3.0399  1.1857
17732TIP3   OH274686   2.724   4.378  13.840  0.0965  0.6165 -0.3974
17732TIP3    H174687   2.649   4.376  13.899 -0.7571 -1.2829 -1.4559
17732TIP3    H274688   2.699   4.439  13.771 -0.4139  0.0836 -0.6812
17733TIP3   OH274689   2.581   3.854   2.266  0.4149 -0.3486  0.1080
17733TIP3    H174690   2.501   3.883   2.224  0.8964  0.3020 -0.3863
17733TIP3    H274691   2.645   3.848   2.195  0.6780 -1.3395  0.4163
17734TIP3   OH274692   0.245   6.385  10.681 -0.3543  0.5226  0.3458
17734TIP3    H174693   0.217   6.476  10.677  0.6983  0.8154 -2.1621
17734TIP3    H274694   0.212   6.346  10.600  0.3837 -0.9598  0.7132
17735TIP3   OH274695   1.349   4.495   4.232 -0.6610  0.5745  0.1972
17735TIP3    H174696   1.333   4.574   4.285 -1.5899 -0.5323  1.6579
17735TIP3    H274697   1.330   4.522   4.142  0.4386  2.3847  0.4519
17736TIP3   OH274698   3.703   0.562  14.919 -0.4595  0.2717 -0.2683
17736TIP3    H174699   3.776   0.620  14.940 -1.7018  1.8094  0.0711
17736TIP3    H274700   3.627   0.606  14.958 -1.5770 -1.2105 -0.7008
17737TIP3   OH274701   6.102   4.285   4.643  0.0936 -0.0101  0.5972
17737TIP3    H174702   6.018   4.262   4.603  0.8636 -1.9172 -0.0303
17737TIP3    H274703   6.166   4.278   4.572  1.1441 -1.1649  1.6011
17738TIP3   OH274704   1.013   2.102   2.359  0.4665 -0.2759  0.2805
17738TIP3    H174705   0.939   2.052   2.327  0.7068  0.0363 -0.8163
17738TIP3    H274706   1.042   2.154   2.283  2.0191 -0.6556  0.5661
17739TIP3   OH274707   5.433   1.568   5.074 -0.3144 -0.0069 -0.4771
17739TIP3    H174708   5.396   1.656   5.075  1.9688  1.0140  0.3341
17739TIP3    H274709   5.419   1.535   5.163  1.0119  0.5520 -0.0388
17740TIP3   OH274710   3.078   3.340  13.762 -0.2629 -0.6452 -0.3656
17740TIP3    H174711   3.095   3.246  13.767 -1.2731 -0.7760  1.2773
17740TIP3    H274712   3.120   3.376  13.841 -2.2979 -0.1645  0.5600
17741TIP3   OH274713   2.500   3.634   2.061  0.2044  0.6454  0.2628
17741TIP3    H174714   2.552   3.686   1.999 -1.3220  1.3680 -0.4790
17741TIP3    H274715   2.477   3.555   2.012  0.0380  0.6475  0.3378
17742TIP3   OH274716   0.944   0.726   5.813  0.3677 -0.4629  0.0856
17742TIP3    H174717   0.883   0.659   5.846  0.1339 -0.0460  0.5098
17742TIP3    H274718   1.021   0.719   5.870 -0.8633  1.6951  2.2092
17743TIP3   OH274719   0.790   6.638  16.562  0.2545  0.2813  0.0019
17743TIP3    H174720   0.772   6.631  16.468 -0.8076 -1.1340  0.2868
17743TIP3    H274721   0.877   6.600  16.573 -0.1689 -0.7703 -0.2403
17744TIP3   OH274722   3.298   0.789  12.480  0.5860 -0.0488  0.2032
17744TIP3    H174723   3.250   0.706  12.474  0.1120  0.2893 -0.8813
17744TIP3    H274724   3.245   0.851  12.430  1.0391  0.8701  0.8307
17745TIP3   OH274725   5.616   3.970   6.810 -0.1547 -0.4829  0.5204
17745TIP3    H174726   5.705   3.942   6.827 -0.5163 -2.1636 -0.1228
17745TIP3    H274727   5.624   4.040   6.744  0.7052 -0.0298  1.0946
17746TIP3   OH274728   4.292   1.716   0.327 -0.1579  0.2755 -0.8354
17746TIP3    H174729   4.353   1.690   0.258 -2.0044 -0.5190 -2.2192
17746TIP3    H274730   4.348   1.760   0.392  2.3284 -2.6268 -0.7680
17747TIP3   OH274731   6.251   1.280   0.193 -0.3155  0.0785  0.8949
17747TIP3    H174732   6.279   1.363   0.231  1.1027 -0.6797  1.5887
17747TIP3    H274733   6.270   1.289   0.099  0.4666  0.3135  1.0641
17748TIP3   OH274734   5.942   5.674   2.217 -0.0013 -1.0769 -0.6836
17748TIP3    H174735   5.951   5.696   2.310  1.8679  1.2880 -1.3022
17748TIP3    H274736   5.863   5.621   2.212 -0.0354 -1.4827  2.2657
17749TIP3   OH274737   1.290   1.993   3.882 -0.0729  0.2379 -0.0591
17749TIP3    H174738   1.268   2.010   3.974  1.5617 -3.1548  1.1641
17749TIP3    H274739   1.379   2.026   3.872  0.0696 -0.1573 -0.1306
17750TIP3   OH274740   2.538   3.565   4.661  0.5274 -0.3733  0.0070
17750TIP3    H174741   2.456   3.558   4.711  0.8703 -0.4161  0.5770
17750TIP3    H274742   2.589   3.489   4.689  0.8358 -0.2479 -0.2112
17751TIP3   OH274743   5.089   3.632   4.221 -0.5693 -0.3629  0.4131
17751TIP3    H174744   5.102   3.695   4.291  2.0832 -1.2541  0.8613
17751TIP3    H274745   5.001   3.649   4.188 -0.6256  2.3172  1.7115
17752TIP3   OH274746   6.292   3.909   3.287 -0.2033 -0.6648 -0.5835
17752TIP3    H174747   6.379   3.907   3.326  0.7471  0.6138 -2.5010
17752TIP3    H274748   6.274   4.002   3.273 -2.6602 -0.7524  1.3304
17753TIP3   OH274749   3.932   0.025   3.233 -0.0508 -0.0052  0.1180
17753TIP3    H174750   4.007  -0.034   3.231  0.8366  1.0803  0.2012
17753TIP3    H274751   3.906   0.028   3.326 -0.0160 -0.1719  0.1318
17754TIP3   OH274752   3.629   0.330  13.555 -0.3277 -0.6159 -0.5762
17754TIP3    H174753   3.565   0.318  13.485 -0.3244  1.0286 -0.8786
17754TIP3    H274754   3.695   0.262  13.538 -0.0538  0.0622 -2.5055
17755TIP3   OH274755   0.913   2.906  15.182  0.3446 -0.1677  0.0859
17755TIP3    H174756   0.967   2.938  15.254 -0.5679  2.6566 -0.3407
17755TIP3    H274757   0.970   2.909  15.105 -0.0080  1.6995 -0.1529
17756TIP3   OH274758   0.006   5.810   5.489  0.2441  0.4639 -0.4668
17756TIP3    H174759   0.029   5.717   5.487 -0.3025  0.3211 -0.1578
17756TIP3    H274760   0.041   5.842   5.572  1.2997  0.7656 -1.0143
17757TIP3   OH274761   2.929   6.045  15.337 -0.6638  0.2214 -0.3496
17757TIP3    H174762   3.009   6.097  15.329  0.5795 -1.6969 -1.0231
17757TIP3    H274763   2.897   6.064  15.426  2.4682 -1.4768  1.3248
17758TIP3   OH274764   6.654   0.532  17.113 -0.0874  0.0032 -0.3784
17758TIP3    H174765   6.576   0.506  17.162 -0.6383 -0.2618 -1.3885
17758TIP3    H274766   6.724   0.477  17.149 -0.4513 -0.1055  0.1797
17759TIP3   OH274767   4.323   6.432   0.579 -0.5553  0.4801 -0.4773
17759TIP3    H174768   4.310   6.517   0.622  0.2330  0.7947 -0.8432
17759TIP3    H274769   4.335   6.453   0.487  0.2886  0.0373 -0.4783
17760TIP3   OH274770   3.275   3.734  11.100 -0.5425  0.8865 -0.2456
17760TIP3    H174771   3.360   3.701  11.070 -0.5617  0.5237  0.0844
17760TIP3    H274772   3.295   3.789  11.175 -0.8347 -2.3923  2.4796
17761TIP3   OH274773   1.727   4.027  11.564 -0.1948  0.0641  0.4756
17761TIP3    H174774   1.740   4.001  11.655  0.4644 -2.1696 -0.2060
17761TIP3    H274775   1.636   4.006  11.545 -0.3843  0.6984  0.6400
17762TIP3   OH274776   2.986   1.473   2.322 -0.3099 -0.0742 -0.0969
17762TIP3    H174777   2.960   1.546   2.378  0.8567 -0.2263  0.6597
17762TIP3    H274778   3.081   1.474   2.323 -0.2579 -1.9383  0.3755
17763TIP3   OH274779   4.232   1.460   3.879  0.1073  0.2383 -0.1641
17763TIP3    H174780   4.291   1.478   3.806 -0.0579 -0.9093 -0.5982
17763TIP3    H274781   4.263   1.517   3.950  0.8419  0.6794 -0.8285
17764TIP3   OH274782   4.548   6.189   1.669  0.0078 -0.5802 -0.2435
17764TIP3    H174783   4.494   6.247   1.723 -0.1642 -1.0249  0.0704
17764TIP3    H274784   4.562   6.237   1.588  0.9386  0.4398  0.4986
17765TIP3   OH274785   3.814   5.581  13.460 -0.0253  0.0490  0.5580
17765TIP3    H174786   3.830   5.492  13.491 -1.5426 -1.6630 -2.9263
17765TIP3    H274787   3.721   5.595  13.476 -0.0286  0.5535  0.1186
17766TIP3   OH274788   4.704   2.812  16.701  0.6442 -0.1066  0.1922
17766TIP3    H174789   4.763   2.758  16.649  1.6248 -0.3724  1.5020
17766TIP3    H274790   4.761   2.878  16.741 -0.1072  0.2555  0.6946
17767TIP3   OH274791   5.536   5.716   5.332 -0.2358  0.2618 -0.0911
17767TIP3    H174792   5.625   5.705   5.300  0.1881 -2.9417  1.7853
17767TIP3    H274793   5.521   5.811   5.331  2.6986  0.8037 -1.6095
17768TIP3   OH274794   5.902   4.506   0.838  0.0677  0.0239  0.2352
17768TIP3    H174795   5.921   4.424   0.793 -1.6074  0.1950 -0.8910
17768TIP3    H274796   5.960   4.570   0.797  0.2297 -0.2880 -0.0253
17769TIP3   OH274797   2.008   1.586  14.684  0.1666  0.2801 -0.6107
17769TIP3    H174798   2.093   1.548  14.706  0.0963  0.0275 -0.7669
17769TIP3    H274799   1.944   1.517  14.705 -0.0873  0.8010  0.3870
17770TIP3   OH274800   4.374   5.282  16.819 -0.2641  0.1031 -0.3173
17770TIP3    H174801   4.344   5.275  16.728 -0.4085 -1.0051 -0.2002
17770TIP3    H274802   4.432   5.359  16.820 -0.0391 -0.0420 -1.4008
17771TIP3   OH274803   0.604   5.825  11.628 -0.1064  0.3578  0.5564
17771TIP3    H174804   0.530   5.863  11.675 -1.2233 -0.5971 -0.3545
17771TIP3    H274805   0.605   5.870  11.544  0.1184  0.1242  0.4302
17772TIP3   OH274806   1.528   5.351  16.491  0.3189 -0.1674  0.1310
17772TIP3    H174807   1.548   5.444  16.482  0.2118 -0.2774 -1.5149
17772TIP3    H274808   1.515   5.321  16.401  0.3261 -1.7709  0.6485
17773TIP3   OH274809   4.094   2.801   4.810 -0.0312 -0.3321 -0.2874
17773TIP3    H174810   4.085   2.713   4.846  2.2103 -0.4031  0.2765
17773TIP3    H274811   4.061   2.794   4.721  2.4112 -2.4645 -1.1569
17774TIP3   OH274812   3.436   3.415  11.161 -0.0311  0.2511  0.1859
17774TIP3    H174813   3.459   3.323  11.147 -0.7035  0.1394 -0.2027
17774TIP3    H274814   3.519   3.456  11.186  0.1568 -0.5876  1.0209
17775TIP3   OH274815   4.282   2.830   0.459  0.3592 -0.6258  0.6350
17775TIP3    H174816   4.269   2.838   0.364 -0.6820  0.1103  0.8084
17775TIP3    H274817   4.371   2.860   0.474 -0.0243  0.9448  0.0429
17776TIP3   OH274818   4.806   5.829  12.348  0.3156  0.0432 -0.0614
17776TIP3    H174819   4.721   5.846  12.387 -0.2019 -0.7117 -0.8135
17776TIP3    H274820   4.827   5.740  12.373  0.6125  0.0271 -0.3512
17777TIP3   OH274821   3.826   2.430  11.594  0.0993 -0.8305 -0.0138
17777TIP3    H174822   3.889   2.437  11.522  1.5674 -0.6286  1.2423
17777TIP3    H274823   3.751   2.384  11.556  1.1643 -1.4364 -1.4597
17778TIP3   OH274824   0.275   2.527  16.132 -0.3636  0.0867  0.1284
17778TIP3    H174825   0.367   2.523  16.106 -0.9554 -1.6373 -2.0663
17778TIP3    H274826   0.265   2.456  16.196 -0.1386  0.4245  0.5431
17779TIP3   OH274827   4.266   5.863  14.377 -0.4308 -0.1801  0.1345
17779TIP3    H174828   4.266   5.784  14.323 -1.4566 -0.2287  0.1914
17779TIP3    H274829   4.185   5.859  14.426  0.4091 -0.0565  1.5935
17780TIP3   OH274830   3.495   3.863  15.514  0.0060 -0.0664  0.0075
17780TIP3    H174831   3.441   3.808  15.572 -1.9367  0.4431 -1.2057
17780TIP3    H274832   3.571   3.887  15.567  2.0570 -5.3773  0.1199
17781TIP3   OH274833   4.387   1.135   5.129 -0.0503 -0.7522 -0.5063
17781TIP3    H174834   4.368   1.214   5.179  0.1248 -0.6778 -0.5577
17781TIP3    H274835   4.371   1.159   5.038 -2.9607 -1.6052 -0.3470
17782TIP3   OH274836   1.592   2.894  17.113 -0.6037  0.6424  0.6385
17782TIP3    H174837   1.632   2.933  17.036  0.8848 -1.8349  0.0777
17782TIP3    H274838   1.506   2.937  17.119 -0.3386  1.6617 -1.7445
17783TIP3   OH274839   4.287   1.424  11.933 -0.3337  0.4809  0.4971
17783TIP3    H174840   4.329   1.502  11.897 -1.2469  1.2492  1.0380
17783TIP3    H274841   4.211   1.458  11.980 -1.1776 -0.8013  0.1062
17784TIP3   OH274842   6.064   1.352  13.047 -0.5348  0.4514  0.6346
17784TIP3    H174843   6.137   1.293  13.028  0.8276  1.7308  1.5791
17784TIP3    H274844   6.020   1.365  12.963  0.0388 -0.7279  0.1417
17785TIP3   OH274845   5.776   6.415   2.959  0.1611 -0.1183  0.7424
17785TIP3    H174846   5.703   6.352   2.960  0.7194 -0.7942  0.1527
17785TIP3    H274847   5.752   6.478   2.891  1.4865 -2.0699 -1.7326
17786TIP3   OH274848   5.394   4.180   1.611 -0.2833 -0.1958 -0.2235
17786TIP3    H174849   5.305   4.205   1.588 -0.2903 -0.3859 -0.4191
17786TIP3    H274850   5.429   4.255   1.659 -0.7899 -0.4161  0.5015
17787TIP3   OH274851   0.712   2.220  10.625  0.0126 -0.5536  0.2557
17787TIP3    H174852   0.797   2.175  10.631  1.4685  2.1509  2.1161
17787TIP3    H274853   0.733   2.306  10.589 -1.9703  0.1229  0.6255
17788TIP3   OH274854   5.031   3.608   0.806  0.3190  0.3188  0.0655
17788TIP3    H174855   5.055   3.625   0.896 -1.7812  0.4246  0.6724
17788TIP3    H274856   5.033   3.513   0.797  4.0833  0.3456 -0.9310
17789TIP3   OH274857   4.588   2.195  15.753  0.3227 -0.5254  0.0056
17789TIP3    H174858   4.542   2.271  15.717  0.2238 -0.1549  0.8955
17789TIP3    H274859   4.675   2.198  15.713 -0.6248 -1.7137 -2.3804
17790TIP3   OH274860   1.697   4.253  11.374  0.3295 -0.6419 -0.2937
17790TIP3    H174861   1.745   4.329  11.406 -2.1196  1.2575 -0.8748
17790TIP3    H274862   1.689   4.196  11.451  1.2014  0.2248  0.4657
17791TIP3   OH274863   5.238   3.656   0.476  0.3058  0.1098 -0.1855
17791TIP3    H174864   5.249   3.568   0.439  0.2419 -0.5325  1.2625
17791TIP3    H274865   5.313   3.667   0.535 -0.7482  0.1947  1.1906
17792TIP3   OH274866   6.136   6.258   4.010  0.3500 -0.0236  0.3288
17792TIP3    H174867   6.074   6.301   3.951  0.6374 -0.9428 -0.6764
17792TIP3    H274868   6.115   6.293   4.096  0.0028  1.4618 -0.3216
17793TIP3   OH274869   3.464   6.714   5.250 -0.1595 -0.3452  0.4216
17793TIP3    H174870   3.454   6.721   5.345 -0.5728  0.1343  0.3499
17793TIP3    H274871   3.442   6.801   5.217  1.9323  0.0714  0.0198
17794TIP3   OH274872   3.995   5.453   5.148 -0.3099 -0.0881  0.1390
17794TIP3    H174873   3.979   5.429   5.057  0.4760  0.5982 -0.1845
17794TIP3    H274874   3.962   5.378   5.198 -3.2751  0.6255 -0.5343
17795TIP3   OH274875   2.692   3.478  10.624 -0.5313 -0.0179  0.1403
17795TIP3    H174876   2.682   3.441  10.712 -0.2841  1.5667  0.8629
17795TIP3    H274877   2.771   3.436  10.590  0.7588  1.1006  1.6325
17796TIP3   OH274878   1.563   6.533  10.943  0.7888 -0.2300 -0.3635
17796TIP3    H174879   1.633   6.541  10.879 -1.6591  0.7651 -3.1557
17796TIP3    H274880   1.484   6.520  10.890 -1.4368  0.7856  2.4718
17797TIP3   OH274881   3.104   5.206   4.790 -0.7092 -0.1953  0.4946
17797TIP3    H174882   3.152   5.281   4.826 -1.5365  0.3607  0.4732
17797TIP3    H274883   3.081   5.234   4.701  0.9819 -1.3997 -0.3732
17798TIP3   OH274884   2.225   2.700   1.774  0.3630  0.0504  0.1020
17798TIP3    H174885   2.234   2.786   1.817 -1.2325 -0.1696  0.9188
17798TIP3    H274886   2.132   2.681   1.776  0.8142 -2.5243  1.5685
17799TIP3   OH274887   4.575   3.245   5.518 -0.5576 -0.6343  0.1367
17799TIP3    H174888   4.559   3.168   5.463  0.9401 -0.5076 -0.5230
17799TIP3    H274889   4.667   3.239   5.542 -0.5144  0.7430  0.4109
17800TIP3   OH274890   2.362   2.088  16.594 -0.4423 -0.0043 -0.2417
17800TIP3    H174891   2.369   2.043  16.510 -1.8434 -0.9183  0.0857
17800TIP3    H274892   2.446   2.132  16.605  0.6095 -1.7003 -1.0829
17801TIP3   OH274893   3.409   1.294  13.091 -0.5172  0.6941  0.0779
17801TIP3    H174894   3.348   1.332  13.154 -1.2560 -1.2812  0.6095
17801TIP3    H274895   3.353   1.258  13.022 -0.0183 -1.3399  0.6723
17802TIP3   OH274896   3.468   5.724  15.832 -0.1536  0.3559 -0.0937
17802TIP3    H174897   3.526   5.737  15.907 -0.9532 -1.0573  0.8369
17802TIP3    H274898   3.425   5.808  15.819  0.6938  0.8796  0.4345
17803TIP3   OH274899   4.474   3.888  15.694  0.0883  0.4036  0.0253
17803TIP3    H174900   4.492   3.809  15.643  1.4023  1.5068 -1.3139
17803TIP3    H274901   4.442   3.855  15.778  1.0468 -1.5710 -0.3151
17804TIP3   OH274902   5.682   0.440   5.720  0.2629  0.1789  0.3029
17804TIP3    H174903   5.645   0.526   5.738 -1.7527 -0.2278 -1.4340
17804TIP3    H274904   5.673   0.392   5.802 -1.2778  0.7700  0.5143
17805TIP3   OH274905   0.988   4.659  11.134  0.5554 -0.3631  0.6988
17805TIP3    H174906   1.011   4.623  11.048  0.0145  0.2907  0.2657
17805TIP3    H274907   0.940   4.589  11.178 -0.1528 -0.3174  0.0184
17806TIP3   OH274908   5.510   1.693   5.845  0.0279  0.4842  0.2532
17806TIP3    H174909   5.431   1.745   5.831  0.3505  0.7490 -0.6823
17806TIP3    H274910   5.556   1.697   5.761  1.3967  0.9542  0.9835
17807TIP3   OH274911   1.493   5.655   2.286  0.3184  0.1924 -0.3621
17807TIP3    H174912   1.419   5.598   2.306 -1.5207  3.4668  3.7458
17807TIP3    H274913   1.454   5.730   2.241  2.0168  0.0311 -2.2467
17808TIP3   OH274914   0.445   6.616  15.547 -0.1333  0.9642  0.0231
17808TIP3    H174915   0.478   6.526  15.544  2.3867  1.7893  0.4287
17808TIP3    H274916   0.371   6.616  15.487  0.0127 -1.2862 -0.2630
17809TIP3   OH274917   5.571   0.244   5.032  0.2928  0.7583  0.1616
17809TIP3    H174918   5.611   0.281   5.111  1.9661  0.6216 -0.6017
17809TIP3    H274919   5.559   0.151   5.052  1.2803  0.6005  0.0425
17810TIP3   OH274920   2.962   4.753   3.462  0.0431  0.5086  0.0260
17810TIP3    H174921   2.900   4.681   3.454 -0.6260  1.2694 -2.4763
17810TIP3    H274922   3.031   4.733   3.400  0.0489  1.7828 -0.4181
17811TIP3   OH274923   4.010   5.184   5.230  0.1969  0.2397  0.4796
17811TIP3    H174924   4.037   5.132   5.306 -0.6669  0.4234  0.9172
17811TIP3    H274925   4.002   5.121   5.159 -1.1599 -0.3035  1.0846
17812TIP3   OH274926   1.586   1.615  11.124 -0.3975 -0.2594  0.3544
17812TIP3    H174927   1.676   1.649  11.123 -0.3894 -0.2553 -1.3290
17812TIP3    H274928   1.594   1.525  11.094 -0.8210 -0.7143  1.5436
17813TIP3   OH274929   2.553   1.000   2.998  0.1282  0.1433  0.2542
17813TIP3    H174930   2.571   1.006   2.904  0.8084 -0.6654  0.3231
17813TIP3    H274931   2.563   1.090   3.030  0.5136  0.3156 -0.3322
17814TIP3   OH274932   3.962   6.027   5.346  0.5225 -0.1766  0.2395
17814TIP3    H174933   4.054   6.023   5.320  0.5496  0.8358  0.1375
17814TIP3    H274934   3.929   6.108   5.307  0.2194  0.7354  2.2914
17815TIP3   OH274935   1.867   1.063  14.079  0.6575  1.0007 -0.3591
17815TIP3    H174936   1.955   1.027  14.067  0.3833 -0.7850  2.2354
17815TIP3    H274937   1.860   1.131  14.011  2.5531 -1.4252 -3.2838
17816TIP3   OH274938   3.238   5.524   1.747 -0.0913 -0.1972 -0.5568
17816TIP3    H174939   3.182   5.478   1.685 -0.2663 -0.3131 -0.3146
17816TIP3    H274940   3.186   5.530   1.827  0.5635 -1.0708 -0.0495
17817TIP3   OH274941   0.956   0.894  11.015 -0.0903 -0.4680  0.8949
17817TIP3    H174942   1.031   0.890  11.074  0.0012 -1.3678  0.7344
17817TIP3    H274943   0.880   0.902  11.072  0.0801 -0.2370  1.0873
17818TIP3   OH274944   0.494   5.827   6.125 -0.1791  0.6329 -0.7336
17818TIP3    H174945   0.460   5.749   6.170  1.3268 -0.2567 -1.0695
17818TIP3    H274946   0.477   5.810   6.032 -1.5719  1.6086 -0.6866
17819TIP3   OH274947   3.632   1.056  16.330  0.5576  0.0525 -0.6721
17819TIP3    H174948   3.698   1.022  16.269  0.1250 -0.2472 -0.9790
17819TIP3    H274949   3.659   1.146  16.347  1.3541 -0.2280 -0.3633
17820TIP3   OH274950   4.060   5.856   1.971 -0.5380  0.4581 -0.6817
17820TIP3    H174951   3.966   5.872   1.958 -0.9284 -0.0091  1.2258
17820TIP3    H274952   4.067   5.761   1.978 -0.2103  0.5664  0.8723
17821TIP3   OH274953   5.577   3.712   4.829 -0.4312  0.6304 -0.0982
17821TIP3    H174954   5.662   3.670   4.817 -0.4664  0.6385 -0.3974
17821TIP3    H274955   5.557   3.702   4.922 -0.3891  0.0810 -0.1486
17822TIP3   OH274956   6.369   5.508   2.721 -0.0285  0.3630 -0.0309
17822TIP3    H174957   6.293   5.540   2.672 -1.5496 -0.8467  1.3900
17822TIP3    H274958   6.439   5.569   2.700 -1.2897  1.3381 -1.6784
17823TIP3   OH274959   2.032   2.829  12.506 -0.4305 -0.2386  0.0607
17823TIP3    H174960   1.992   2.838  12.420 -0.3178 -1.1106 -0.1001
17823TIP3    H274961   2.087   2.750  12.498  0.2838  0.1858  0.6597
17824TIP3   OH274962   2.447   0.168  15.182  0.4115 -0.2070 -0.4336
17824TIP3    H174963   2.376   0.194  15.241  0.6173 -0.8271  0.1053
17824TIP3    H274964   2.418   0.196  15.095  0.4843  1.5024  0.0542
17825TIP3   OH274965   3.275   3.040   0.837 -0.5551  0.0452  0.2367
17825TIP3    H174966   3.242   2.981   0.905 -1.3132  1.2060  0.9171
17825TIP3    H274967   3.368   3.019   0.830 -0.8806 -1.4952  0.1596
17826TIP3   OH274968   3.627   2.160  14.419  0.0289 -0.3264 -0.0199
17826TIP3    H174969   3.636   2.125  14.507 -0.4785  1.4598  0.7970
17826TIP3    H274970   3.710   2.203  14.401  0.0353 -0.4562 -0.3072
17827TIP3   OH274971   2.047   2.052   2.794 -0.0671  0.3066  0.8631
17827TIP3    H174972   1.997   2.121   2.837 -1.1700 -0.1952  0.4248
17827TIP3    H274973   2.138   2.077   2.808 -0.3809  0.5747  2.8009
17828TIP3   OH274974   3.878   5.061  14.171  0.0263 -0.4274 -0.3070
17828TIP3    H174975   3.840   4.973  14.167 -2.1809  0.4969 -1.4718
17828TIP3    H274976   3.811   5.114  14.214  1.1298  0.7913 -0.0365
17829TIP3   OH274977   3.230   5.712   0.241 -0.1601  0.4843  0.1978
17829TIP3    H174978   3.273   5.683   0.321 -0.6829 -1.8126 -0.2730
17829TIP3    H274979   3.137   5.693   0.256 -0.1776 -0.7077 -1.1806
17830TIP3   OH274980   2.357   0.222  13.193 -0.2015  0.5396 -0.3976
17830TIP3    H174981   2.394   0.298  13.237 -0.1261  1.4489 -1.9398
17830TIP3    H274982   2.424   0.154  13.201  1.1333  1.6410 -1.6952
17831TIP3   OH274983   4.315   2.131  14.038 -0.6095  0.2589 -0.2393
17831TIP3    H174984   4.362   2.053  14.067 -1.1526 -0.3962 -1.0790
17831TIP3    H274985   4.279   2.107  13.953 -1.9008  0.9762  0.0836
17832TIP3   OH274986   6.311   1.180   0.770 -0.2947  0.2008 -0.0235
17832TIP3    H174987   6.389   1.171   0.715 -0.3390 -0.2256 -0.0209
17832TIP3    H274988   6.314   1.105   0.829 -1.0917 -0.2241 -0.5123
17833TIP3   OH274989   3.545   0.922   1.979 -0.8739  0.2631 -0.0248
17833TIP3    H174990   3.548   0.827   1.982  2.2945  0.2014 -1.2849
17833TIP3    H274991   3.589   0.950   2.060 -2.4080  0.7364  0.6913
17834TIP3   OH274992   3.901   5.522  16.623  0.0941 -0.4137 -0.4512
17834TIP3    H174993   3.948   5.599  16.593 -0.2368  0.2630  0.6886
17834TIP3    H274994   3.815   5.555  16.650 -0.0918 -1.1876 -0.0650
17835TIP3   OH274995   0.920   1.788   1.395  0.2324  0.3089 -0.0582
17835TIP3    H174996   0.954   1.868   1.357  1.8705  0.1322  0.9346
17835TIP3    H274997   0.922   1.803   1.490 -1.5076 -0.1234  0.0853
17836TIP3   OH274998   2.562   3.112   3.748 -0.4470 -0.8121 -0.2993
17836TIP3    H174999   2.575   3.050   3.676  0.2336 -0.5220 -0.4408
17836TIP3    H275000   2.550   3.057   3.826  0.3560 -1.1366 -0.3888
17837TIP3   OH275001   5.693   0.376   5.236 -0.7941 -0.2877  0.1652
17837TIP3    H175002   5.715   0.466   5.215 -0.3608 -0.5923 -0.7308
17837TIP3    H275003   5.650   0.381   5.322  0.4666  0.6072  0.7674
17838TIP3   OH275004   3.113   3.332  12.434  0.0453 -0.1364  0.7761
17838TIP3    H175005   3.169   3.395  12.479  1.8219 -1.1659  0.1361
17838TIP3    H275006   3.024   3.357  12.458  0.5970  2.9578  0.0979
17839TIP3   OH275007   6.197   3.161  13.341  0.0030 -0.0658  0.6222
17839TIP3    H175008   6.137   3.187  13.271  1.7297  0.9858 -0.5307
17839TIP3    H275009   6.189   3.230  13.407 -0.4916 -0.2582  0.7699
17840TIP3   OH275010   6.190   5.236  15.111  0.4247  0.6021 -0.3071
17840TIP3    H175011   6.219   5.195  15.192  0.5762 -1.1065 -1.1677
17840TIP3    H275012   6.259   5.297  15.087  1.0768  0.0303  0.1025
17841TIP3   OH275013   1.249   4.376  13.961 -0.4572  0.1669  0.6331
17841TIP3    H175014   1.289   4.297  13.997 -0.0439  0.5039  0.9133
17841TIP3    H275015   1.255   4.441  14.031  0.5408  0.8924 -0.0920
17842TIP3   OH275016   2.940   4.105   1.541 -0.3914 -0.0832  0.1182
17842TIP3    H175017   2.939   4.111   1.445  0.1874 -1.8337 -0.0252
17842TIP3    H275018   2.910   4.191   1.570  1.6277  1.3044 -1.5985
17843TIP3   OH275019   5.840   2.773  11.546 -0.1314 -0.8315  0.2901
17843TIP3    H175020   5.874   2.688  11.515 -2.9855 -2.0037  0.1108
17843TIP3    H275021   5.917   2.829  11.549  1.5222 -2.8032 -1.6888
17844TIP3   OH275022   0.221   5.640   3.998  0.1433 -0.2092 -0.5920
17844TIP3    H175023   0.250   5.685   3.918  1.3883  1.7753  0.8845
17844TIP3    H275024   0.270   5.682   4.068 -3.9544  1.1758  1.7681
17845TIP3   OH275025   6.317   2.266  14.496  0.0011 -0.2571  0.2121
17845TIP3    H175026   6.231   2.229  14.477 -0.1584  0.4475 -0.5213
17845TIP3    H275027   6.369   2.247  14.418  0.0820  0.5414  0.0578
17846TIP3   OH275028   5.907   6.215   1.499  0.6641 -0.0430  0.4602
17846TIP3    H175029   5.974   6.234   1.433  1.0562 -1.6135  0.3560
17846TIP3    H275030   5.888   6.122   1.487 -1.2292  0.2557  0.7854
17847TIP3   OH275031   3.382   4.018   5.020  0.4187 -0.3430 -0.0199
17847TIP3    H175032   3.304   4.045   4.973  2.0038  0.7897 -2.1961
17847TIP3    H275033   3.396   4.086   5.086 -1.4134 -1.5625  1.7482
17848TIP3   OH275034   5.641   2.611   4.772  0.1027  0.5364  0.1043
17848TIP3    H175035   5.553   2.575   4.782  0.8818 -1.5446 -0.0714
17848TIP3    H275036   5.631   2.683   4.710 -1.4559  0.3043  0.0572
17849TIP3   OH275037   4.541   1.496   2.295  0.2964 -0.3102 -0.1364
17849TIP3    H175038   4.591   1.577   2.303 -1.3983  0.7307  0.2438
17849TIP3    H275039   4.471   1.504   2.359 -1.2030 -1.0850 -1.6116
17850TIP3   OH275040   6.090   4.178  16.797  0.6699 -0.3326 -0.0095
17850TIP3    H175041   6.117   4.269  16.790 -0.3703 -0.0550 -0.6555
17850TIP3    H275042   6.171   4.128  16.788  1.0074  0.4571 -1.9965
17851TIP3   OH275043   1.603   3.566  12.607 -0.0342  0.4453 -0.3103
17851TIP3    H175044   1.572   3.492  12.555 -0.1964  0.8313 -0.7676
17851TIP3    H275045   1.695   3.575  12.583 -0.4835  1.6142 -1.7539
17852TIP3   OH275046   1.936   5.242  12.784 -0.0599  0.3118 -0.0714
17852TIP3    H175047   1.847   5.257  12.753 -0.1463  0.6913  0.3490
17852TIP3    H275048   1.945   5.147  12.784 -1.0121  0.1783  1.3467
17853TIP3   OH275049   1.402   2.492   5.400  0.0503  0.2099 -0.3126
17853TIP3    H175050   1.403   2.581   5.436 -1.0202  0.2315 -0.3045
17853TIP3    H275051   1.489   2.458   5.419 -0.0044  0.7470  1.0056
17854TIP3   OH275052   2.466   3.638  10.619 -0.2206  0.1347 -0.1718
17854TIP3    H175053   2.534   3.574  10.639  0.6466  1.6080  2.0177
17854TIP3    H275054   2.385   3.588  10.617  0.5470 -1.1712  0.4706
17855TIP3   OH275055   1.427   2.434   0.699  0.3348  0.1111 -0.3691
17855TIP3    H175056   1.485   2.380   0.753 -1.3962 -1.7540 -0.2860
17855TIP3    H275057   1.473   2.442   0.615  0.2518 -2.3281 -0.7175
17856TIP3   OH275058   0.870   1.779   2.535 -0.1023  0.0391 -0.5165
17856TIP3    H175059   0.953   1.783   2.582  1.8586 -0.2574 -3.6424
17856TIP3    H275060   0.804   1.766   2.603  2.4256 -0.1240  2.0879
17857TIP3   OH275061   1.660   1.730   3.471 -0.2436 -0.1755  0.1359
17857TIP3    H175062   1.579   1.780   3.481 -1.9984 -2.6875 -0.5071
17857TIP3    H275063   1.651   1.658   3.534  0.7609 -1.3583 -1.0170
17858TIP3   OH275064   2.417   5.443   0.575  0.0055 -0.6002  0.2396
17858TIP3    H175065   2.437   5.530   0.610  0.0189 -0.2916 -0.5173
17858TIP3    H275066   2.390   5.392   0.651  1.7359 -0.4688  0.9851
17859TIP3   OH275067   5.280   1.863   3.333  0.0085  0.1206 -0.2989
17859TIP3    H175068   5.329   1.930   3.286 -1.7958 -0.4477 -3.2008
17859TIP3    H275069   5.345   1.795   3.351  1.0180  0.9033 -0.8377
17860TIP3   OH275070   6.710   2.762   1.958 -0.5560  0.2949  0.2000
17860TIP3    H175071   6.753   2.761   2.044  0.8108 -0.7032 -0.4539
17860TIP3    H275072   6.627   2.806   1.973 -0.1950  0.4406  1.9675
17861TIP3   OH275073   3.551   0.238   5.818 -0.0488  0.0098 -0.1606
17861TIP3    H175074   3.530   0.167   5.758 -1.4707  0.9193 -0.7849
17861TIP3    H275075   3.480   0.238   5.882  0.4068  0.3164  0.3565
17862TIP3   OH275076   3.452   3.147  14.969 -0.2484  0.4878 -0.4820
17862TIP3    H175077   3.537   3.115  15.000 -0.3204 -0.4583 -1.2270
17862TIP3    H275078   3.423   3.081  14.907 -1.1581  1.2202 -0.8509
17863TIP3   OH275079   3.366   5.345   3.255  0.5147 -0.1655 -0.6312
17863TIP3    H175080   3.355   5.360   3.349  1.9568 -1.6618 -0.1653
17863TIP3    H275081   3.329   5.423   3.214  1.4602  1.3699  1.2388
17864TIP3   OH275082   0.175   1.248  13.836  0.5620 -0.4176 -0.2659
17864TIP3    H175083   0.262   1.283  13.855  0.5924 -0.9655  0.6665
17864TIP3    H275084   0.119   1.325  13.827  0.4580 -0.0629  2.5689
17865TIP3   OH275085   5.857   5.846  15.128  0.1959 -0.0194 -0.0235
17865TIP3    H175086   5.809   5.807  15.054 -0.2896 -1.0198  0.7886
17865TIP3    H275087   5.800   5.830  15.204 -0.3616  2.9013  0.2680
17866TIP3   OH275088   1.135   0.080  11.668 -0.2802 -0.1987 -0.0311
17866TIP3    H175089   1.167   0.027  11.595  0.6473 -0.7597  0.7651
17866TIP3    H275090   1.156   0.029  11.746  1.0165  1.4985  0.7911
17867TIP3   OH275091   6.486   5.998  14.982 -0.3662  0.0494  0.7422
17867TIP3    H175092   6.541   5.940  14.931 -1.4748 -1.0028  0.6911
17867TIP3    H275093   6.515   6.086  14.959  0.2902 -0.4462 -0.3858
17868TIP3   OH275094   6.064   1.189   3.776 -0.2578  0.2376 -0.1441
17868TIP3    H175095   6.139   1.186   3.836  0.9562 -1.2885 -1.6067
17868TIP3    H275096   6.103   1.180   3.689 -2.0913  0.4375 -1.0398
17869TIP3   OH275097   6.232   4.201   6.086 -0.4752  0.6231 -0.1809
17869TIP3    H175098   6.244   4.173   6.177  0.2030  0.1382 -0.4146
17869TIP3    H275099   6.278   4.136   6.034  0.7875  1.9199 -0.7593
17870TIP3   OH275100   5.628   2.800  16.372  0.3283 -0.2188  0.0732
17870TIP3    H175101   5.561   2.742  16.407 -1.5556  0.2901 -2.4115
17870TIP3    H275102   5.705   2.784  16.427 -1.7447 -0.8808  3.0408
17871TIP3   OH275103   2.059   5.001  13.658 -0.2897 -0.0286  0.1504
17871TIP3    H175104   2.122   4.931  13.639 -1.0770 -0.7087 -0.0236
17871TIP3    H275105   1.995   4.996  13.586 -0.1518  1.1257 -0.0726
17872TIP3   OH275106   1.513   1.168   5.842  0.0070  0.2026  0.1505
17872TIP3    H175107   1.549   1.105   5.781  0.5772  0.4918  0.1807
17872TIP3    H275108   1.448   1.119   5.893 -0.3069 -0.0892 -0.5306
17873TIP3   OH275109   3.636   6.114  11.499 -0.0103 -1.0041 -0.3644
17873TIP3    H175110   3.585   6.171  11.441  1.1862  0.3965 -0.0876
17873TIP3    H275111   3.719   6.100  11.453  0.1000 -1.7278  0.0301
17874TIP3   OH275112   4.621   0.710  11.655 -0.2520  0.4887 -0.0934
17874TIP3    H175113   4.577   0.664  11.583 -1.2622  0.4763  0.5101
17874TIP3    H275114   4.572   0.683  11.733  0.4621  0.9598  0.5248
17875TIP3   OH275115   4.476   1.952  13.029 -0.5442 -0.3407  0.1904
17875TIP3    H175116   4.559   1.995  13.048 -1.0807  1.5435 -1.3326
17875TIP3    H275117   4.495   1.858  13.032  1.0289 -0.0201  2.2530
17876TIP3   OH275118   0.417   1.429   3.771 -0.6368  0.3366 -0.1430
17876TIP3    H175119   0.467   1.480   3.835 -0.1569 -0.3093  0.0168
17876TIP3    H275120   0.344   1.486   3.746 -1.4305  0.2345  1.7557
17877TIP3   OH275121   2.494   4.051   2.907 -0.4206  0.2303 -0.2068
17877TIP3    H175122   2.527   4.134   2.940  1.2893 -0.2894 -0.5122
17877TIP3    H275123   2.462   4.005   2.985  0.5407  0.3416  0.2590
17878TIP3   OH275124   0.071   6.008  14.768 -0.0169  0.2297 -0.0690
17878TIP3    H175125   0.024   5.937  14.726  1.3758 -0.5692 -0.3534
17878TIP3    H275126   0.061   5.991  14.862 -0.9501  0.5417 -0.0997
17879TIP3   OH275127   4.543   1.682  12.385 -0.2325  0.1593 -0.2104
17879TIP3    H175128   4.583   1.599  12.410 -0.8235 -0.1883 -0.3903
17879TIP3    H275129   4.479   1.699  12.454 -0.7461 -0.0008 -0.6333
17880TIP3   OH275130   3.320   5.952  15.461 -0.5418  0.5665  0.1226
17880TIP3    H175131   3.308   5.903  15.543  0.8216 -0.6928 -0.3866
17880TIP3    H275132   3.262   6.027  15.470 -1.3024 -0.1532  1.7510
17881TIP3   OH275133   5.170   5.635  15.979 -0.4376  0.4253  0.0942
17881TIP3    H175134   5.102   5.680  16.029 -0.3794 -0.1789  0.7335
17881TIP3    H275135   5.249   5.645  16.031 -0.6653 -1.4306  0.8907
17882TIP3   OH275136   4.619   6.659  17.030  0.2865  0.9125  0.4007
17882TIP3    H175137   4.608   6.719  16.956  1.6622  0.6412 -0.0584
17882TIP3    H275138   4.709   6.676  17.060  0.3206 -0.1756  0.9366
17883TIP3   OH275139   5.091   3.971  17.054  0.6574 -0.1319  0.0859
17883TIP3    H175140   5.164   4.034  17.055 -0.1508  0.8338  0.1017
17883TIP3    H275141   5.065   3.966  16.962 -1.3563  2.0970  0.4293
17884TIP3   OH275142   1.604   5.156   0.448  0.2685  0.2629 -0.0370
17884TIP3    H175143   1.544   5.170   0.521  0.3175 -0.3025  0.1142
17884TIP3    H275144   1.657   5.236   0.444 -1.1596  1.2170 -0.8186
17885TIP3   OH275145   1.911   5.730  14.468 -0.3742  0.6545  0.3088
17885TIP3    H175146   1.913   5.749  14.561  0.1252  0.7543  0.2754
17885TIP3    H275147   1.887   5.637  14.463  3.0906 -0.3657  0.6644
17886TIP3   OH275148   4.904   2.315   3.210 -0.1735  0.1057 -0.6354
17886TIP3    H175149   4.920   2.337   3.118 -0.0944 -0.8879 -0.8611
17886TIP3    H275150   4.990   2.288   3.243 -0.5367 -1.2400 -0.7503
17887TIP3   OH275151   1.866   0.955  16.538  0.5619  0.0788  0.3908
17887TIP3    H175152   1.934   0.894  16.568  3.3226  1.9109 -1.6498
17887TIP3    H275153   1.842   0.923  16.451 -0.4712  0.0314  0.6858
17888TIP3   OH275154   5.838   3.045   1.113 -0.1067 -0.0817 -0.2054
17888TIP3    H175155   5.809   3.032   1.204  1.1146  1.0948  0.3974
17888TIP3    H275156   5.879   3.132   1.114  1.6741 -0.8494 -1.4051
17889TIP3   OH275157   4.537   6.830   1.874 -0.0903  0.1451 -0.6003
17889TIP3    H175158   4.449   6.795   1.879 -0.5769  0.4828 -4.2507
17889TIP3    H275159   4.527   6.924   1.890 -0.1569  0.0301  0.0975
17890TIP3   OH275160   1.559   0.684  11.124  0.3345  0.5777 -0.0021
17890TIP3    H175161   1.543   0.775  11.103 -0.0596 -0.0818 -2.9050
17890TIP3    H275162   1.484   0.657  11.177 -0.4007  1.4868 -0.5690
17891TIP3   OH275163   4.781   2.199   6.670 -0.3378  0.5036 -0.0634
17891TIP3    H175164   4.839   2.188   6.594  2.2581  0.2612  1.7912
17891TIP3    H275165   4.784   2.293   6.688 -0.5967  0.5033 -0.0216
17892TIP3   OH275166   3.572   2.242   2.029 -0.3016  0.5562  0.2682
17892TIP3    H175167   3.500   2.253   2.090 -0.4220  1.3031  0.0106
17892TIP3    H275168   3.555   2.307   1.961 -0.4635 -0.6307 -0.8504
17893TIP3   OH275169   4.299   1.814   1.748  0.6158 -0.3083  0.5386
17893TIP3    H175170   4.215   1.843   1.783  1.2602 -0.4441  2.2811
17893TIP3    H275171   4.275   1.752   1.679 -0.7176  1.4781 -0.7166
17894TIP3   OH275172   5.029   4.288   5.924  0.0689  0.4366  0.5243
17894TIP3    H175173   4.983   4.208   5.900  1.3745 -0.1895  0.0369
17894TIP3    H275174   5.097   4.298   5.857  0.7550  1.2433  1.3107
17895TIP3   OH275175   3.386   4.247  13.758  0.7817  0.5266  0.2849
17895TIP3    H175176   3.349   4.332  13.737 -0.7799  0.0615  1.0558
17895TIP3    H275177   3.377   4.239  13.853  1.5216 -0.2236  0.3113
17896TIP3   OH275178   0.310   2.026  11.259 -0.4808 -0.4272 -0.2591
17896TIP3    H175179   0.361   2.078  11.197  1.3175  1.5006  2.5976
17896TIP3    H275180   0.242   2.086  11.289  1.7904  0.6547  3.2988
17897TIP3   OH275181   6.598   3.728   5.970 -0.6951  0.1509  0.7534
17897TIP3    H175182   6.505   3.744   5.956 -0.3819  1.8744  0.4461
17897TIP3    H275183   6.641   3.807   5.939  0.8730 -0.5462  1.0477
17898TIP3   OH275184   4.116   5.384  16.693 -0.6452 -0.1211 -0.0209
17898TIP3    H175185   4.110   5.417  16.783  0.1603 -1.0836  0.4062
17898TIP3    H275186   4.048   5.431  16.646 -1.5894 -0.1489  1.2586
17899TIP3   OH275187   0.151   5.134  14.542  0.1158 -0.0683 -0.1167
17899TIP3    H175188   0.160   5.039  14.534 -0.4583 -0.2136  0.8657
17899TIP3    H275189   0.171   5.153  14.633 -2.1966  0.4331  0.3480
17900TIP3   OH275190   3.866   4.042   5.295 -0.4431  0.2137  0.0231
17900TIP3    H175191   3.904   4.011   5.212 -1.5833 -1.6429  0.1543
17900TIP3    H275192   3.841   3.962   5.341 -2.2916  1.3016  0.9859
17901TIP3   OH275193   0.978   2.259  15.577  0.2294 -0.3519  0.0968
17901TIP3    H175194   0.930   2.294  15.502  2.3757  0.8573 -0.8187
17901TIP3    H275195   1.018   2.179  15.545  1.7020  0.5162 -0.3200
17902TIP3   OH275196   0.784   1.660   2.815  0.8510  0.4147 -0.1207
17902TIP3    H175197   0.863   1.652   2.867  2.2763  0.8043 -2.1295
17902TIP3    H275198   0.782   1.582   2.760  0.1460  0.6686 -0.4823
17903TIP3   OH275199   1.174   1.573   2.331  0.8326 -0.1337 -0.0016
17903TIP3    H175200   1.166   1.478   2.326 -0.5939 -0.1066  1.0467
17903TIP3    H275201   1.230   1.588   2.407 -0.9154 -0.1576  1.3747
17904TIP3   OH275202   1.793   2.333  15.368 -0.2178 -0.0957 -0.4139
17904TIP3    H175203   1.867   2.333  15.428 -1.1582 -0.5837  0.8015
17904TIP3    H275204   1.742   2.410  15.394 -1.2471 -0.9713  0.2333
17905TIP3   OH275205   3.084   5.570   5.406 -0.0529  0.0822 -0.0806
17905TIP3    H175206   3.160   5.513   5.399  0.5373  0.8278  0.1450
17905TIP3    H275207   3.044   5.547   5.490 -0.2934 -0.5587 -0.3640
17906TIP3   OH275208   3.867   1.574   5.767 -0.1191  0.1367  0.2192
17906TIP3    H175209   3.819   1.622   5.834 -0.9790 -1.5258  0.8729
17906TIP3    H275210   3.814   1.495   5.752  1.8916 -1.3026  0.2463
17907TIP3   OH275211   1.702   2.062   0.351 -0.3846 -0.2165  0.4531
17907TIP3    H175212   1.641   2.014   0.296 -2.3082  0.6134  1.7153
17907TIP3    H275213   1.742   2.127   0.293 -1.2356 -0.3342 -0.2772
17908TIP3   OH275214   0.250   1.192   2.700  0.2785 -0.0801  0.0253
17908TIP3    H175215   0.157   1.214   2.702 -0.3653 -2.5128  1.5300
17908TIP3    H275216   0.287   1.248   2.632 -2.7701 -0.7746 -2.4291
17909TIP3   OH275217   4.544   2.576  16.284 -0.1713 -0.7148 -0.3709
17909TIP3    H175218   4.528   2.496  16.334 -0.4958 -0.2692  0.2486
17909TIP3    H275219   4.459   2.598  16.245 -0.2421 -0.2936  0.0220
17910TIP3   OH275220   2.886   0.534  13.115  0.3544 -0.0758 -0.4510
17910TIP3    H175221   2.821   0.508  13.050  1.4208 -3.1715 -0.4623
17910TIP3    H275222   2.926   0.613  13.079 -0.7941 -0.2748 -2.2993
17911TIP3   OH275223   4.812   3.429   1.818 -0.2967 -0.0611 -0.3509
17911TIP3    H175224   4.905   3.413   1.830 -0.1295  0.0737 -1.3569
17911TIP3    H275225   4.788   3.490   1.888  0.5791  0.6471 -0.6513
17912TIP3   OH275226   2.645   5.678  16.664  0.0415  0.4624  0.0594
17912TIP3    H175227   2.730   5.635  16.674 -0.6204 -0.8317  0.4167
17912TIP3    H275228   2.591   5.641  16.734 -0.3423  2.5333  0.9170
17913TIP3   OH275229   5.682   5.208   0.653 -0.1133  0.1000 -0.4175
17913TIP3    H175230   5.602   5.260   0.662  1.5890  2.7005  1.0021
17913TIP3    H275231   5.751   5.272   0.635  1.6832 -2.0381 -1.6049
17914TIP3   OH275232   5.589   4.672   1.170  0.1792  0.0288 -0.1976
17914TIP3    H175233   5.650   4.599   1.166 -0.3667 -0.4397 -0.1096
17914TIP3    H275234   5.581   4.702   1.080 -1.5023 -1.6355 -0.6611
17915TIP3   OH275235   5.345   4.520  16.103  0.0806 -0.0460  0.0959
17915TIP3    H175236   5.277   4.554  16.046  0.7720 -0.5151 -1.0512
17915TIP3    H275237   5.300   4.458  16.160 -0.5203 -0.0765 -0.4048
17916TIP3   OH275238   0.208   6.768  12.519  0.1408  0.1486 -0.4310
17916TIP3    H175239   0.177   6.774  12.429  0.6264  0.7119 -0.5691
17916TIP3    H275240   0.219   6.674  12.534  1.4252  0.1022 -1.4478
17917TIP3   OH275241   3.497   3.923   5.716 -0.3608 -0.3506  0.2971
17917TIP3    H175242   3.587   3.920   5.683 -1.2705  0.7360 -2.5747
17917TIP3    H275243   3.479   4.016   5.729 -1.1286 -0.5475  0.6884
17918TIP3   OH275244   0.394   4.237   0.037  0.7001  0.2662  0.2676
17918TIP3    H175245   0.431   4.246  -0.051 -1.1298 -0.1007 -0.5735
17918TIP3    H275246   0.340   4.158   0.033 -3.1586  2.6848  0.2918
17919TIP3   OH275247   3.329   1.758   3.759 -0.0887  0.3576 -0.0342
17919TIP3    H175248   3.321   1.736   3.666 -1.4785 -1.0234  0.3592
17919TIP3    H275249   3.423   1.751   3.777  0.1978  0.5639 -1.3019
17920TIP3   OH275250   0.360   6.429  12.774  0.2008 -0.8644  0.3317
17920TIP3    H175251   0.362   6.500  12.838  0.8303 -1.6087  1.1671
17920TIP3    H275252   0.441   6.439  12.723 -0.6936  0.2254 -0.9443
17921TIP3   OH275253   5.171   4.886   3.714  0.1068  0.6862 -1.0707
17921TIP3    H175254   5.213   4.801   3.703  0.9155  1.0614 -0.9665
17921TIP3    H275255   5.153   4.915   3.624 -0.7432  0.1343 -1.0852
17922TIP3   OH275256   3.934   0.245  10.692  0.2287  0.5433 -0.1246
17922TIP3    H175257   4.019   0.236  10.649 -0.2412 -0.1805 -0.9215
17922TIP3    H275258   3.888   0.312  10.641 -0.3900 -0.4309 -0.8780
17923TIP3   OH275259   5.921   6.330  10.808  0.3973  0.3952 -0.3259
17923TIP3    H175260   5.853   6.344  10.743  1.1480 -0.3789 -1.3104
17923TIP3    H275261   5.982   6.403  10.794 -0.0700  0.9293  0.3648
17924TIP3   OH275262   0.865   5.601  16.809 -0.2131  0.1430 -0.1518
17924TIP3    H175263   0.942   5.582  16.863 -0.2108  0.5978  0.0095
17924TIP3    H275264   0.889   5.571  16.722 -0.9173 -2.4045  0.4431
17925TIP3   OH275265   1.189   5.183  14.944  0.2040  0.3321 -0.1294
17925TIP3    H175266   1.169   5.097  14.906  0.9426 -0.1357  0.4957
17925TIP3    H275267   1.265   5.214  14.896  1.4950 -0.5208  1.2916
17926TIP3   OH275268   4.468   4.631   1.571  0.0548 -0.5149 -0.4055
17926TIP3    H175269   4.484   4.658   1.661  0.7420  0.0008 -0.6761
17926TIP3    H275270   4.393   4.572   1.576  1.3309 -2.1185  0.7527
17927TIP3   OH275271   1.510   6.075   2.259 -0.3583  0.3168 -0.4022
17927TIP3    H175272   1.544   6.133   2.192  0.3960 -0.8712 -1.0726
17927TIP3    H275273   1.493   6.132   2.334  0.4331  1.3764 -1.0154
17928TIP3   OH275274   6.573   2.648  12.212  0.0443 -0.3494  0.0505
17928TIP3    H175275   6.649   2.687  12.169 -1.0057  3.4463  1.1793
17928TIP3    H275276   6.599   2.640  12.303 -0.0846 -1.5669 -0.0078
17929TIP3   OH275277   0.389   5.704  13.157 -0.0063 -0.0986 -1.0391
17929TIP3    H175278   0.463   5.753  13.193  0.5797 -2.2820  0.9617
17929TIP3    H275279   0.320   5.771  13.145  1.4175  1.5411 -0.5095
17930TIP3   OH275280   5.727   0.459   1.729  0.5064  0.0007  0.4629
17930TIP3    H175281   5.738   0.364   1.740 -1.0092 -0.3477 -0.7394
17930TIP3    H275282   5.776   0.480   1.649  0.4048  0.1465  0.4391
17931TIP3   OH275283   2.620   5.107  14.165  0.7086 -0.0087  0.9254
17931TIP3    H175284   2.684   5.178  14.170 -0.5655  1.1833  0.6757
17931TIP3    H275285   2.672   5.031  14.137  2.2228  0.6156  1.8708
17932TIP3   OH275286   2.678   0.526   2.573  0.6627 -0.0513 -0.0567
17932TIP3    H175287   2.609   0.550   2.635  1.0098  0.4168  0.1514
17932TIP3    H275288   2.651   0.440   2.539  0.1392 -0.0115  0.2526
17933TIP3   OH275289   3.715   3.999   1.530  0.4954 -0.4931 -0.2282
17933TIP3    H175290   3.736   4.010   1.622 -0.8695  0.2217  0.0245
17933TIP3    H275291   3.779   4.054   1.484 -1.5941  2.9412  0.6047
17934TIP3   OH275292   3.423   6.318   4.161  0.4106 -0.2122 -0.1919
17934TIP3    H175293   3.358   6.375   4.120  0.5226 -0.9512 -1.4165
17934TIP3    H275294   3.410   6.332   4.255  1.4902  3.0332 -0.3978
17935TIP3   OH275295   5.851   6.138  15.592  0.0265  0.6424 -0.8061
17935TIP3    H175296   5.881   6.206  15.653  1.1129  0.5639 -1.2195
17935TIP3    H275297   5.784   6.090  15.640 -2.1721  3.1393 -1.1369
17936TIP3   OH275298   5.258   4.142   1.292 -0.9524 -0.1369  0.7522
17936TIP3    H175299   5.202   4.181   1.360 -1.7439  0.4202 -0.1933
17936TIP3    H275300   5.303   4.216   1.252 -1.4487 -0.3102 -0.1625
17937TIP3   OH275301   3.725   0.595   0.313  0.2219 -0.0025 -0.3969
17937TIP3    H175302   3.751   0.684   0.289  0.7820  0.4238  1.5674
17937TIP3    H275303   3.642   0.607   0.359 -0.6296 -0.7274 -1.6976
17938TIP3   OH275304   2.043   2.645   6.310 -0.1501  0.0024 -0.2279
17938TIP3    H175305   2.137   2.629   6.319 -0.1955 -0.2544 -0.1988
17938TIP3    H275306   2.012   2.654   6.400 -0.1703 -0.0117 -0.2336
17939TIP3   OH275307   0.515   0.138  11.303 -0.0086 -0.0001 -0.1589
17939TIP3    H175308   0.585   0.183  11.349 -0.2529  0.9753 -0.6939
17939TIP3    H275309   0.539   0.046  11.305  0.4964  0.1417  1.0027
17940TIP3   OH275310   5.693   3.969   2.178 -0.4496 -0.1348  0.4626
17940TIP3    H175311   5.769   3.913   2.163  2.9089  3.7077  1.1225
17940TIP3    H275312   5.700   3.994   2.271 -2.5307  0.3713  0.5236
17941TIP3   OH275313   0.781   2.867   5.018  0.1642  0.2106  0.3014
17941TIP3    H175314   0.860   2.920   5.029 -0.6698  1.3518  1.1871
17941TIP3    H275315   0.812   2.778   5.004  1.5854  0.4391  1.7948
17942TIP3   OH275316   0.676   1.793  13.205 -0.3736 -0.5612  0.2209
17942TIP3    H175317   0.763   1.773  13.238  0.1795  1.5469  0.1621
17942TIP3    H275318   0.619   1.783  13.281 -0.0179 -1.3307  0.4031
17943TIP3   OH275319   6.284   4.962  15.367  0.1947 -0.9090 -0.4700
17943TIP3    H175320   6.277   4.911  15.287  0.8351 -1.4226 -0.1973
17943TIP3    H275321   6.213   4.930  15.423 -2.3416  1.5738 -1.9612
17944TIP3   OH275322   5.003   2.554   3.004  0.5880  0.3678  0.0105
17944TIP3    H175323   4.969   2.503   2.931  1.1486  0.3056 -0.2081
17944TIP3    H275324   4.927   2.566   3.062  0.6675 -1.6420  0.6011
17945TIP3   OH275325   4.737   5.635  17.040  0.0180  0.3389  0.0053
17945TIP3    H175326   4.740   5.627  17.135  2.4733  0.5788  0.0141
17945TIP3    H275327   4.669   5.700  17.023  0.5918  1.4401  1.7056
17946TIP3   OH275328   1.659   6.727  11.118 -0.6055 -0.1266 -0.9644
17946TIP3    H175329   1.717   6.725  11.042 -0.1225  0.8962 -0.6355
17946TIP3    H275330   1.582   6.676  11.091 -0.0787 -0.4769 -1.8320
17947TIP3   OH275331   3.450   3.740  12.134  0.3389 -0.2375 -0.2970
17947TIP3    H175332   3.526   3.788  12.100 -0.1596  1.1014  0.4199
17947TIP3    H275333   3.481   3.699  12.214  0.1463  0.8742  0.3630
17948TIP3   OH275334   4.063   3.908  13.840  0.1853  0.2691  0.7639
17948TIP3    H175335   4.010   3.952  13.773  0.3501  0.6132  0.8570
17948TIP3    H275336   4.151   3.904  13.803  0.1332 -0.1531  0.6806
17949TIP3   OH275337   0.947   6.344   1.224 -0.1105 -0.0897 -0.2659
17949TIP3    H175338   1.030   6.326   1.268 -1.2890 -1.5658  1.4973
17949TIP3    H275339   0.896   6.393   1.288 -0.0340  2.4622 -2.0043
17950TIP3   OH275340   3.455   5.085  10.554 -0.4850  0.3028  0.3357
17950TIP3    H175341   3.516   5.098  10.482 -0.0067  0.8461  0.8283
17950TIP3    H275342   3.379   5.044  10.514 -0.2316  0.6110 -0.4808
17951TIP3   OH275343   4.202   0.466   3.462 -0.4224  0.0201  0.0636
17951TIP3    H175344   4.177   0.434   3.548 -0.4875 -1.6329 -0.5231
17951TIP3    H275345   4.196   0.389   3.405  1.3704  0.6288 -1.0506
17952TIP3   OH275346   4.361   3.451   3.674 -0.9259  0.3355 -0.4756
17952TIP3    H175347   4.270   3.459   3.647 -1.1020 -0.8246 -0.2844
17952TIP3    H275348   4.377   3.527   3.730 -1.9390  0.2656 -0.0793
17953TIP3   OH275349   2.257   5.940  16.397  0.4482 -0.0105 -0.0792
17953TIP3    H175350   2.329   5.890  16.436  0.4041 -0.3663 -0.4471
17953TIP3    H275351   2.230   5.888  16.321  0.0333  0.2978 -0.1460
17954TIP3   OH275352   5.529   4.845  12.753  0.5884  0.2781 -0.1656
17954TIP3    H175353   5.576   4.865  12.834  0.5345  1.7920 -0.4793
17954TIP3    H275354   5.570   4.765  12.721 -0.1726 -1.0241  1.9291
17955TIP3   OH275355   4.000   5.096  11.660  0.3480 -0.0272  0.0978
17955TIP3    H175356   4.036   5.007  11.665 -0.1676 -0.1568  2.7635
17955TIP3    H275357   3.905   5.084  11.658  0.2888  0.4721 -0.9675
17956TIP3   OH275358   2.906   3.098   6.147  0.1919 -0.5902 -0.1218
17956TIP3    H175359   2.819   3.068   6.173 -0.2594  1.2637  0.6885
17956TIP3    H275360   2.950   3.118   6.230 -0.2773  2.8131 -0.5605
17957TIP3   OH275361   1.525   1.397  13.646 -0.0825  0.6732  0.6813
17957TIP3    H175362   1.482   1.378  13.563 -1.3981  0.6010  1.3448
17957TIP3    H275363   1.495   1.327  13.705  1.6631  0.1121  0.9628
17958TIP3   OH275364   5.124   3.519   0.142  0.0383 -0.0083  0.3100
17958TIP3    H175365   5.029   3.517   0.142  0.0395 -1.2699  0.8481
17958TIP3    H275366   5.147   3.552   0.055 -0.8831  0.6750  0.3136
17959TIP3   OH275367   2.875   5.778   1.410 -0.2984 -0.2503  0.4601
17959TIP3    H175368   2.856   5.709   1.347 -0.0599  1.9964 -2.3005
17959TIP3    H275369   2.870   5.859   1.359  2.6041  1.5880  2.7113
17960TIP3   OH275370   3.280   2.204   5.788 -0.1973  0.2863 -0.4291
17960TIP3    H175371   3.332   2.199   5.868  0.3568  0.2025 -0.7849
17960TIP3    H275372   3.224   2.280   5.799  0.0164  0.3874 -0.0450
17961TIP3   OH275373   6.399   0.993   2.171  0.1456  0.2992  0.1280
17961TIP3    H175374   6.359   1.006   2.257 -1.5833 -0.6630 -0.4843
17961TIP3    H275375   6.340   0.931   2.126  1.0993  0.6344 -1.6731
17962TIP3   OH275376   6.084   1.690   4.947  0.2455 -0.6720  0.3571
17962TIP3    H175377   6.176   1.697   4.920  0.1049  0.0795  0.0461
17962TIP3    H275378   6.065   1.596   4.943  0.4997 -0.6843 -1.2859
17963TIP3   OH275379   5.692   6.177   5.848 -0.1468 -0.3078  0.2896
17963TIP3    H175380   5.634   6.249   5.874 -0.3495 -0.4467  0.2235
17963TIP3    H275381   5.751   6.166   5.922 -0.8788 -0.8741  0.8091
17964TIP3   OH275382   2.894   4.972  11.662  0.1496  0.2688  0.2834
17964TIP3    H175383   2.822   4.910  11.665 -0.6668  1.1774 -0.0458
17964TIP3    H275384   2.861   5.050  11.705  1.2022  0.4503  0.7937
17965TIP3   OH275385   0.622   3.583  10.739  0.4928 -0.1733 -0.5914
17965TIP3    H175386   0.586   3.497  10.761  1.4733 -0.2163  1.0210
17965TIP3    H275387   0.674   3.568  10.659 -0.4194 -0.7762 -1.0842
17966TIP3   OH275388   3.293   2.072   4.235 -0.1060 -0.2094 -0.4805
17966TIP3    H175389   3.311   2.042   4.325 -0.2608  0.2534 -0.2923
17966TIP3    H275390   3.371   2.049   4.186  0.5978  0.8531  0.1022
17967TIP3   OH275391   2.509   5.044   5.046  0.0602 -0.0549  0.2179
17967TIP3    H175392   2.595   5.064   5.082  0.3207  0.1440 -0.4969
17967TIP3    H275393   2.498   5.105   4.974  0.1368 -1.3311 -0.9120
17968TIP3   OH275394   4.945   4.767   1.286 -0.0574  0.4351  0.1623
17968TIP3    H175395   4.964   4.833   1.219 -0.3931  2.2030  1.7053
17968TIP3    H275396   4.852   4.747   1.273 -0.4865  1.8159  0.9176
17969TIP3   OH275397   2.880   0.489   0.525  0.2893 -0.4195 -0.0658
17969TIP3    H175398   2.874   0.424   0.456 -1.2678 -2.4831  1.8805
17969TIP3    H275399   2.958   0.540   0.504 -0.4354 -0.5585 -3.5922
17970TIP3   OH275400   5.345   0.560  16.024  0.1896  0.0549  0.9596
17970TIP3    H175401   5.287   0.490  15.995  0.7837 -0.6990  1.5593
17970TIP3    H275402   5.363   0.611  15.945 -1.0025  0.1051  0.7010
17971TIP3   OH275403   5.021   4.172   0.301 -0.4988 -0.3912  0.3610
17971TIP3    H175404   5.009   4.102   0.366 -4.7915  1.3090  1.6815
17971TIP3    H275405   5.075   4.237   0.346 -0.5145 -0.7547  0.9177
17972TIP3   OH275406   3.329   3.971  12.052 -0.1224  0.4106 -0.2075
17972TIP3    H175407   3.388   4.030  12.005 -1.7887  1.0499 -1.6450
17972TIP3    H275408   3.370   3.885  12.047  2.2238  1.3062  1.6579
17973TIP3   OH275409   5.680   6.705   1.739  0.1871  0.0668  0.7093
17973TIP3    H175410   5.599   6.670   1.778  0.6636  0.4162  2.0742
17973TIP3    H275411   5.750   6.670   1.794  1.1363 -1.4914 -1.3555
17974TIP3   OH275412   6.186   5.970  11.036  0.1242 -0.8901  1.1883
17974TIP3    H175413   6.146   6.000  10.955  1.3825 -0.2032  0.7997
17974TIP3    H275414   6.267   5.927  11.009  1.7013  1.2765  2.1639
17975TIP3   OH275415   3.228   2.662  11.797  0.2717 -0.7053  0.4576
17975TIP3    H175416   3.214   2.681  11.890  1.1382 -2.0115  0.8767
17975TIP3    H275417   3.149   2.696  11.754  0.5730  1.4143  1.4347
17976TIP3   OH275418   6.621   2.026   0.753 -0.2202  0.4689  0.1277
17976TIP3    H175419   6.704   1.979   0.759  0.2201  1.3150  0.9759
17976TIP3    H275420   6.636   2.094   0.687  0.6039  2.1700  1.9518
17977TIP3   OH275421   4.160   2.306   2.985  0.3623 -0.2644  0.2645
17977TIP3    H175422   4.227   2.343   3.043 -0.3698 -0.1783  1.0802
17977TIP3    H275423   4.184   2.214   2.976  0.3427 -0.3414  0.9228
17978TIP3   OH275424   0.684   0.708  13.887 -0.0510 -0.1656  0.1243
17978TIP3    H175425   0.763   0.657  13.904  1.0599  1.4899  0.0869
17978TIP3    H275426   0.685   0.776  13.954 -0.6955  0.7255 -0.7528
17979TIP3   OH275427   5.108   1.390   1.212  0.0245 -0.1854  0.6126
17979TIP3    H175428   5.104   1.369   1.305 -2.2054  0.2706  0.6783
17979TIP3    H275429   5.064   1.317   1.169  0.4249 -0.0603 -0.0246
17980TIP3   OH275430   3.389   3.061   0.090 -1.0725 -0.3788  0.9314
17980TIP3    H175431   3.368   3.117   0.164 -1.3241 -1.5647  1.7826
17980TIP3    H275432   3.407   2.975   0.128  2.4368 -0.2407  0.0216
17981TIP3   OH275433   6.477   3.727   6.290  0.6472  0.0518  0.2860
17981TIP3    H175434   6.425   3.663   6.338 -0.0049  0.4588  0.1432
17981TIP3    H275435   6.414   3.796   6.267  1.3381  0.7680  0.4871
17982TIP3   OH275436   1.849   2.050  10.598 -0.3305 -0.5404 -0.2466
17982TIP3    H175437   1.904   1.999  10.658  1.6318 -0.1625 -1.6278
17982TIP3    H275438   1.854   2.140  10.632 -1.0586 -0.6765  0.2605
17983TIP3   OH275439   1.114   4.654   1.969 -0.2116 -1.1031 -0.2812
17983TIP3    H175440   1.074   4.624   2.051  0.0278 -0.8278 -0.0606
17983TIP3    H275441   1.208   4.640   1.983  0.1320  1.4513  0.5774
17984TIP3   OH275442   2.982   0.509  13.409  0.2498 -0.4251  0.0662
17984TIP3    H175443   3.012   0.418  13.405 -0.4116 -0.6190 -1.1886
17984TIP3    H275444   2.963   0.532  13.318  0.4785  1.0038  0.3596
17985TIP3   OH275445   5.419   4.777   1.846  0.7254  0.0795  0.0007
17985TIP3    H175446   5.357   4.704   1.846  2.0985 -1.2500  2.9527
17985TIP3    H275447   5.381   4.842   1.905  1.2763  0.0620  0.3800
17986TIP3   OH275448   5.512   1.701   4.368 -0.6711  0.8231  0.0471
17986TIP3    H175449   5.515   1.734   4.278 -0.7102  1.2296  0.1896
17986TIP3    H275450   5.551   1.614   4.363 -1.3731  0.5276 -0.5020
17987TIP3   OH275451   5.427   0.698  16.441  0.0920  0.1593  0.4435
17987TIP3    H175452   5.349   0.723  16.392 -1.1581  2.0798  3.1540
17987TIP3    H275453   5.499   0.735  16.391 -1.2093  3.1386  0.5583
17988TIP3   OH275454   4.402   0.262   2.311  0.4398  0.6406 -0.1564
17988TIP3    H175455   4.476   0.263   2.371  1.6811  0.8677 -1.6489
17988TIP3    H275456   4.389   0.169   2.290  1.7612  0.7406 -1.5884
17989TIP3   OH275457   4.656   1.953   0.851  0.1928  0.1680 -0.1631
17989TIP3    H175458   4.585   1.910   0.898  1.8586 -3.7709 -0.7956
17989TIP3    H275459   4.616   2.031   0.812 -2.7851  0.1062  2.3993
17990TIP3   OH275460   4.716   4.431   3.128  0.5145 -0.2704  0.5230
17990TIP3    H175461   4.787   4.495   3.128  0.9231 -0.7133  0.9212
17990TIP3    H275462   4.717   4.394   3.040  0.8868 -0.3883  0.5738
17991TIP3   OH275463   2.195   0.899  16.791 -0.0717  0.4551 -0.1162
17991TIP3    H175464   2.137   0.975  16.781 -0.1228  0.3567 -0.6420
17991TIP3    H275465   2.136   0.824  16.798 -0.0171  0.2786 -1.3343
17992TIP3   OH275466   4.338   5.236   1.213 -0.6335  0.2554  0.2766
17992TIP3    H175467   4.286   5.290   1.272 -0.6652  0.0050  0.4788
17992TIP3    H275468   4.421   5.224   1.258  0.6761  2.8967 -1.1740
17993TIP3   OH275469   1.192   5.037  15.482 -0.3861  0.0456  0.3263
17993TIP3    H175470   1.199   5.101  15.553  0.2677  0.9598 -0.5256
17993TIP3    H275471   1.157   5.087  15.408 -1.5021 -0.9960  0.1189
17994TIP3   OH275472   5.977   5.403   3.980 -0.0192 -0.0095 -0.5650
17994TIP3    H175473   5.896   5.406   4.031  1.7437 -3.2038  3.0091
17994TIP3    H275474   6.017   5.489   3.994 -1.0145  0.2402  1.0046
17995TIP3   OH275475   3.325   4.574   5.661  0.1140  0.2416 -0.4225
17995TIP3    H175476   3.341   4.542   5.573  0.4718 -1.5868  0.2617
17995TIP3    H275477   3.236   4.545   5.682  0.0160  0.6944 -0.1979
17996TIP3   OH275478   0.131   4.978  13.345  0.1463 -0.2747  0.1275
17996TIP3    H175479   0.100   5.007  13.260 -0.4856 -0.3456  0.3291
17996TIP3    H275480   0.191   5.047  13.374 -1.9135  1.2703  0.9423
17997TIP3   OH275481   0.288   3.579   4.337  0.2719 -0.3803 -0.1899
17997TIP3    H175482   0.280   3.664   4.381 -1.2448 -1.3806  1.5828
17997TIP3    H275483   0.200   3.543   4.338  1.0171 -2.3197 -0.2173
17998TIP3   OH275484   0.343   2.028   1.044  0.6653  0.2441 -0.4300
17998TIP3    H175485   0.338   2.081   0.965 -1.2199  1.8510  0.6824
17998TIP3    H275486   0.436   2.022   1.063  1.0965  0.5648 -2.2616
17999TIP3   OH275487   4.822   0.180  16.031  0.5447 -0.3649  0.2994
17999TIP3    H175488   4.896   0.158  15.975  2.3385  3.2474  0.9975
17999TIP3    H275489   4.846   0.145  16.117  1.1480  0.2437  0.3803
18000TIP3   OH275490   1.311   4.612  11.174 -0.4154  0.3505 -0.1571
18000TIP3    H175491   1.293   4.546  11.107 -0.4473  0.7961 -0.5914
18000TIP3    H275492   1.227   4.656  11.188 -0.4904  0.0285  0.4320
18001TIP3   OH275493   1.324   6.438  12.544  0.8088 -0.4427  0.4071
18001TIP3    H175494   1.284   6.523  12.524 -0.4868 -0.9224  0.8423
18001TIP3    H275495   1.250   6.378  12.552  1.5324 -1.1636  2.2966
18002TIP3   OH275496   5.683   0.416  16.512  0.4595  0.3311  0.6287
18002TIP3    H175497   5.764   0.459  16.540  1.9264 -1.4156 -0.7290
18002TIP3    H275498   5.663   0.456  16.427  1.2627 -0.8798 -0.1564
18003TIP3   OH275499   4.253   5.211   4.401  0.1064  0.7500  0.0762
18003TIP3    H175500   4.229   5.127   4.362 -3.3634  2.0903 -0.9803
18003TIP3    H275501   4.314   5.250   4.338  1.3199 -0.6389  0.3149
18004TIP3   OH275502   2.881   3.521  14.530  0.4233 -0.3375  0.6444
18004TIP3    H175503   2.798   3.545  14.572  0.2538  0.2865 -0.0180
18004TIP3    H275504   2.939   3.595  14.547  0.4286 -0.1872  0.0039
18005TIP3   OH275505   5.887   2.150  15.044 -0.0537 -0.1917  0.4272
18005TIP3    H175506   5.825   2.141  14.972  0.1131  0.8148  0.1506
18005TIP3    H275507   5.833   2.137  15.123 -0.6514  0.7708  0.1959
18006TIP3   OH275508   3.731   4.221   2.719  0.1504  0.0199 -0.3483
18006TIP3    H175509   3.716   4.197   2.811  2.1400 -0.8696 -0.2042
18006TIP3    H275510   3.643   4.220   2.680 -0.5627 -1.2554  1.1585
18007TIP3   OH275511   3.366   2.240  14.543  0.0758 -0.0219  0.3453
18007TIP3    H175512   3.435   2.242  14.476 -1.7552  1.0081 -1.6404
18007TIP3    H275513   3.336   2.149  14.544  0.3780 -0.1255  0.0281
18008TIP3   OH275514   6.277   5.640   0.909 -0.5183 -0.5962  0.0186
18008TIP3    H175515   6.266   5.732   0.931  1.7959 -0.5848  1.4957
18008TIP3    H275516   6.316   5.641   0.822 -0.1155 -0.1391  0.1968
18009TIP3   OH275517   5.068   3.119   2.039  0.2137  0.6031 -0.1935
18009TIP3    H175518   5.016   3.106   2.118  1.0015  1.0240  0.4119
18009TIP3    H275519   5.106   3.206   2.049  1.2771  0.1893 -0.4573
18010TIP3   OH275520   0.090   6.435  16.758 -0.2113  0.8826  0.3686
18010TIP3    H175521   0.141   6.378  16.815  0.3364  1.9538  0.9883
18010TIP3    H275522   0.155   6.495  16.720 -0.3280 -0.5925 -2.4502
18011TIP3   OH275523   5.850   6.429  16.172  0.0177  0.0743 -0.4347
18011TIP3    H175524   5.773   6.380  16.142  0.1397 -1.1858  1.1660
18011TIP3    H275525   5.826   6.521  16.162 -1.1732 -0.3024 -1.2248
18012TIP3   OH275526   5.238   2.991   1.279 -0.3317  0.2102  0.0293
18012TIP3    H175527   5.293   3.062   1.248  0.9863 -1.2506 -1.1472
18012TIP3    H275528   5.261   2.981   1.371  2.0360 -0.8675 -0.6066
18013TIP3   OH275529   2.070   3.561   1.484 -0.1030 -0.0672 -0.1327
18013TIP3    H175530   2.106   3.474   1.498 -0.4775 -0.3633 -0.9333
18013TIP3    H275531   1.987   3.560   1.531  0.4715  0.3005  0.9261
18014TIP3   OH275532   3.454   4.216   5.184 -0.1980 -0.1780 -0.1622
18014TIP3    H175533   3.529   4.192   5.239 -1.0280 -0.4566  0.8973
18014TIP3    H275534   3.400   4.271   5.241 -0.6947  0.1848 -0.9786
18015TIP3   OH275535   2.439   6.133   0.861 -0.3965 -0.0854  0.2539
18015TIP3    H175536   2.473   6.154   0.947 -1.6492  0.8092  0.5628
18015TIP3    H275537   2.511   6.154   0.801 -0.2318  1.3902  0.9105
18016TIP3   OH275538   5.066   6.157   3.563  0.0440 -0.6963 -0.1231
18016TIP3    H175539   5.138   6.194   3.614  0.6653 -1.0938 -0.6809
18016TIP3    H275540   4.991   6.157   3.622 -0.1222  1.8194 -0.2045
18017TIP3   OH275541   2.955   3.511   0.281 -0.2694  1.2563  0.4520
18017TIP3    H175542   2.895   3.547   0.347  0.4447  1.6115  0.9391
18017TIP3    H275543   2.940   3.565   0.203 -0.6683  1.2599  0.5292
18018TIP3   OH275544   3.409   6.135   5.406  0.1917 -0.4885  0.3799
18018TIP3    H175545   3.417   6.226   5.437  0.8676 -0.7034  0.8749
18018TIP3    H275546   3.409   6.142   5.311  0.3905  0.0271  0.4136
18019TIP3   OH275547   3.201   4.605  14.357  0.1436 -0.3618 -0.1300
18019TIP3    H175548   3.172   4.546  14.427 -3.2332  0.6574 -0.4951
18019TIP3    H275549   3.125   4.613  14.299  1.9500  0.8909 -2.5394
18020TIP3   OH275550   3.868   6.820  14.626  0.4445 -0.0067  0.1546
18020TIP3    H175551   3.913   6.848  14.546 -3.3701 -0.3176 -2.3353
18020TIP3    H275552   3.884   6.891  14.688  2.1328  1.0843 -1.4155
18021TIP3   OH275553   1.393   1.104   6.079  0.4522  0.7175  0.4423
18021TIP3    H175554   1.374   1.074   6.168 -0.5886  0.2008  0.0513
18021TIP3    H275555   1.374   1.029   6.023 -0.5588  1.5625 -0.3785
18022TIP3   OH275556   4.753   1.333  12.692  0.4093  0.0989  0.2214
18022TIP3    H175557   4.817   1.355  12.759  1.0043  0.3149 -0.3989
18022TIP3    H275558   4.759   1.404  12.628 -2.9138  2.0099  1.7788
18023TIP3   OH275559   2.850   6.421   3.862  0.7867  0.3469  0.1713
18023TIP3    H175560   2.782   6.367   3.902  0.6037 -0.2520 -0.9012
18023TIP3    H275561   2.832   6.510   3.893  0.7490 -0.1031  1.5058
18024TIP3   OH275562   2.444   2.865   0.122  0.0800  0.7492 -0.2278
18024TIP3    H175563   2.395   2.830   0.047  2.5213 -0.3062 -1.4412
18024TIP3    H275564   2.380   2.917   0.170 -2.7527 -2.1312 -0.5640
18025TIP3   OH275565   5.519   3.486   5.623 -0.3566 -0.2651  0.2160
18025TIP3    H175566   5.590   3.522   5.676 -0.0081 -0.5119 -0.0844
18025TIP3    H275567   5.551   3.488   5.533 -0.1070 -1.7985  0.2323
18026TIP3   OH275568   1.832   5.407  16.124 -0.3579  0.2606  0.5683
18026TIP3    H175569   1.871   5.490  16.152 -0.2039  0.5754 -0.5076
18026TIP3    H275570   1.895   5.340  16.149 -0.8388  0.3677  2.1530
18027TIP3   OH275571   3.614   0.293  13.045 -0.3626 -0.3644 -0.5402
18027TIP3    H175572   3.709   0.277  13.039 -0.1345  1.1164 -1.6649
18027TIP3    H275573   3.598   0.305  13.138  1.5035  3.9883 -0.5234
18028TIP3   OH275574   0.304   4.675  15.908  0.2104  0.0058 -0.1221
18028TIP3    H175575   0.327   4.584  15.929  1.1700  0.5822  1.5757
18028TIP3    H275576   0.365   4.727  15.960  0.6376  1.6547 -2.1360
18029TIP3   OH275577   1.910   1.235   3.276 -0.4213 -0.2869 -0.2621
18029TIP3    H175578   1.972   1.163   3.288  1.8226  1.6016  0.1984
18029TIP3    H275579   1.869   1.247   3.362 -1.1046 -1.2376 -0.4443
18030TIP3   OH275580   1.211   2.614  15.062  0.3796 -0.1578 -0.3261
18030TIP3    H175581   1.132   2.630  15.011 -0.8245 -1.2518  1.1248
18030TIP3    H275582   1.189   2.542  15.120  2.1263  0.1580  0.8218
18031TIP3   OH275583   3.413   5.159   5.183  0.4019 -0.5025  0.5833
18031TIP3    H175584   3.332   5.209   5.187  1.8964  2.0335  0.8714
18031TIP3    H275585   3.447   5.175   5.095  0.0065 -2.6277 -0.0145
18032TIP3   OH275586   1.912   5.385  11.430  0.2789 -0.0952  0.2843
18032TIP3    H175587   1.919   5.428  11.515  0.1708  3.0829 -1.2087
18032TIP3    H275588   1.818   5.368  11.420  0.2989 -0.5413  0.7967
18033TIP3   OH275589   6.719   5.091  15.377  0.0195  0.2343 -0.1669
18033TIP3    H175590   6.745   5.158  15.441 -0.1442  0.9362 -0.8128
18033TIP3    H275591   6.653   5.039  15.423  0.8453 -0.0895  0.6705
18034TIP3   OH275592   1.710   3.126   0.120 -0.2587  0.0638 -0.1950
18034TIP3    H175593   1.800   3.155   0.104  0.5789 -0.8397  2.3419
18034TIP3    H275594   1.690   3.067   0.046  0.8997  0.8877 -1.2061
18035TIP3   OH275595   5.937   5.629  15.726 -0.4329  0.1915 -0.1570
18035TIP3    H175596   5.926   5.545  15.770  1.3491  0.0773  0.1565
18035TIP3    H275597   5.999   5.677  15.781 -1.9907  2.0514  0.0973
18036TIP3   OH275598   4.515   0.115   3.290 -0.3795  0.0345  0.0872
18036TIP3    H175599   4.527   0.134   3.383 -2.4074  0.8965  0.2385
18036TIP3    H275600   4.603   0.117   3.253  0.4201  0.2004  1.8817
18037TIP3   OH275601   5.826   0.501  12.042 -0.1484  0.0382  0.3981
18037TIP3    H175602   5.770   0.457  11.979 -1.3600  0.2874  1.2605
18037TIP3    H275603   5.889   0.550  11.989 -1.2173  0.3510 -0.6134
18038TIP3   OH275604   4.373   1.533   3.459  0.3359  0.0950 -0.3818
18038TIP3    H175605   4.437   1.472   3.422 -0.0241  0.1366 -1.0938
18038TIP3    H275606   4.293   1.518   3.407  0.2026  1.0739 -0.4698
18039TIP3   OH275607   6.737   4.988   5.417  0.4787 -0.5688 -0.2921
18039TIP3    H175608   6.731   5.044   5.340  1.0148 -0.8586 -0.5451
18039TIP3    H275609   6.761   5.048   5.488  0.3614 -0.3666 -0.4221
18040TIP3   OH275610   2.217   3.039   2.107  0.2365  0.0667  0.0019
18040TIP3    H175611   2.148   3.104   2.119 -0.5396 -1.0724  2.3601
18040TIP3    H275612   2.294   3.078   2.148  0.0523 -0.0520  0.4681
18041TIP3   OH275613   2.602   4.311  11.616  0.0592  0.6988  0.2167
18041TIP3    H175614   2.589   4.401  11.586 -0.2885  0.6248  0.1477
18041TIP3    H275615   2.638   4.265  11.541  1.5120  1.0882  0.6354
18042TIP3   OH275616   2.736   1.845   4.803  0.4585 -0.1179  0.3805
18042TIP3    H175617   2.806   1.906   4.829  0.9007 -0.1557 -0.6829
18042TIP3    H275618   2.657   1.882   4.842  1.0260  0.0339  1.4398
18043TIP3   OH275619   1.013   5.239   2.199  0.0809 -1.0875  0.4027
18043TIP3    H175620   0.927   5.266   2.169  1.2032  2.2067 -0.2358
18043TIP3    H275621   1.049   5.188   2.126 -0.2109  0.0979 -0.6011
18044TIP3   OH275622   0.140   4.192  15.573  0.7600  0.4023 -0.0115
18044TIP3    H175623   0.232   4.179  15.551  0.4382 -2.6979 -0.0534
18044TIP3    H275624   0.140   4.252  15.648  2.9392 -0.6338  0.8892
18045TIP3   OH275625   0.385   2.509   2.387  0.5173  0.6211  0.2540
18045TIP3    H175626   0.391   2.560   2.306 -0.0697  1.6800  0.8682
18045TIP3    H275627   0.328   2.435   2.365 -0.7765  1.6433  0.0537
18046TIP3   OH275628   3.025   0.756  13.002  0.2222  0.0609 -0.8672
18046TIP3    H175629   2.995   0.716  12.920  0.4302 -1.1200 -0.3976
18046TIP3    H275630   3.103   0.806  12.977 -0.2124  0.4334 -1.5261
18047TIP3   OH275631   6.607   6.596   3.052 -0.3445 -0.2663 -0.0662
18047TIP3    H175632   6.610   6.504   3.027 -0.4823 -0.3320  0.1483
18047TIP3    H275633   6.514   6.615   3.065 -0.3547  0.0259 -0.5479
18048TIP3   OH275634   3.474   5.688  15.524  0.8717 -0.0121 -0.1494
18048TIP3    H175635   3.428   5.687  15.608  0.1666 -1.8782 -0.5077
18048TIP3    H275636   3.407   5.664  15.460  1.3002  1.7958 -1.3256
18049TIP3   OH275637   5.646   2.878   4.681  0.2175  0.1141 -0.0162
18049TIP3    H175638   5.706   2.871   4.606 -0.2642  0.4435 -0.4358
18049TIP3    H275639   5.679   2.953   4.730  1.0729 -0.6345  0.6047
18050TIP3   OH275640   1.900   6.308  14.412 -0.2175 -0.4654  0.1066
18050TIP3    H175641   1.926   6.319  14.504  0.4268 -0.4673 -0.0665
18050TIP3    H275642   1.980   6.279  14.368 -0.6564 -1.0040 -0.3577
18051TIP3   OH275643   3.678   5.170  16.779 -0.1741  0.0300  0.4282
18051TIP3    H175644   3.628   5.091  16.759  0.3009 -0.1539 -0.0531
18051TIP3    H275645   3.698   5.162  16.873 -2.3290  0.8540  1.0054
18052TIP3   OH275646   1.427   5.507  12.348  0.3457  0.0766 -0.2525
18052TIP3    H175647   1.449   5.539  12.260 -0.7214  0.5347 -0.3693
18052TIP3    H275648   1.332   5.498  12.347  0.3642 -0.3527  0.7196
18053TIP3   OH275649   0.476   1.952   1.701 -0.1766  0.0144  0.2776
18053TIP3    H175650   0.479   1.876   1.643  0.4299  0.8370 -0.7908
18053TIP3    H275651   0.388   1.987   1.692 -0.3430 -0.3440  0.4962
18054TIP3   OH275652   6.718   5.637   1.917  0.4140  0.2298 -0.1882
18054TIP3    H175653   6.705   5.690   1.837 -0.7240  0.2795  0.0095
18054TIP3    H275654   6.640   5.582   1.921  0.2118  0.5966  1.1715
18055TIP3   OH275655   6.535   4.167   0.397  0.5081 -0.4411  0.1610
18055TIP3    H175656   6.595   4.117   0.452 -0.2099  0.1507  1.5280
18055TIP3    H275657   6.496   4.231   0.456 -1.6578 -0.9731 -0.6017
18056TIP3   OH275658   4.424   5.594  15.629 -0.1250  0.2660 -0.4861
18056TIP3    H175659   4.462   5.522  15.678 -2.3809 -0.5824  0.1437
18056TIP3    H275660   4.498   5.649  15.605  1.2582 -0.0869  2.5481
18057TIP3   OH275661   3.115   0.837   2.641  0.6570 -0.0771  0.0409
18057TIP3    H175662   3.125   0.878   2.727 -0.0500 -1.0344  0.5957
18057TIP3    H275663   3.120   0.743   2.658 -0.7319 -0.3314 -0.7787
18058TIP3   OH275664   6.430   0.018  16.086 -0.2898 -0.3958  0.2286
18058TIP3    H175665   6.386  -0.068  16.085 -0.2516 -0.4200 -0.6593
18058TIP3    H275666   6.487   0.015  16.162 -0.5465 -1.0299  0.4074
18059TIP3   OH275667   2.465   5.134   2.167  0.7115 -0.5503 -0.1913
18059TIP3    H175668   2.533   5.187   2.124  2.2481 -1.7526  0.6412
18059TIP3    H275669   2.404   5.111   2.097  3.5500 -3.1184 -2.0827
18060TIP3   OH275670   5.348   6.121   5.625 -0.3934  0.0659 -0.0916
18060TIP3    H175671   5.437   6.087   5.620 -0.1553  0.0848  2.4121
18060TIP3    H275672   5.358   6.210   5.659 -1.3251  0.3201 -0.4505
18061TIP3   OH275673   4.817   6.323  13.973 -0.2708 -0.4278  0.2266
18061TIP3    H175674   4.897   6.272  13.987  0.2287  0.2260 -0.1199
18061TIP3    H275675   4.752   6.284  14.030  0.1032 -1.4275 -0.0117
18062TIP3   OH275676   4.146   0.235  15.685  0.4665 -0.3005 -0.0610
18062TIP3    H175677   4.195   0.242  15.766  0.6212 -0.0024 -0.1803
18062TIP3    H275678   4.118   0.324  15.665 -2.8875 -0.8457  1.6725
18063TIP3   OH275679   5.519   3.873  11.295 -0.5142  0.0668  0.5099
18063TIP3    H175680   5.596   3.928  11.280  0.0496 -0.1813  2.2600
18063TIP3    H275681   5.500   3.834  11.209  1.6299 -0.2752  0.1348
18064TIP3   OH275682   4.131   1.916   0.865 -0.1774  0.6409  0.3290
18064TIP3    H175683   4.179   1.881   0.940 -0.2087  0.7177  0.3856
18064TIP3    H275684   4.088   1.840   0.826  0.2674  0.5175  0.0728
18065TIP3   OH275685   5.998   2.983  14.436  0.0443  0.2118 -0.0239
18065TIP3    H175686   5.984   2.917  14.368  0.5140  0.0326  0.0520
18065TIP3    H275687   5.911   3.023  14.448 -0.1288 -0.0268 -0.4416
18066TIP3   OH275688   2.423   3.688  13.219 -0.4045  0.5790  0.1729
18066TIP3    H175689   2.363   3.635  13.271  0.1419  1.2304  1.5094
18066TIP3    H275690   2.367   3.735  13.158 -0.9730 -0.9457 -0.5493
18067TIP3   OH275691   3.273   6.697  15.862 -0.1553 -0.0755 -0.9707
18067TIP3    H175692   3.291   6.629  15.927 -0.5216 -0.9691 -1.7915
18067TIP3    H275693   3.358   6.739  15.846  0.4063 -1.4423 -1.6814
18068TIP3   OH275694   0.497   4.900   3.992  0.1265 -0.2915  0.0369
18068TIP3    H175695   0.586   4.915   4.024 -0.1312  1.7329 -0.0532
18068TIP3    H275696   0.498   4.935   3.903 -0.6252 -0.7832 -0.1737
18069TIP3   OH275697   3.646   6.432  14.720 -0.2769  0.3697  0.0860
18069TIP3    H175698   3.679   6.467  14.637  1.0188  0.8830  0.7904
18069TIP3    H275699   3.725   6.415  14.772 -1.0629  0.1097  1.2324
18070TIP3   OH275700   5.437   5.367  14.200 -0.1192  0.2424 -0.0952
18070TIP3    H175701   5.479   5.293  14.243  1.0884  1.3298  0.6748
18070TIP3    H275702   5.353   5.377  14.245  0.8160  0.9157  1.5904
18071TIP3   OH275703   4.990   5.623  14.224  0.0428 -0.1340  0.5624
18071TIP3    H175704   5.086   5.615  14.225  0.0124 -0.5913  0.3018
18071TIP3    H275705   4.974   5.711  14.191  0.3683 -0.4180 -0.4127
18072TIP3   OH275706   2.256   0.073   5.995  1.1753 -0.4115  0.1327
18072TIP3    H175707   2.264  -0.015   6.032 -0.0258 -0.7806 -0.4143
18072TIP3    H275708   2.313   0.127   6.049  1.0245 -1.3006  1.2273
18073TIP3   OH275709   4.968   0.242  15.085  0.1213 -0.6818 -0.0865
18073TIP3    H175710   4.970   0.325  15.133  1.4129 -0.0257 -1.1849
18073TIP3    H275711   4.895   0.193  15.123 -0.0800  0.5753  1.2189
18074TIP3   OH275712   6.432   3.026  13.324 -0.1994  0.2810 -1.1809
18074TIP3    H175713   6.378   2.951  13.299 -2.7461  0.9856  1.6027
18074TIP3    H275714   6.373   3.101  13.320  1.2055  1.5067 -0.1842
18075TIP3   OH275715   0.236   4.243   1.905  0.3607 -0.1582  0.1541
18075TIP3    H175716   0.227   4.153   1.874  2.4172 -0.0334 -0.9933
18075TIP3    H275717   0.148   4.281   1.896 -0.2206 -1.6340 -0.6744
18076TIP3   OH275718   0.239   2.862  15.050 -0.2989 -0.9191 -0.3849
18076TIP3    H175719   0.261   2.905  15.133 -2.3424 -1.5376  0.5501
18076TIP3    H275720   0.301   2.790  15.043  0.9182  0.0733 -0.2298
18077TIP3   OH275721   0.052   1.827  17.086 -0.1926  0.3433  0.0565
18077TIP3    H175722   0.087   1.751  17.132  0.4450 -0.5325 -1.7678
18077TIP3    H275723   0.013   1.881  17.154 -1.8855 -2.2413  1.3190
18078TIP3   OH275724   6.718   2.968  14.657 -0.8195  0.3667 -0.3022
18078TIP3    H175725   6.694   2.959  14.564 -1.1376 -0.6607 -0.1233
18078TIP3    H275726   6.739   3.061  14.666  2.6866 -0.0232 -2.2403
18079TIP3   OH275727   0.733   6.519   5.411  0.1991 -0.0701  0.0175
18079TIP3    H175728   0.772   6.471   5.485  0.5259 -0.1197 -0.1846
18079TIP3    H275729   0.804   6.525   5.347 -0.0515  0.0737 -0.2461
18080TIP3   OH275730   1.770   2.430   4.558 -0.6780 -0.1044  0.3411
18080TIP3    H175731   1.702   2.495   4.576 -1.6289 -1.2361  0.9604
18080TIP3    H275732   1.725   2.346   4.566  0.8806 -0.8918  1.1595
18081TIP3   OH275733   4.438   5.911   4.698 -0.0782 -0.6647  0.8168
18081TIP3    H175734   4.432   5.816   4.700  1.7889 -0.8351  0.5625
18081TIP3    H275735   4.371   5.939   4.636 -1.4270 -1.7101  1.7634
18082TIP3   OH275736   5.174   5.038   6.295  0.1771 -0.0345 -0.4412
18082TIP3    H175737   5.116   4.980   6.246 -0.6836 -0.4288  0.9899
18082TIP3    H275738   5.215   4.981   6.360  0.8083  0.5978 -0.2722
18083TIP3   OH275739   5.101   2.687  16.391  0.2340  0.2330 -0.1993
18083TIP3    H175740   5.070   2.753  16.329  0.5887  0.7763  0.1868
18083TIP3    H275741   5.193   2.710  16.405  0.3473 -0.3241 -0.0324
18084TIP3   OH275742   0.250   0.064   5.020 -0.1703 -0.1406 -0.6011
18084TIP3    H175743   0.306  -0.013   5.009 -0.4722 -0.2470 -1.4385
18084TIP3    H275744   0.205   0.049   5.103  0.1729 -0.6116 -0.4983
18085TIP3   OH275745   5.799   4.690   3.413  0.4467 -0.4987 -0.7436
18085TIP3    H175746   5.731   4.648   3.466 -0.3723  1.8986  0.2751
18085TIP3    H275747   5.881   4.667   3.456 -0.0915  0.0987  0.6751
18086TIP3   OH275748   0.479   1.854  10.685 -0.1755 -0.5051  0.5818
18086TIP3    H175749   0.535   1.802  10.627 -1.4346 -0.2632 -0.9019
18086TIP3    H275750   0.416   1.791  10.720 -0.4105 -0.3694  0.4090
18087TIP3   OH275751   3.504   3.977  16.215 -0.1566 -0.0507  0.8983
18087TIP3    H175752   3.581   3.976  16.271  0.4571 -1.2363  0.0727
18087TIP3    H275753   3.445   3.912  16.254  0.7326 -1.6971 -0.4072
18088TIP3   OH275754   4.269   3.030  10.727  0.1289  0.1706 -0.1204
18088TIP3    H175755   4.309   3.088  10.662  0.5482  2.2496  1.8729
18088TIP3    H275756   4.180   3.015  10.695 -0.3579  2.8136 -0.2452
18089TIP3   OH275757   5.780   3.925   3.331  0.2158  0.0142  0.3797
18089TIP3    H175758   5.787   3.913   3.236  0.8060  1.0693  0.2671
18089TIP3    H275759   5.795   4.019   3.343 -0.3021 -0.0344  1.4819
18090TIP3   OH275760   0.403   3.037   5.034  0.5810  0.2605  0.4999
18090TIP3    H175761   0.495   3.056   5.018  0.2049  1.8109 -0.0207
18090TIP3    H275762   0.386   2.955   4.989  1.8146 -0.3141  1.0365
18091TIP3   OH275763   2.462   3.582  13.614  0.2109 -0.5618  0.3512
18091TIP3    H175764   2.548   3.541  13.603  1.1852  0.8117  2.2215
18091TIP3    H275765   2.430   3.548  13.698  0.1424  0.9108  0.9467
18092TIP3   OH275766   0.028   1.409  14.396  0.3208 -0.1073 -0.1130
18092TIP3    H175767  -0.021   1.355  14.334 -0.4460  0.2106  0.1972
18092TIP3    H275768  -0.032   1.481  14.417  0.8541  0.1862  0.4288
18093TIP3   OH275769   5.676   2.593  11.053  0.3996 -0.5520 -0.4038
18093TIP3    H175770   5.687   2.686  11.032 -1.6396  0.1318  1.2399
18093TIP3    H275771   5.625   2.559  10.980 -0.8184  0.1922  0.0714
18094TIP3   OH275772   5.705   5.384  15.888  0.2377 -0.5878 -0.2395
18094TIP3    H175773   5.677   5.441  15.960 -0.2240 -0.1116 -0.7757
18094TIP3    H275774   5.644   5.405  15.817 -0.3098 -2.1711 -0.2793
18095TIP3   OH275775   2.303   3.434   4.422  0.4056 -0.2871 -0.4245
18095TIP3    H175776   2.281   3.379   4.496  1.1219 -1.3859 -0.9931
18095TIP3    H275777   2.254   3.515   4.436  1.5118  0.0435  1.8917
18096TIP3   OH275778   1.903   1.585  15.060  0.0891  0.4113 -0.2012
18096TIP3    H175779   1.972   1.622  15.116  1.5663 -1.7532 -0.4236
18096TIP3    H275780   1.857   1.660  15.024  3.5049  2.0985 -1.4779
18097TIP3   OH275781   5.307   6.441  14.141  0.0009  0.3768 -0.3451
18097TIP3    H175782   5.304   6.427  14.235  2.4454  0.2369 -0.2348
18097TIP3    H275783   5.393   6.480  14.124 -0.7910  1.3847 -2.4036
18098TIP3   OH275784   2.252   2.164   0.358 -0.1635  0.6869 -0.2810
18098TIP3    H175785   2.157   2.168   0.367 -0.1614  2.4464 -0.6426
18098TIP3    H275786   2.276   2.077   0.390 -1.9478 -0.0270 -0.7933
18099TIP3   OH275787   4.255   1.013  14.123  0.2810  0.4972  0.3104
18099TIP3    H175788   4.205   1.089  14.097  0.1832 -0.0366 -1.1729
18099TIP3    H275789   4.192   0.956  14.169  0.4428  1.4278  1.7581
18100TIP3   OH275790   6.651   1.865  12.965 -0.3728  0.0909 -0.1702
18100TIP3    H175791   6.674   1.952  12.998 -1.8567  0.1908  0.6552
18100TIP3    H275792   6.731   1.834  12.923  0.8350  0.9926  1.3464
18101TIP3   OH275793   0.950   5.226   5.311  0.2317 -0.2395 -0.4521
18101TIP3    H175794   1.001   5.307   5.312 -0.5297  0.2872 -1.9230
18101TIP3    H275795   1.016   5.157   5.300  0.7372  0.3584 -1.3571
18102TIP3   OH275796   6.551   3.562  10.666  0.2805 -0.3023  1.0671
18102TIP3    H175797   6.487   3.509  10.714 -0.8025  0.0627  0.0763
18102TIP3    H275798   6.521   3.652  10.680 -0.0931 -0.1964 -0.3254
18103TIP3   OH275799   5.993   2.451   0.162 -0.1016  0.3458  0.0304
18103TIP3    H175800   5.908   2.415   0.190  0.1880 -0.8470 -0.5694
18103TIP3    H275801   6.057   2.385   0.190  0.7608  1.6752  1.3459
18104TIP3   OH275802   0.687   2.076  11.826 -0.4984 -0.1097 -0.1156
18104TIP3    H175803   0.612   2.074  11.886 -0.4119 -3.0199  0.0170
18104TIP3    H275804   0.685   2.164  11.789 -2.6574  0.6291  1.5168
18105TIP3   OH275805   5.906   4.928   3.856 -0.5770  0.0974  0.0044
18105TIP3    H175806   5.946   4.980   3.926  0.1333  1.4145 -1.3190
18105TIP3    H275807   5.976   4.917   3.791 -1.0394 -1.5956 -0.2670
18106TIP3   OH275808   4.937   2.886  11.304  0.2036  0.5892 -0.0183
18106TIP3    H175809   4.889   2.947  11.247  1.8564 -0.1044 -2.3180
18106TIP3    H275810   4.873   2.819  11.327 -0.6504  1.1745 -0.6362
18107TIP3   OH275811   2.270   4.308   4.645  0.5454  0.0111 -0.0762
18107TIP3    H175812   2.314   4.393   4.648 -0.1845  0.4462 -1.1642
18107TIP3    H275813   2.324   4.255   4.587 -0.5714  0.7012 -1.8119
18108TIP3   OH275814   2.540   2.589  16.343  0.2657 -0.2383 -0.2673
18108TIP3    H175815   2.492   2.523  16.394 -0.3328  0.7203  0.4463
18108TIP3    H275816   2.630   2.582  16.374 -0.0250  0.0922  0.7066
18109TIP3   OH275817   5.377   6.568  11.465 -0.1389 -0.2229  0.0504
18109TIP3    H175818   5.293   6.579  11.420  0.4828  2.7513 -0.6078
18109TIP3    H275819   5.360   6.597  11.555  0.6211  2.9653 -0.7055
18110TIP3   OH275820   2.488   6.120   3.217 -0.3149  0.0805 -0.0691
18110TIP3    H175821   2.544   6.175   3.272  0.7127 -0.9226 -0.0870
18110TIP3    H275822   2.514   6.030   3.238 -0.3036 -0.3439 -1.7514
18111TIP3   OH275823   1.796   4.678  12.614 -0.0996 -0.6418 -0.2020
18111TIP3    H175824   1.716   4.648  12.571  0.3353 -2.7339  0.3383
18111TIP3    H275825   1.783   4.655  12.706 -0.0516  1.6692  0.4352
18112TIP3   OH275826   4.901   1.451   1.528  0.5447 -0.3022 -0.0111
18112TIP3    H175827   4.914   1.541   1.500  1.2818 -0.3870  0.0484
18112TIP3    H275828   4.812   1.430   1.499  0.3565  0.4490  0.0058
18113TIP3   OH275829   5.725   0.442  13.671 -0.6144 -0.3126 -0.5074
18113TIP3    H175830   5.800   0.423  13.615 -1.1155  0.2168 -1.3825
18113TIP3    H275831   5.651   0.449  13.611 -1.1703  0.2715  0.2184
18114TIP3   OH275832   4.654   5.461   0.760 -0.5346 -0.5043  0.3615
18114TIP3    H175833   4.665   5.507   0.677  0.7892 -1.1601  0.1546
18114TIP3    H275834   4.559   5.453   0.770 -0.7300 -1.5746 -1.7430
18115TIP3   OH275835   3.315   0.187   1.908 -0.6938  0.4534 -0.5177
18115TIP3    H175836   3.371   0.150   1.839  0.8358  0.7184  0.5309
18115TIP3    H275837   3.342   0.278   1.914 -1.2858  0.6012 -0.0094
18116TIP3   OH275838   5.514   2.509  12.855  0.2137  0.2289  0.2652
18116TIP3    H175839   5.587   2.569  12.868  0.0087  0.3559  0.8605
18116TIP3    H275840   5.502   2.507  12.760  1.7778 -0.7589  0.0591
18117TIP3   OH275841   2.352   2.487   1.222  0.1746 -0.1733  0.0097
18117TIP3    H175842   2.360   2.582   1.208  1.9931 -0.2713  0.1887
18117TIP3    H275843   2.339   2.477   1.316 -0.7428 -0.0985 -0.0916
18118TIP3   OH275844   0.162   2.311   0.013 -0.0930 -0.1694 -0.0120
18118TIP3    H175845   0.237   2.307   0.073 -0.9681 -0.2716  1.1191
18118TIP3    H275846   0.164   2.227  -0.033  0.0131 -0.5274  0.6258
18119TIP3   OH275847   1.055   0.496  12.762 -0.2232 -0.0743 -0.1334
18119TIP3    H175848   1.052   0.566  12.696 -0.9523 -0.8943 -1.0095
18119TIP3    H275849   1.112   0.530  12.831 -1.2015  1.7108 -0.1483
18120TIP3   OH275850   5.426   2.649   3.450  0.1161  0.0115 -0.8195
18120TIP3    H175851   5.440   2.604   3.534  0.0522  0.9412 -0.2989
18120TIP3    H275852   5.476   2.730   3.458 -0.7891  0.6303 -1.2379
18121TIP3   OH275853   2.000   3.566   0.067  0.3529  0.0759 -0.0490
18121TIP3    H175854   2.072   3.604   0.017 -1.5989  0.3717 -2.8695
18121TIP3    H275855   1.930   3.556   0.003 -1.2388 -2.7117  1.9472
18122TIP3   OH275856   3.793   1.906   0.435  0.1320  0.1220 -0.0134
18122TIP3    H175857   3.814   1.813   0.442 -0.8621  0.0020  2.6342
18122TIP3    H275858   3.790   1.923   0.341  0.3448 -2.5069 -0.5720
18123TIP3   OH275859   3.143   1.888   1.320 -0.0056  0.4196 -0.4542
18123TIP3    H175860   3.157   1.799   1.351 -1.2374  0.3898  0.0637
18123TIP3    H275861   3.158   1.944   1.396  0.8321  0.6802 -0.7926
18124TIP3   OH275862   2.417   2.740  15.256 -0.3317  0.2691 -0.1199
18124TIP3    H175863   2.345   2.783  15.209 -0.4856  0.5766  0.3921
18124TIP3    H275864   2.487   2.732  15.191 -0.6116  0.5086 -0.4546
18125TIP3   OH275865   3.656   0.907   0.801 -0.1082  0.3814  0.0141
18125TIP3    H175866   3.596   0.853   0.852 -0.4146  1.4101  0.7823
18125TIP3    H275867   3.619   0.908   0.713  0.9345 -2.1982 -0.5336
18126TIP3   OH275868   4.405   2.476  14.344 -0.0909  0.5440 -0.0966
18126TIP3    H175869   4.361   2.468  14.260  1.2441  0.1926 -0.7982
18126TIP3    H275870   4.335   2.469  14.409 -1.4945  3.0763 -1.1604
18127TIP3   OH275871   1.733   4.759  15.147 -0.0734 -0.2942  0.1882
18127TIP3    H175872   1.822   4.795  15.156 -0.0727 -0.3696  0.4989
18127TIP3    H275873   1.717   4.758  15.053  0.2310 -0.2166  0.1343
18128TIP3   OH275874   2.822   2.316  10.720  0.1007  0.2903 -0.1855
18128TIP3    H175875   2.824   2.347  10.629 -2.0123 -1.2602 -0.8279
18128TIP3    H275876   2.742   2.264  10.726  1.1186 -1.1493  2.0964
18129TIP3   OH275877   2.315   3.570  11.163  0.1403  0.2627 -0.1896
18129TIP3    H175878   2.338   3.618  11.243  2.2501 -1.4077  0.2882
18129TIP3    H275879   2.236   3.521  11.187  1.3824 -1.1058  1.3041
18130TIP3   OH275880   2.082   3.016  11.954  0.2494  0.2867 -0.4431
18130TIP3    H175881   2.004   3.050  11.911 -0.7970 -0.3199  0.8650
18130TIP3    H275882   2.139   3.091  11.965 -0.6640  0.9865 -0.3846
18131TIP3   OH275883   1.855   1.130  15.230  0.2321  0.5266 -0.3050
18131TIP3    H175884   1.870   1.087  15.314 -0.5964 -0.5116 -0.6579
18131TIP3    H275885   1.934   1.183  15.215  0.2167  1.0339  1.2865
18132TIP3   OH275886   3.576   4.902  12.049 -0.0119 -0.2849 -0.5685
18132TIP3    H175887   3.500   4.848  12.028  0.1009 -0.2854 -0.9737
18132TIP3    H275888   3.541   4.969  12.108 -0.7140  0.8034 -2.1676
18133TIP3   OH275889   2.924   2.662   4.199  0.1415  0.0340  0.3869
18133TIP3    H175890   3.015   2.660   4.231 -0.0724 -1.1110  0.9582
18133TIP3    H275891   2.932   2.689   4.107  0.9085  1.6790  0.8881
18134TIP3   OH275892   3.070   6.051  11.464  0.6558 -0.0812 -0.0532
18134TIP3    H175893   3.057   6.086  11.376 -2.4128  0.6871  0.6020
18134TIP3    H275894   3.143   6.103  11.500  0.9499  0.6251 -1.5920
18135TIP3   OH275895   1.813   3.431  14.509  0.1397 -0.0973  0.8298
18135TIP3    H175896   1.870   3.507  14.520  0.9312 -0.2892 -1.4784
18135TIP3    H275897   1.811   3.415  14.415 -2.2864 -1.2447  0.9989
18136TIP3   OH275898   4.123   3.563   1.356  0.3192 -0.4898 -0.2780
18136TIP3    H175899   4.156   3.588   1.270  1.2736  1.0799  0.4964
18136TIP3    H275900   4.186   3.499   1.388  1.6843  1.1150  0.4214
18137TIP3   OH275901   3.531   0.131   3.720  0.5858 -0.4607 -0.4757
18137TIP3    H175902   3.524   0.192   3.647 -1.6483 -0.2896 -0.1866
18137TIP3    H275903   3.568   0.182   3.791 -1.5139  0.7244 -0.1520
18138TIP3   OH275904   4.073   2.673   3.769  0.0998  0.4407 -0.4681
18138TIP3    H175905   4.077   2.609   3.698  0.8695 -0.3230  0.2265
18138TIP3    H275906   4.140   2.737   3.747 -2.2476  2.3924 -2.3841
18139TIP3   OH275907   1.447   3.435  13.745 -0.4739  0.1463 -0.1879
18139TIP3    H175908   1.540   3.458  13.741 -0.4196  0.0772  0.5106
18139TIP3    H275909   1.446   3.348  13.785 -0.5939 -1.7157 -3.8602
18140TIP3   OH275910   1.927   2.929   0.409  0.2340  0.2832 -0.2794
18140TIP3    H175911   1.918   3.024   0.407 -0.2340  0.2895  0.9043
18140TIP3    H275912   1.963   2.905   0.324 -1.3647  1.3430 -1.2976
18141TIP3   OH275913   3.170   1.830   3.336  0.0782  0.7580  0.3951
18141TIP3    H175914   3.236   1.898   3.318  0.9661  0.0043  0.6933
18141TIP3    H275915   3.221   1.755   3.368 -1.0195  0.5120  1.6762
18142TIP3   OH275916   0.753   1.398  12.567  0.5700  0.3912  0.3526
18142TIP3    H175917   0.829   1.438  12.526  0.4884  1.1234  0.8828
18142TIP3    H275918   0.726   1.329  12.507  2.2897 -0.6114  0.6582
18143TIP3   OH275919   5.312   3.618  10.741 -0.3908 -0.4428 -0.0202
18143TIP3    H175920   5.283   3.709  10.746 -0.4840 -0.4580 -0.2891
18143TIP3    H275921   5.245   3.569  10.788  0.8124 -0.1245  2.1700
18144TIP3   OH275922   0.478   5.882   0.098 -0.6512  0.1935 -0.0239
18144TIP3    H175923   0.401   5.926   0.134 -1.0684  0.6756 -1.4380
18144TIP3    H275924   0.532   5.953   0.063 -0.5349 -0.2932 -0.8487
18145TIP3   OH275925   4.176   6.531   1.802  0.2320 -0.0212 -0.6675
18145TIP3    H175926   4.102   6.476   1.774  0.9229 -0.9463 -0.7268
18145TIP3    H275927   4.254   6.482   1.775  0.8742  0.9866 -0.6900
18146TIP3   OH275928   2.289   6.505  17.082 -0.5912 -0.2690 -0.4160
18146TIP3    H175929   2.234   6.433  17.112  0.8991 -1.1649  0.3059
18146TIP3    H275930   2.241   6.584  17.106 -1.1797 -1.0076  0.9233
18147TIP3   OH275931   1.962   4.338   1.639 -0.2013  0.4031 -0.3189
18147TIP3    H175932   1.878   4.304   1.671  0.3547 -0.2144  0.5235
18147TIP3    H275933   1.944   4.362   1.548 -1.1079 -0.3966 -0.3772
18148TIP3   OH275934   5.057   2.458   5.327 -0.5252  1.1359 -0.5787
18148TIP3    H175935   5.066   2.479   5.234 -0.1779  1.0621 -0.5605
18148TIP3    H275936   5.142   2.423   5.353 -1.7014 -2.5672 -1.1848
18149TIP3   OH275937   4.124   1.413  16.069  0.0409 -0.1706  0.6345
18149TIP3    H175938   4.157   1.444  15.985  0.9390 -0.6662  0.7841
18149TIP3    H275939   4.097   1.492  16.116  0.7040  0.2302  0.3593
18150TIP3   OH275940   4.156   3.627  16.860  0.1854  0.4687  0.0077
18150TIP3    H175941   4.156   3.543  16.905 -2.4078  0.2481 -0.2292
18150TIP3    H275942   4.115   3.687  16.923  0.3261  1.1236 -0.5161
18151TIP3   OH275943   0.104   0.937   5.587 -0.1141 -0.5495 -0.4505
18151TIP3    H175944   0.109   0.982   5.671  1.5733  1.2665 -1.4109
18151TIP3    H275945   0.196   0.925   5.561 -0.5841 -0.7907 -2.1562
18152TIP3   OH275946   5.596   6.743  11.269 -0.5339 -0.7249 -0.1892
18152TIP3    H175947   5.501   6.750  11.281 -0.4808 -1.4193  0.7465
18152TIP3    H275948   5.625   6.683  11.337  0.5016 -1.0269 -0.8667
18153TIP3   OH275949   5.864   5.696  11.279 -0.1136 -0.0900 -0.2902
18153TIP3    H175950   5.775   5.670  11.303 -0.2130  0.0004 -0.5592
18153TIP3    H275951   5.870   5.677  11.185 -0.9133  2.8448 -1.0161
18154TIP3   OH275952   2.497   6.463   4.952 -0.1035 -0.0442 -0.2136
18154TIP3    H175953   2.576   6.411   4.961  0.4026  1.0249  2.2693
18154TIP3    H275954   2.473   6.456   4.859  2.2042 -1.3388 -0.7625
18155TIP3   OH275955   0.843   4.376  16.226  0.1093  0.0779  0.7119
18155TIP3    H175956   0.768   4.385  16.285 -0.0997  0.3605  0.4062
18155TIP3    H275957   0.907   4.439  16.259 -0.9682  2.0994 -0.8245
18156TIP3   OH275958   6.029   5.571  16.427 -0.3229 -0.2043 -0.5243
18156TIP3    H175959   6.088   5.570  16.351 -0.2524 -0.8877 -0.4738
18156TIP3    H275960   6.058   5.646  16.479  1.3547 -1.2346  0.1320
18157TIP3   OH275961   4.345   4.641   0.929  0.7095 -0.1481  0.0359
18157TIP3    H175962   4.376   4.625   1.018  1.7464 -2.1436 -0.6221
18157TIP3    H275963   4.416   4.690   0.887 -0.0069  1.2682  0.4178
18158TIP3   OH275964   0.663   1.957  16.790 -0.2818  0.3366  0.5051
18158TIP3    H175965   0.742   2.008  16.774  0.6094 -1.0491  0.2469
18158TIP3    H275966   0.636   1.926  16.703  1.4611 -2.7729  0.9402
18159TIP3   OH275967   1.050   3.991   1.358 -0.1909 -0.5160 -0.0978
18159TIP3    H175968   0.958   3.988   1.384 -1.3440  0.6614 -3.4879
18159TIP3    H275969   1.078   4.079   1.382 -0.1810 -0.5776  0.1280
18160TIP3   OH275970   2.282   5.904   4.425 -0.1870 -0.6356  0.2477
18160TIP3    H175971   2.226   5.828   4.415 -0.5434 -0.4205  0.6005
18160TIP3    H275972   2.362   5.870   4.465 -0.2075 -0.8823  0.0780
18161TIP3   OH275973   6.321   2.217  12.366 -0.2387  0.4470 -0.4725
18161TIP3    H175974   6.336   2.290  12.307 -1.6227  0.7439 -0.4928
18161TIP3    H275975   6.258   2.250  12.430 -2.3026 -1.2232 -1.5206
18162TIP3   OH275976   2.810   3.031   5.186  0.6133 -0.5048  0.6311
18162TIP3    H175977   2.863   3.086   5.243  1.5222  1.0083 -1.5251
18162TIP3    H275978   2.860   3.027   5.104 -1.6165 -0.7328 -0.8050
18163TIP3   OH275979   4.705   4.303   2.668  0.1671  0.2940 -0.3034
18163TIP3    H175980   4.687   4.218   2.629  0.1122  0.0920  0.1533
18163TIP3    H275981   4.672   4.296   2.758  0.1782  0.7904 -0.2564
18164TIP3   OH275982   4.520   4.075  12.745  0.2098  0.1350  0.5310
18164TIP3    H175983   4.596   4.060  12.801 -1.4576 -1.3646  2.5591
18164TIP3    H275984   4.463   4.131  12.796 -1.0205 -0.6241  0.0244
18165TIP3   OH275985   6.658   1.738  13.849 -0.3464  0.8315 -0.1389
18165TIP3    H175986   6.673   1.658  13.900  0.1596  1.3272  0.5121
18165TIP3    H275987   6.641   1.806  13.915  1.3670  1.7201 -0.5586
18166TIP3   OH275988   3.736   2.926  16.215  0.1644  0.1429  0.2483
18166TIP3    H175989   3.716   2.984  16.141 -0.0516  0.9502  0.9210
18166TIP3    H275990   3.821   2.957  16.247  0.0791  0.0518  0.5723
18167TIP3   OH275991   2.594   1.137   2.756 -0.1264  0.3873  0.1291
18167TIP3    H175992   2.682   1.166   2.729  0.1186 -1.8215 -1.7805
18167TIP3    H275993   2.538   1.158   2.682 -0.1466 -2.6633 -0.8661
18168TIP3   OH275994   5.500   6.519  12.931  0.1885 -0.2760 -0.0025
18168TIP3    H175995   5.434   6.453  12.957  0.1082 -0.3738 -0.4524
18168TIP3    H275996   5.562   6.470  12.878  0.8571 -0.2733  0.7618
18169TIP3   OH275997   5.484   5.720  13.213  0.2771  0.3573  0.3119
18169TIP3    H175998   5.526   5.749  13.132 -0.6577  0.7200 -0.0700
18169TIP3    H275999   5.548   5.664  13.255  1.5955  1.8448  0.3622
18170TIP3   OH276000   4.817   2.443  11.341 -0.0622 -0.8859 -0.1051
18170TIP3    H176001   4.891   2.469  11.286  1.3318  1.1243  2.4561
18170TIP3    H276002   4.774   2.373  11.292  2.7677 -1.2716 -2.3286
18171TIP3   OH276003   4.553   3.368  13.599 -0.6218 -0.0470  0.2515
18171TIP3    H176004   4.506   3.349  13.518 -1.3718  0.1297  0.6421
18171TIP3    H276005   4.565   3.463  13.598  0.9501 -0.2116 -0.4996
18172TIP3   OH276006   4.953   1.108   5.165  0.4226 -0.4823 -0.3328
18172TIP3    H176007   4.964   1.055   5.244 -0.6423  0.3077  0.3791
18172TIP3    H276008   4.980   1.051   5.093 -1.2448 -2.2279  0.3428
18173TIP3   OH276009   0.978   5.849   1.007 -1.0730 -0.4039  0.5013
18173TIP3    H176010   0.915   5.806   0.950 -0.3566 -1.1561  0.2715
18173TIP3    H276011   0.929   5.922   1.046 -1.9542 -0.7184 -0.0036
18174TIP3   OH276012   5.741   0.211   1.309 -0.5757  0.4258  0.2712
18174TIP3    H176013   5.680   0.211   1.383  0.8977  1.4728  1.5406
18174TIP3    H276014   5.713   0.284   1.255 -0.3952  0.9871  0.9205
18175TIP3   OH276015   0.847   2.191   5.915 -0.1698 -0.1161  0.0179
18175TIP3    H176016   0.921   2.135   5.895  0.8620  0.9520  0.7412
18175TIP3    H276017   0.839   2.188   6.011 -0.2190  0.7919  0.0568
18176TIP3   OH276018   1.455   3.562  16.953  0.4227  0.3984 -0.3359
18176TIP3    H176019   1.469   3.625  16.883 -0.0573 -0.0890 -0.8776
18176TIP3    H276020   1.365   3.531  16.941 -0.1387  1.2837  1.2873
18177TIP3   OH276021   0.928   1.121   3.685 -0.0742 -0.8096  0.4248
18177TIP3    H176022   0.985   1.131   3.609  1.0459 -2.0407  1.0511
18177TIP3    H276023   0.870   1.197   3.683  1.0461  0.0420 -0.7189
18178TIP3   OH276024   3.329   6.112   5.156  0.2354 -0.1159 -0.3768
18178TIP3    H176025   3.311   6.027   5.114 -0.6417 -0.3441  0.4105
18178TIP3    H276026   3.359   6.168   5.085 -3.1998  0.1342 -1.7993
18179TIP3   OH276027   1.665   5.257  11.175 -0.1121 -0.2602 -0.0605
18179TIP3    H176028   1.571   5.244  11.163 -0.5847  2.2999  0.3829
18179TIP3    H276029   1.692   5.184  11.231 -1.4571 -1.9578 -1.4663
18180TIP3   OH276030   0.971   5.162   4.710 -0.0341  0.6108  0.2573
18180TIP3    H176031   0.953   5.079   4.755 -0.8333  0.1815 -0.8251
18180TIP3    H276032   1.063   5.156   4.685  0.4077  0.8122  1.6940
18181TIP3   OH276033   1.628   5.123   5.389  0.3968  0.0460  0.4564
18181TIP3    H176034   1.640   5.194   5.452  2.3251 -0.2403  0.4642
18181TIP3    H276035   1.627   5.044   5.442  0.9657 -0.1197  0.2266
18182TIP3   OH276036   2.095   5.524   1.792  0.1246 -0.3852  0.6320
18182TIP3    H176037   2.011   5.514   1.836 -1.7145  0.8504 -2.3137
18182TIP3    H276038   2.137   5.438   1.801 -0.0040 -0.2429  4.6158
18183TIP3   OH276039   3.695   5.553   2.074 -0.8492 -0.6801 -0.3900
18183TIP3    H176040   3.604   5.578   2.058 -0.8011 -1.2991 -1.7702
18183TIP3    H276041   3.721   5.503   1.996  0.9080  0.1420 -0.3963
18184TIP3   OH276042   4.155   5.719   4.511 -0.1763 -0.0023 -0.5738
18184TIP3    H176043   4.205   5.714   4.430  0.1433  1.6431 -0.5230
18184TIP3    H276044   4.170   5.808   4.543  1.9207 -1.3312  2.7173
18185TIP3   OH276045   6.385   3.602  11.754 -0.5539 -0.0916 -0.4333
18185TIP3    H176046   6.295   3.577  11.736 -0.9543  1.1432 -0.2369
18185TIP3    H276047   6.423   3.620  11.668 -1.1055  1.3193 -0.4138
18186TIP3   OH276048   3.285   1.215  12.797 -0.5829 -0.0485  0.5644
18186TIP3    H176049   3.303   1.208  12.703 -0.8966  1.3090  0.3794
18186TIP3    H276050   3.212   1.156  12.812 -0.3420 -0.5003  0.0176
18187TIP3   OH276051   2.255   1.289   3.026 -0.0238 -0.3322 -0.0269
18187TIP3    H176052   2.188   1.351   3.053  0.6240  0.2340  0.3128
18187TIP3    H276053   2.215   1.203   3.037 -1.6989  0.0340 -2.4788
18188TIP3   OH276054   0.683   2.302  15.598  0.7027 -0.1011  0.2250
18188TIP3    H176055   0.769   2.260  15.603 -0.6614 -3.2304 -0.1134
18188TIP3    H276056   0.661   2.302  15.505  0.0297 -0.0475  0.3770
18189TIP3   OH276057   1.785   1.264  11.183  0.1224 -0.3109  0.2315
18189TIP3    H176058   1.699   1.282  11.147  0.0247  0.5190  0.8619
18189TIP3    H276059   1.794   1.169  11.177  0.1002 -0.2164 -1.9012
18190TIP3   OH276060   6.011   0.995  15.383 -0.6292 -0.0385  0.4302
18190TIP3    H176061   6.043   0.942  15.310  0.4584 -1.2046  1.6983
18190TIP3    H276062   6.018   0.938  15.460 -1.4616  1.2417  1.5163
18191TIP3   OH276063   1.440   2.322  12.079 -0.2366  0.2332  0.3127
18191TIP3    H176064   1.489   2.361  12.006  0.5439 -0.5319  0.4107
18191TIP3    H276065   1.365   2.281  12.037 -0.1471  0.3710  0.0110
18192TIP3   OH276066   0.426   5.315  16.124 -0.2096  0.3244 -0.3201
18192TIP3    H176067   0.470   5.230  16.129 -0.5111  0.0682 -1.5435
18192TIP3    H276068   0.483   5.367  16.068 -0.3377  0.7241 -0.0762
18193TIP3   OH276069   6.765   6.139   4.299  0.3127  0.0234  0.8494
18193TIP3    H176070   6.817   6.213   4.268 -0.6185  0.7585  0.9658
18193TIP3    H276071   6.765   6.077   4.227  0.0305  0.7216  0.2379
18194TIP3   OH276072   0.787   4.273   2.150 -0.3957 -0.3457 -0.4417
18194TIP3    H176073   0.856   4.272   2.084 -2.5967 -0.6861 -2.9022
18194TIP3    H276074   0.710   4.307   2.104 -2.4082 -1.8509  1.5980
18195TIP3   OH276075   5.680   3.444   3.342 -0.2096  0.4688  0.0833
18195TIP3    H176076   5.692   3.521   3.397 -3.3757  1.5733 -0.5489
18195TIP3    H276077   5.753   3.446   3.281  0.3640  2.3638  0.7696
18196TIP3   OH276078   1.813   0.797  13.175  0.0458  0.0161  0.1894
18196TIP3    H176079   1.900   0.819  13.143  0.2112  2.0305  1.8179
18196TIP3    H276080   1.754   0.820  13.103  0.7580 -0.4689 -0.5674
18197TIP3   OH276081   3.558   2.823  10.643 -0.3032  0.1987 -0.4662
18197TIP3    H176082   3.523   2.900  10.688  0.6974  0.4631 -0.1105
18197TIP3    H276083   3.567   2.850  10.552 -0.1962  0.4257 -0.3891
18198TIP3   OH276084   2.630   5.724  14.524 -0.2520  0.1582 -0.0373
18198TIP3    H176085   2.567   5.740  14.454  1.0382  1.0856 -1.0533
18198TIP3    H276086   2.631   5.804  14.576 -0.1693  0.0204  0.1771
18199TIP3   OH276087   2.958   1.675   5.404 -0.5374  0.7371  0.4704
18199TIP3    H176088   2.917   1.658   5.489  1.0322 -1.1429  0.9257
18199TIP3    H276089   2.949   1.593   5.356 -0.1665  1.3368 -0.6633
18200TIP3   OH276090   4.462   2.200   4.860  0.1709  0.5402  0.1740
18200TIP3    H176091   4.400   2.272   4.847 -2.1890 -1.8560 -3.7030
18200TIP3    H276092   4.542   2.230   4.816 -0.5114  1.1300 -0.7085
18201TIP3   OH276093   1.644   4.586   3.848 -0.0310 -0.7331 -0.1972
18201TIP3    H176094   1.672   4.596   3.757  1.9867 -3.4615  0.0199
18201TIP3    H276095   1.661   4.495   3.870  0.9753  0.1340  3.3834
18202TIP3   OH276096   5.590   3.788  15.353 -0.3327 -0.2548  0.0405
18202TIP3    H176097   5.577   3.859  15.290  0.3583  0.2599  0.4671
18202TIP3    H276098   5.576   3.708  15.303 -1.4250  0.1851 -0.3762
18203TIP3   OH276099   3.344   1.660   2.098 -0.0952  0.1372 -0.6033
18203TIP3    H176100   3.371   1.628   2.012 -2.1333 -2.0963 -0.5201
18203TIP3    H276101   3.424   1.659   2.150  0.6631 -1.1613 -1.7251
18204TIP3   OH276102   0.543   4.622   4.242 -1.0101  0.2606 -0.1188
18204TIP3    H176103   0.491   4.570   4.304 -0.0964  0.4582  0.8353
18204TIP3    H276104   0.480   4.646   4.173 -1.8843 -0.5414  0.3631
18205TIP3   OH276105   0.969   1.467  16.883 -0.1052 -0.0384  0.3858
18205TIP3    H176106   1.010   1.459  16.797 -0.4995 -1.2338  0.2993
18205TIP3    H276107   0.921   1.550  16.879 -0.8160 -0.4806 -0.8491
18206TIP3   OH276108   2.257   0.483  11.157 -0.4861  0.1050 -0.6923
18206TIP3    H176109   2.185   0.489  11.219  0.4204  1.4365  0.2984
18206TIP3    H276110   2.215   0.476  11.071 -1.7578 -2.1237  0.0520
18207TIP3   OH276111   3.289   2.605  12.884 -0.0386  0.3213 -0.3949
18207TIP3    H176112   3.252   2.687  12.849  1.6944  0.9259 -0.9001
18207TIP3    H276113   3.314   2.626  12.974 -1.6010 -0.3299  0.2311
18208TIP3   OH276114   4.873   0.850  12.832 -0.5230  0.0218  0.1009
18208TIP3    H176115   4.968   0.849  12.816 -0.4604 -0.5968  0.5003
18208TIP3    H276116   4.839   0.910  12.765 -0.0341 -0.9985 -1.0924
18209TIP3   OH276117   6.308   3.160  15.951 -0.5824  0.0862 -0.0430
18209TIP3    H176118   6.380   3.097  15.951 -0.5505  0.1159  0.5557
18209TIP3    H276119   6.242   3.121  15.893 -1.5305 -1.6329  2.0510
18210TIP3   OH276120   4.609   4.567  15.347 -0.2914  0.2371 -0.2620
18210TIP3    H176121   4.598   4.472  15.349  0.1224  0.2029  0.9860
18210TIP3    H276122   4.562   4.598  15.424  2.9706  0.6553  1.7081
18211TIP3   OH276123   4.933   0.307  14.738  0.5797 -0.3526 -0.4866
18211TIP3    H176124   4.864   0.307  14.805 -0.8936 -0.3278 -1.9483
18211TIP3    H276125   4.917   0.387  14.688  1.2478 -0.7099 -1.2872
18212TIP3   OH276126   0.853   3.817  14.644  0.3290  0.6088  0.2182
18212TIP3    H176127   0.820   3.746  14.699  0.8689  0.3146  0.1765
18212TIP3    H276128   0.947   3.798  14.635  0.3673  1.0085 -0.2735
18213TIP3   OH276129   1.752   5.488   6.413 -0.1633 -0.2402 -0.0823
18213TIP3    H176130   1.841   5.453   6.413 -0.2963 -0.8337  3.0376
18213TIP3    H276131   1.699   5.420   6.371  0.6921 -0.2242 -1.2467
18214TIP3   OH276132   4.584   0.748  15.403  0.7236 -0.6552 -0.1586
18214TIP3    H176133   4.512   0.749  15.467  1.0505 -1.0353  0.2272
18214TIP3    H276134   4.647   0.811  15.438  0.5676 -0.2947 -0.5169
18215TIP3   OH276135   6.193   3.988  13.370  0.7571  0.2568  0.1160
18215TIP3    H176136   6.137   3.926  13.416  0.0459  0.1443 -0.8594
18215TIP3    H276137   6.282   3.961  13.390  0.4985  0.9086  2.3409
18216TIP3   OH276138   0.158   1.287  12.888 -0.7948  0.7704 -0.2426
18216TIP3    H176139   0.151   1.283  12.983  0.2271  1.4014 -0.1227
18216TIP3    H276140   0.209   1.210  12.864  0.5992  1.5994 -0.0641
18217TIP3   OH276141   6.814   2.992  13.771 -0.6417 -0.5559  0.1864
18217TIP3    H176142   6.740   3.053  13.775 -0.2100 -0.0453  0.3555
18217TIP3    H276143   6.816   2.962  13.680  0.0119  0.7499 -0.2410
18218TIP3   OH276144   5.587   2.801  12.713  0.0915 -0.2889 -0.2938
18218TIP3    H176145   5.543   2.857  12.777 -0.5015 -1.9860  0.8757
18218TIP3    H276146   5.519   2.740  12.684  0.9767 -1.1739 -0.5840
18219TIP3   OH276147   5.511   6.331   5.966 -0.0389  0.1916 -0.0396
18219TIP3    H176148   5.441   6.334   6.032  1.2274  0.6538  1.3190
18219TIP3    H276149   5.494   6.408   5.911  0.4694  1.4326  1.4490
18220TIP3   OH276150   5.886   1.176  13.982 -0.3079 -0.6987  0.6656
18220TIP3    H176151   5.832   1.107  13.943  0.8503 -1.2909  0.0416
18220TIP3    H276152   5.895   1.150  14.074  0.1087 -1.3935  0.4400
18221TIP3   OH276153   6.011   5.133   4.005 -0.4032  0.3234 -0.1494
18221TIP3    H176154   6.058   5.155   4.085 -0.4734  1.0679 -0.3074
18221TIP3    H276155   5.986   5.218   3.967 -0.4508 -0.0197 -0.9086
18222TIP3   OH276156   6.370   2.389  12.853 -0.3164  0.2503  0.3481
18222TIP3    H176157   6.388   2.330  12.779 -0.8275  0.2387  0.2273
18222TIP3    H276158   6.275   2.385  12.864 -0.3714  1.0905  0.3013
18223TIP3   OH276159   3.099   4.794   2.442 -0.1185 -0.1709 -0.2492
18223TIP3    H176160   3.062   4.817   2.528 -0.9814 -1.2221 -0.3215
18223TIP3    H276161   3.086   4.700   2.435  0.8260 -0.2488 -1.1360
18224TIP3   OH276162   3.165   0.491   1.324 -0.0111 -0.6895 -0.0200
18224TIP3    H176163   3.148   0.421   1.261 -2.6701  1.5490 -2.0312
18224TIP3    H276164   3.147   0.572   1.276 -1.1036  1.2399  3.2944
18225TIP3   OH276165   3.427   6.346   1.063 -0.1770  0.2911 -0.3590
18225TIP3    H176166   3.359   6.380   1.121 -0.9650 -1.7770 -0.0084
18225TIP3    H276167   3.509   6.362   1.110 -0.6731  0.0825  0.5939
18226TIP3   OH276168   5.335   3.706   5.700 -0.1366  0.7733  0.1411
18226TIP3    H176169   5.383   3.788   5.707 -0.4038  0.8760  0.8502
18226TIP3    H276170   5.402   3.638   5.691  0.1126  0.9799  0.4557
18227TIP3   OH276171   6.392   1.498  15.935 -0.2294  0.3650  0.6967
18227TIP3    H176172   6.380   1.527  15.845  1.8255 -1.2480 -0.1466
18227TIP3    H276173   6.314   1.446  15.954  0.6618 -1.8000 -1.2437
18228TIP3   OH276174   3.941   6.418   6.493 -0.2799  0.1216  0.8912
18228TIP3    H176175   3.936   6.361   6.417 -1.3013  0.1538  0.9185
18228TIP3    H276176   4.015   6.385   6.544  1.1036  0.7690 -0.6361
18229TIP3   OH276177   5.534   4.969   4.478 -0.4545 -0.4967 -0.2257
18229TIP3    H176178   5.605   4.968   4.542 -0.9888 -1.5698  0.3730
18229TIP3    H276179   5.512   5.062   4.468  1.6230 -0.0427 -1.1158
18230TIP3   OH276180   2.757   0.869   4.539 -0.1416  0.5212  0.4164
18230TIP3    H176181   2.835   0.912   4.575  0.2016  0.4680 -0.2300
18230TIP3    H276182   2.780   0.776   4.538  0.1061  0.5720 -0.4734
18231TIP3   OH276183   1.673   5.846  16.367  0.8850  0.4940 -0.2880
18231TIP3    H176184   1.695   5.925  16.416 -1.8980  0.1214  1.7937
18231TIP3    H276185   1.606   5.875  16.304  0.9811  0.0485 -0.5990
18232TIP3   OH276186   1.154   6.349  13.717  0.1777 -0.1184 -0.0942
18232TIP3    H176187   1.138   6.359  13.810  0.0006 -1.0288 -0.0215
18232TIP3    H276188   1.187   6.434  13.689 -1.0559  0.5844  0.5208
18233TIP3   OH276189   2.692   2.575   2.727  0.8081 -0.1950  0.0723
18233TIP3    H176190   2.699   2.482   2.707 -0.9625 -0.3251 -0.1347
18233TIP3    H276191   2.705   2.619   2.643  1.5353 -0.2475  0.1511
18234TIP3   OH276192   0.227   2.610   4.855 -0.3815  0.5936 -0.2737
18234TIP3    H176193   0.261   2.700   4.858  3.0287 -0.5945  1.4542
18234TIP3    H276194   0.265   2.573   4.775 -1.0608  0.3907 -0.5121
18235TIP3   OH276195   5.378   0.374   2.373 -0.3387  0.5725  0.3098
18235TIP3    H176196   5.411   0.299   2.325 -0.6991  0.5469  0.0967
18235TIP3    H276197   5.417   0.450   2.329 -0.0078  0.5104  0.4994
18236TIP3   OH276198   2.691   6.400   4.240  0.0916 -0.6377 -0.2267
18236TIP3    H176199   2.669   6.468   4.304  1.4639  0.4384 -0.8604
18236TIP3    H276200   2.653   6.430   4.158  3.3662  1.0854 -1.2631
18237TIP3   OH276201   6.423   5.087  16.873  0.3942  0.0497 -0.2804
18237TIP3    H176202   6.468   5.029  16.934 -1.1706 -1.2152 -0.2889
18237TIP3    H276203   6.345   5.115  16.920 -0.1514  0.1232 -1.2139
18238TIP3   OH276204   0.941   0.812  13.634 -0.1074  0.7585  0.5420
18238TIP3    H176205   0.927   0.785  13.725 -0.5441  0.5303  0.4096
18238TIP3    H276206   1.036   0.821  13.626 -0.1552  2.8587  1.6304
18239TIP3   OH276207   0.078   4.559   0.801 -0.0730  0.0607 -0.6428
18239TIP3    H176208   0.090   4.465   0.814  1.3995  0.3894  0.7296
18239TIP3    H276209   0.166   4.593   0.788 -0.0144  1.7042  2.7426
18240TIP3   OH276210   5.727   6.559   5.592 -0.6252  0.2742  0.5341
18240TIP3    H176211   5.724   6.629   5.656  1.8653  0.5485  0.4177
18240TIP3    H276212   5.793   6.586   5.528 -2.2362 -0.4888 -1.5851
18241TIP3   OH276213   5.942   3.849  12.050  0.2938 -0.3164  0.0013
18241TIP3    H176214   5.944   3.942  12.026 -0.0519 -0.4880 -0.7001
18241TIP3    H276215   5.982   3.804  11.976 -0.3118 -0.8039 -0.0313
18242TIP3   OH276216   2.937   2.221   1.660  0.1792 -0.6855  0.0575
18242TIP3    H176217   2.902   2.132   1.657 -0.2656 -0.5347  0.6339
18242TIP3    H276218   2.992   2.222   1.739  0.2175 -0.4627  0.0268
18243TIP3   OH276219   5.532   0.510   2.073 -0.0033  0.1531 -0.4530
18243TIP3    H176220   5.527   0.544   1.983 -2.1877  0.6278 -0.2265
18243TIP3    H276221   5.482   0.428   2.070 -0.2417  0.2632  0.3385
18244TIP3   OH276222   0.182   2.903   4.864 -0.0117  0.3290 -0.2008
18244TIP3    H176223   0.125   2.883   4.938  0.4804  1.3233  0.4657
18244TIP3    H276224   0.128   2.958   4.807  0.3041  1.4207  0.5172
18245TIP3   OH276225   1.604   0.154   3.210 -0.3057  1.0049 -0.3956
18245TIP3    H176226   1.570   0.240   3.185 -0.5902  0.6364 -1.3183
18245TIP3    H276227   1.683   0.143   3.157  0.1097  0.9808  0.2209
18246TIP3   OH276228   0.343   3.154   4.058  0.1454  0.0048 -0.0524
18246TIP3    H176229   0.294   3.119   4.133  0.8454 -0.5934  0.1326
18246TIP3    H276230   0.374   3.240   4.088 -1.7986  0.9596 -0.6017
18247TIP3   OH276231   4.449   5.845   2.161  0.4002  0.0698  0.0681
18247TIP3    H176232   4.407   5.772   2.117 -0.1187  0.7440 -0.5818
18247TIP3    H276233   4.481   5.809   2.243  0.1149 -0.8697 -0.2267
18248TIP3   OH276234   5.387   0.678   3.424  0.5499 -0.0707 -0.4003
18248TIP3    H176235   5.335   0.758   3.427  3.3494  1.9017  0.2405
18248TIP3    H276236   5.408   0.665   3.332 -0.9706 -0.8878 -0.6624
18249TIP3   OH276237   2.305   3.325  14.528 -0.2804 -0.3124 -0.0953
18249TIP3    H176238   2.355   3.269  14.588 -1.6421 -0.7665  0.6473
18249TIP3    H276239   2.299   3.409  14.573  0.6623  0.0628 -0.6411
18250TIP3   OH276240   5.667   4.382   1.404 -0.0256 -0.2268 -0.2638
18250TIP3    H176241   5.611   4.390   1.326 -0.9706 -1.9792  0.1560
18250TIP3    H276242   5.700   4.292   1.399 -0.0896 -0.3603  1.3222
18251TIP3   OH276243   2.160   5.139   4.378  0.0302 -0.0019  0.5091
18251TIP3    H176244   2.150   5.175   4.466  3.1768 -1.6364  1.6968
18251TIP3    H276245   2.236   5.185   4.341 -0.1113 -0.6328 -0.6293
18252TIP3   OH276246   4.191   5.695  12.956 -0.1891  0.5401 -0.0083
18252TIP3    H176247   4.179   5.789  12.948 -0.9508  0.3918 -0.8072
18252TIP3    H276248   4.209   5.666  12.866  0.4203 -0.0298  0.2885
18253TIP3   OH276249   5.231   0.242   5.804 -0.3179 -0.4132 -0.4760
18253TIP3    H176250   5.169   0.304   5.843  0.6968  0.5852 -0.3669
18253TIP3    H276251   5.214   0.159   5.848  0.5591  0.5937  1.9347
18254TIP3   OH276252   4.104   4.561  12.145 -0.1708 -0.7019 -0.0906
18254TIP3    H176253   4.027   4.505  12.136 -0.4608 -0.2112 -0.7560
18254TIP3    H276254   4.090   4.631  12.082  1.3743 -1.2003 -1.0331
18255TIP3   OH276255   6.626   6.725   5.332  0.3401 -0.5244  0.6214
18255TIP3    H176256   6.710   6.693   5.364  2.2061  1.7332 -1.5700
18255TIP3    H276257   6.625   6.818   5.355 -0.9385 -0.2053 -0.5351
18256TIP3   OH276258   6.244   3.923  16.037  0.0303  0.0182  0.0020
18256TIP3    H176259   6.197   3.881  16.110  0.4273 -0.4656 -0.0162
18256TIP3    H276260   6.197   3.893  15.959 -1.1387  1.4908  0.1095
18257TIP3   OH276261   3.953   4.933  17.083 -1.0684  0.3011  0.2160
18257TIP3    H176262   3.894   4.865  17.115 -1.1321  0.3061  0.1103
18257TIP3    H276263   4.036   4.916  17.128 -0.9611 -0.1045 -0.1283
18258TIP3   OH276264   5.922   4.733  12.600 -0.0410 -0.0532  0.3795
18258TIP3    H176265   5.911   4.749  12.506  1.0148  0.5557  0.3420
18258TIP3    H276266   5.837   4.701  12.629 -1.1399  2.0242 -0.3184
18259TIP3   OH276267   0.753   6.101   2.587 -0.0602 -0.3970  0.1191
18259TIP3    H176268   0.824   6.165   2.576  0.8023 -1.0444  1.5705
18259TIP3    H276269   0.677   6.153   2.612 -0.6510  0.5059 -3.1579
18260TIP3   OH276270   0.697   4.773   0.360 -0.2758 -0.8333 -0.0264
18260TIP3    H176271   0.760   4.766   0.289 -1.6245  0.0997 -1.3852
18260TIP3    H276272   0.696   4.686   0.400  1.4083 -1.0352 -0.3225
18261TIP3   OH276273   1.336   6.016  13.202 -0.2825 -0.8910  0.2368
18261TIP3    H176274   1.427   6.002  13.176 -0.0829  1.6944 -0.6605
18261TIP3    H276275   1.341   6.083  13.270 -1.5439 -0.5380 -0.0055
18262TIP3   OH276276   1.420   3.382   4.116 -0.2980  0.3462 -0.2485
18262TIP3    H176277   1.455   3.339   4.194 -0.3916  1.3160  0.3514
18262TIP3    H276278   1.386   3.466   4.148 -3.0642 -0.4536 -0.7986
18263TIP3   OH276279   3.603   4.288   3.665  0.5429 -0.1340 -0.2055
18263TIP3    H176280   3.591   4.322   3.576  1.6974 -0.5121 -0.5296
18263TIP3    H276281   3.691   4.318   3.690  0.7233 -1.0604  0.3259
18264TIP3   OH276282   1.482   1.091  17.200  0.2263 -0.1077  0.2325
18264TIP3    H176283   1.555   1.116  17.144  1.7943 -0.5771  1.9681
18264TIP3    H276284   1.409   1.146  17.171  1.6341  1.3842 -0.6375
18265TIP3   OH276285   0.484   3.361  16.975  0.2192  0.8717 -0.4601
18265TIP3    H176286   0.392   3.343  16.997  0.5869  1.4384  1.7926
18265TIP3    H276287   0.490   3.457  16.973  1.3296  0.9684  2.5419
18266TIP3   OH276288   2.069   0.332   5.555 -0.6144  0.0654 -0.0378
18266TIP3    H176289   2.081   0.304   5.646 -0.1182  0.0321 -0.1140
18266TIP3    H276290   2.088   0.426   5.556  0.8695 -0.2154 -0.3854
18267TIP3   OH276291   1.991   0.379  16.592  1.1018  0.4969  0.1712
18267TIP3    H176292   2.048   0.425  16.653  0.5112 -0.4659  1.4838
18267TIP3    H276293   1.976   0.293  16.632 -2.0889  1.0577  0.4245
18268TIP3   OH276294   2.388   6.198   1.514  0.1642  0.4268  0.0491
18268TIP3    H176295   2.371   6.109   1.543  1.8332 -0.7969 -2.3956
18268TIP3    H276296   2.317   6.250   1.551 -0.7140 -1.8565  1.7335
18269TIP3   OH276297   6.488   4.542   0.339 -0.0764  0.3986  0.2771
18269TIP3    H176298   6.506   4.613   0.401  1.4873 -1.3927  2.0025
18269TIP3    H276299   6.432   4.482   0.387  0.8348 -0.8398 -0.1484
18270TIP3   OH276300   0.294   5.145  17.149  0.1993  0.1112 -0.2155
18270TIP3    H176301   0.363   5.103  17.098  0.0355 -0.0927 -0.2674
18270TIP3    H276302   0.214   5.126  17.101  0.2873  1.7717 -1.0860
18271TIP3   OH276303   6.660   5.016   2.372 -0.0155  0.1667  0.7412
18271TIP3    H176304   6.597   4.947   2.349  2.2972 -1.7490 -0.2854
18271TIP3    H276305   6.721   4.973   2.432  0.7513  1.7476  1.1355
18272TIP3   OH276306   2.510   2.965   3.998  0.4307  0.0229 -0.1471
18272TIP3    H176307   2.424   2.923   4.001  0.3813  0.0012 -1.4273
18272TIP3    H276308   2.534   2.975   4.090 -1.4840  1.1837  0.2947
18273TIP3   OH276309   3.016   4.414   5.359  0.1881 -0.0060  0.3377
18273TIP3    H176310   2.940   4.403   5.417  0.3880  1.8797  1.0104
18273TIP3    H276311   3.051   4.500   5.380 -0.7265  1.5987 -3.7325
18274TIP3   OH276312   5.968   4.944  11.105  0.5779  0.7802  0.4846
18274TIP3    H176313   5.949   5.032  11.139 -0.2846  0.1171  1.7527
18274TIP3    H276314   5.896   4.926  11.045 -0.0092  0.3802  1.2993
18275TIP3   OH276315   4.992   3.803   6.266 -0.5143  0.5116  0.8438
18275TIP3    H176316   4.964   3.894   6.262 -1.9009  0.0562 -1.4172
18275TIP3    H276317   5.084   3.804   6.241 -0.9913  1.1511 -1.0133
18276TIP3   OH276318   3.789   6.149  10.739  0.1511  0.4394 -0.1459
18276TIP3    H176319   3.834   6.230  10.716  0.1622  0.7152  0.8265
18276TIP3    H276320   3.781   6.152  10.834  0.5639 -0.9125 -0.0464
18277TIP3   OH276321   5.497   3.507  12.449 -0.1437 -0.2038 -0.3638
18277TIP3    H176322   5.501   3.602  12.443 -1.9496 -0.0478  0.3870
18277TIP3    H276323   5.436   3.490  12.521 -0.7876 -1.9257 -1.2661
18278TIP3   OH276324   1.947   3.044  16.429 -0.4276  0.1410  0.2720
18278TIP3    H176325   1.852   3.058  16.431 -0.1710  2.3217  2.5910
18278TIP3    H276326   1.984   3.132  16.437  1.7938 -0.7286  0.2419
18279TIP3   OH276327   5.607   0.674   5.804  0.3037 -0.3726 -0.2627
18279TIP3    H176328   5.513   0.657   5.804  0.6214 -2.4096  0.6170
18279TIP3    H276329   5.627   0.703   5.893  0.3330  1.3437 -0.8028
18280TIP3   OH276330   4.643   0.587   4.872 -0.6385 -0.1804  0.1727
18280TIP3    H176331   4.630   0.662   4.814  2.8165  1.2672  1.0367
18280TIP3    H276332   4.555   0.552   4.885 -2.1008  2.1748 -2.2544
18281TIP3   OH276333   6.779   2.469  16.718  0.5185  0.5835  0.0147
18281TIP3    H176334   6.740   2.459  16.805 -0.3382 -1.1620 -0.5371
18281TIP3    H276335   6.707   2.502  16.664  0.3010 -0.8654 -0.5985
18282TIP3   OH276336   5.426   1.715   2.505 -0.1025 -0.1152 -0.2626
18282TIP3    H176337   5.356   1.678   2.451 -0.4165  0.6478 -0.3921
18282TIP3    H276338   5.383   1.785   2.555 -0.0151 -1.3324  1.6136
18283TIP3   OH276339   6.797   2.528  12.632  0.8876  0.4008  0.1962
18283TIP3    H176340   6.840   2.450  12.667  0.3014 -0.2833 -0.5905
18283TIP3    H276341   6.840   2.601  12.677  1.0690 -0.3942  1.3406
18284TIP3   OH276342   6.662   1.267   3.404  0.1350  0.3544 -0.3156
18284TIP3    H176343   6.577   1.253   3.362  0.4978 -1.0404 -0.6495
18284TIP3    H276344   6.725   1.254   3.333  0.6378  1.3812 -0.0683
18285TIP3   OH276345   6.300   4.131   5.205 -0.3123  0.2701  0.0225
18285TIP3    H176346   6.321   4.046   5.243 -1.0604 -0.9295 -2.1166
18285TIP3    H276347   6.341   4.194   5.264  0.0255 -1.5283  1.8276
18286TIP3   OH276348   1.471   5.536   1.845  0.1181 -0.0690 -0.3328
18286TIP3    H176349   1.504   5.522   1.756  0.4600  1.0536 -0.3966
18286TIP3    H276350   1.389   5.584   1.833  0.3331  0.3760 -0.0282
18287TIP3   OH276351   2.249   3.407   2.600  0.3415  0.5349 -0.2691
18287TIP3    H176352   2.203   3.351   2.538  0.7552  0.3872 -0.4510
18287TIP3    H276353   2.328   3.357   2.622  0.7070  1.0420 -0.4159
18288TIP3   OH276354   3.887   2.397  12.094 -0.2672 -0.4272 -0.0080
18288TIP3    H176355   3.862   2.317  12.139 -0.0927 -1.7406 -2.0868
18288TIP3    H276356   3.806   2.446  12.083 -0.1557  0.4782  2.5970
18289TIP3   OH276357   4.687   2.622   0.757  0.1757  0.2529  0.2645
18289TIP3    H176358   4.611   2.612   0.815  1.0617 -0.9700  1.2707
18289TIP3    H276359   4.753   2.664   0.812  0.2216  1.3977 -0.6388
18290TIP3   OH276360   0.240   1.712  16.096  0.6790 -0.1282 -0.2558
18290TIP3    H176361   0.176   1.754  16.154 -0.2462 -1.8756  0.0613
18290TIP3    H276362   0.297   1.783  16.067 -0.5033  1.2331  0.6435
18291TIP3   OH276363   1.856   2.739  10.412 -0.4696 -0.7154 -0.3133
18291TIP3    H176364   1.922   2.690  10.461 -1.1923 -1.3125  0.0584
18291TIP3    H276365   1.791   2.764  10.477  0.4766  1.8338 -0.2282
18292TIP3   OH276366   1.731   0.062  13.102 -0.3523  0.1221  0.6658
18292TIP3    H176367   1.705   0.022  13.185 -1.1559  0.2823  0.5018
18292TIP3    H276368   1.648   0.083  13.059  0.0544  0.9577  0.2689
18293TIP3   OH276369   0.344   1.103   5.358  0.4630  0.1948 -0.0345
18293TIP3    H176370   0.438   1.122   5.365  0.2718  0.8776  0.8520
18293TIP3    H276371   0.337   1.010   5.380  1.1640 -0.4756 -2.3103
18294TIP3   OH276372   5.441   4.415   3.767 -0.0039  0.0490 -0.4526
18294TIP3    H176373   5.456   4.323   3.745 -1.1108  0.0277 -1.1783
18294TIP3    H276374   5.405   4.412   3.856 -0.6393 -0.2829 -0.7116
18295TIP3   OH276375   2.140   1.683   3.267  0.5715  0.2112  0.4443
18295TIP3    H176376   2.065   1.634   3.232 -0.3743  0.5633  1.8897
18295TIP3    H276377   2.143   1.763   3.216  0.8132 -0.4028 -0.5241
18296TIP3   OH276378   2.537   3.648  12.174  0.1213 -0.7791  0.4189
18296TIP3    H176379   2.570   3.709  12.240 -0.5565  0.7821 -0.6310
18296TIP3    H276380   2.468   3.599  12.218 -0.6124  0.5439  0.7745
18297TIP3   OH276381   6.683   3.904   3.612 -0.4074  0.4212  0.3962
18297TIP3    H176382   6.692   3.998   3.601 -3.0706  0.9147  1.5185
18297TIP3    H276383   6.700   3.889   3.705 -1.3137  0.0302  0.5120
18298TIP3   OH276384   1.469   6.094  16.448 -0.0940  1.0065 -0.3312
18298TIP3    H176385   1.558   6.111  16.478  0.4031  0.5399 -1.4812
18298TIP3    H276386   1.480   6.057  16.360 -1.2147 -2.1925  0.7202
18299TIP3   OH276387   2.282   5.136  12.846 -0.4092 -0.1450 -0.7297
18299TIP3    H176388   2.351   5.200  12.864 -1.0026 -0.1355  2.0587
18299TIP3    H276389   2.276   5.132  12.751  1.3908  2.0313 -1.0084
18300TIP3   OH276390   2.502   1.919  12.151 -0.5556  0.2048 -0.4497
18300TIP3    H176391   2.499   1.965  12.235 -3.0084 -1.1306  0.3041
18300TIP3    H276392   2.433   1.960  12.098  0.2385  0.3169 -1.4380
18301TIP3   OH276393   2.777   0.323  15.587 -0.8433 -0.0075  0.3020
18301TIP3    H176394   2.826   0.325  15.669 -0.3492 -1.8934  0.0801
18301TIP3    H276395   2.707   0.260  15.602 -2.4014  1.5874  0.1263
18302TIP3   OH276396   1.527   1.925   1.837  0.1359  0.0579  0.2336
18302TIP3    H176397   1.481   1.888   1.912 -1.5586  0.9661 -0.3163
18302TIP3    H276398   1.564   1.850   1.792  0.3085 -0.5841  1.4022
18303TIP3   OH276399   5.715   0.846  12.515 -0.0788  0.6555 -0.2058
18303TIP3    H176400   5.701   0.941  12.516  0.4218  0.7348 -0.3052
18303TIP3    H276401   5.656   0.814  12.446 -0.4760  0.8529  0.0394
18304TIP3   OH276402   0.434   2.809   3.154  0.0028  0.1783 -0.1608
18304TIP3    H176403   0.360   2.819   3.214 -0.0857 -0.0016 -0.2440
18304TIP3    H276404   0.413   2.734   3.100  0.5138 -0.2433  0.2124
18305TIP3   OH276405   4.519   2.821  16.455 -0.2129  0.5078 -0.1754
18305TIP3    H176406   4.577   2.802  16.528 -0.8134 -1.4536 -0.1638
18305TIP3    H276407   4.546   2.761  16.386 -2.9442 -1.3547  0.2370
18306TIP3   OH276408   2.915   5.519   4.743 -0.1120 -0.3415  0.3282
18306TIP3    H176409   2.989   5.533   4.684 -0.5360 -0.8846 -0.3446
18306TIP3    H276410   2.844   5.489   4.686 -0.2448 -1.8379  1.2349
18307TIP3   OH276411   5.943   2.053  13.435 -0.1607  0.3827  0.3608
18307TIP3    H176412   5.903   2.047  13.522 -0.1202  0.9010  0.4228
18307TIP3    H276413   6.037   2.041  13.451 -0.0733  1.1789  0.4893
18308TIP3   OH276414   3.408   2.824   0.260  0.3535 -0.4866 -0.6358
18308TIP3    H176415   3.399   2.792   0.350  1.5800 -0.2530 -0.4149
18308TIP3    H276416   3.475   2.768   0.221  1.2952  0.6973 -0.7725
18309TIP3   OH276417   3.091   2.193  12.961  0.3298  0.2068 -0.1933
18309TIP3    H176418   3.081   2.282  12.993  0.9557 -0.2468  1.4037
18309TIP3    H276419   3.169   2.160  13.007 -2.1324 -2.4522  2.5503
18310TIP3   OH276420   1.872   5.174   2.266 -0.4234 -0.2167 -0.7162
18310TIP3    H176421   1.929   5.249   2.247 -1.8447  0.8182 -1.0659
18310TIP3    H276422   1.788   5.213   2.287 -0.0794 -1.4284  4.0221
18311TIP3   OH276423   4.002   5.394  16.294 -0.1866  0.2102 -0.0229
18311TIP3    H176424   4.004   5.420  16.202 -0.6470 -0.5207 -0.2407
18311TIP3    H276425   3.961   5.468  16.339 -0.1960  0.4577 -0.4344
18312TIP3   OH276426   0.658   3.683   5.672 -0.5227  0.2127 -0.1926
18312TIP3    H176427   0.624   3.773   5.676  1.2426  1.0048 -1.2777
18312TIP3    H276428   0.714   3.675   5.749 -1.7710 -0.4702  0.6579
18313TIP3   OH276429   0.647   4.398   4.051 -0.2269  0.3503 -0.4526
18313TIP3    H176430   0.626   4.469   4.112 -0.8272  0.2217 -0.5046
18313TIP3    H276431   0.577   4.334   4.064  1.7174 -1.5776  1.6481
18314TIP3   OH276432   0.911   5.045  13.596  0.1269  0.4103 -0.3862
18314TIP3    H176433   0.835   4.998  13.562  0.1775  0.5315 -0.6732
18314TIP3    H276434   0.882   5.136  13.602  0.3115  0.4950 -0.7009
18315TIP3   OH276435   1.120   3.671  12.057  0.4613 -0.3775  0.1617
18315TIP3    H176436   1.084   3.717  11.981  1.9783  0.4871 -0.0765
18315TIP3    H276437   1.059   3.691  12.128 -0.5755 -0.5797 -0.6554
18316TIP3   OH276438   0.720   3.860  12.404  0.0460 -0.5442  0.5650
18316TIP3    H176439   0.700   3.941  12.451 -1.5042  0.5986 -1.8750
18316TIP3    H276440   0.634   3.826  12.378  0.7996 -1.6846 -0.5246
18317TIP3   OH276441   5.189   6.755  11.015  0.2711  0.3003 -0.0801
18317TIP3    H176442   5.260   6.701  10.981  1.2555  1.6472 -0.2620
18317TIP3    H276443   5.120   6.748  10.949 -0.1358 -1.6832  0.4968
18318TIP3   OH276444   1.567   3.719  12.281  0.0590  0.1702  0.0965
18318TIP3    H176445   1.519   3.796  12.309  1.5819  1.7026 -1.2658
18318TIP3    H276446   1.500   3.658  12.250 -1.0849  1.8343 -0.8322
18319TIP3   OH276447   1.767   1.649  14.443 -0.0630 -0.0105  0.2518
18319TIP3    H176448   1.819   1.625  14.366 -0.2495 -0.1874  0.1797
18319TIP3    H276449   1.736   1.565  14.478  0.5363  0.0221  0.8847
18320TIP3   OH276450   1.897   5.096  16.683  0.4297  0.4130  0.2515
18320TIP3    H176451   1.964   5.139  16.737  1.2872 -0.9987  0.3539
18320TIP3    H276452   1.862   5.027  16.738  0.3142 -0.1544 -0.5162
18321TIP3   OH276453   1.378   3.318   6.133  0.3664 -0.2493  0.2013
18321TIP3    H176454   1.301   3.342   6.082 -0.8598  0.3715  2.2229
18321TIP3    H276455   1.409   3.400   6.171  1.7681 -0.5646 -0.1829
18322TIP3   OH276456   1.955   4.074   2.540  0.3774 -0.1510  0.0742
18322TIP3    H176457   2.015   4.000   2.552  1.7746  1.0084  0.6075
18322TIP3    H276458   1.981   4.112   2.456 -0.9210 -0.7536 -0.6240
18323TIP3   OH276459   1.221   1.106   3.265  0.0136 -0.8617  0.3378
18323TIP3    H176460   1.215   1.099   3.360  1.4148  0.2915  0.5431
18323TIP3    H276461   1.315   1.111   3.247 -0.2659  0.6286 -0.9482
18324TIP3   OH276462   4.538   3.441   2.803 -0.2285  0.0876  0.6007
18324TIP3    H176463   4.449   3.411   2.822 -0.5210  0.3226 -0.3444
18324TIP3    H276464   4.589   3.360   2.794 -0.0106 -0.0410  2.5289
18325TIP3   OH276465   0.481   4.830   1.047 -0.5824  0.2354 -0.1040
18325TIP3    H176466   0.536   4.752   1.053 -1.6729 -0.6551 -1.0858
18325TIP3    H276467   0.538   4.902   1.073  0.4366 -0.8901  0.9040
18326TIP3   OH276468   4.811   1.180   0.549  0.8039  0.3382 -0.1145
18326TIP3    H176469   4.733   1.125   0.540  0.2363  0.8949  1.0549
18326TIP3    H276470   4.859   1.168   0.468  0.4897 -1.5466 -0.0584
18327TIP3   OH276471   3.947   0.751   5.667 -0.0592 -0.3154  0.2219
18327TIP3    H176472   4.008   0.790   5.605 -1.2434  1.2180 -0.0377
18327TIP3    H276473   3.977   0.781   5.753 -1.3896  1.9510 -0.0173
18328TIP3   OH276474   0.510   1.880  14.830  0.4684 -0.1326 -0.2600
18328TIP3    H176475   0.460   1.956  14.858  2.1408  1.1987 -0.7016
18328TIP3    H276476   0.450   1.830  14.776 -0.4930  1.1836 -0.4544
18329TIP3   OH276477   6.151   6.728   3.627  0.2425 -0.0237  0.4151
18329TIP3    H176478   6.201   6.801   3.592 -2.8846  1.4241 -1.5097
18329TIP3    H276479   6.094   6.767   3.694 -0.9027 -0.7900 -0.0688
18330TIP3   OH276480   3.332   1.609   3.390  0.6741  0.1049 -0.3625
18330TIP3    H176481   3.348   1.556   3.313 -1.1271 -2.6146  0.9901
18330TIP3    H276482   3.376   1.563   3.461 -1.2929  0.0653  0.9330
18331TIP3   OH276483   5.224   5.282  16.617 -0.2918  0.0164  0.3196
18331TIP3    H176484   5.205   5.364  16.573  1.0854  0.1948  0.0211
18331TIP3    H276485   5.312   5.258  16.587 -0.0127 -0.7284  1.6543
18332TIP3   OH276486   6.190   2.879   0.396 -0.2016 -0.5609  0.5113
18332TIP3    H176487   6.097   2.869   0.377 -0.5051  1.4267  0.7681
18332TIP3    H276488   6.221   2.789   0.408 -2.0724 -1.2695  0.4467
18333TIP3   OH276489   5.263   0.844   2.012  0.0701  0.6683  0.6109
18333TIP3    H176490   5.231   0.809   1.929 -1.9317  1.2185  1.0723
18333TIP3    H276491   5.270   0.767   2.069  2.1067  0.1953 -0.2086
18334TIP3   OH276492   1.229   3.220   4.927 -0.8751 -0.0265 -0.8041
18334TIP3    H176493   1.159   3.279   4.952 -0.6772 -0.1801  0.1641
18334TIP3    H276494   1.309   3.272   4.938 -0.7854 -0.0931 -1.1393
18335TIP3   OH276495   4.787   5.596   2.560  0.3663  0.0201  0.2619
18335TIP3    H176496   4.694   5.596   2.582  0.3139  0.4536  0.0507
18335TIP3    H276497   4.818   5.509   2.585 -1.0393 -1.8165 -3.5200
18336TIP3   OH276498   1.291   5.082   4.337  0.0646  0.4788  0.4451
18336TIP3    H176499   1.247   5.021   4.395  1.8040  0.0151  1.3538
18336TIP3    H276500   1.220   5.133   4.297 -1.4858 -2.2167 -0.5236
18337TIP3   OH276501   2.987   6.218  13.259  0.0731 -0.0683 -0.2380
18337TIP3    H176502   3.068   6.199  13.307 -0.1045 -1.0200 -0.2947
18337TIP3    H276503   2.927   6.253  13.324 -0.0587 -1.0465  0.1800
18338TIP3   OH276504   6.604   3.003   3.761  0.5865  0.3103  0.2834
18338TIP3    H176505   6.663   2.964   3.825 -0.4290 -1.2592  0.3346
18338TIP3    H276506   6.655   3.008   3.680  1.2044  0.2608  0.6701
18339TIP3   OH276507   6.646   2.939  17.195  0.4031  0.5403 -0.3599
18339TIP3    H176508   6.659   2.964  17.104  0.2412 -0.3310 -0.6337
18339TIP3    H276509   6.710   2.870  17.210  0.1138  0.3582  0.0519
18340TIP3   OH276510   0.232   4.580  14.986 -0.4727  0.5870 -0.3781
18340TIP3    H176511   0.150   4.576  15.034 -0.7198 -0.7080 -0.8900
18340TIP3    H276512   0.244   4.493  14.950  1.5106  0.5086  0.3131
18341TIP3   OH276513   6.265   3.774   2.636 -0.0902 -0.1050 -0.3078
18341TIP3    H176514   6.299   3.843   2.578 -0.1431  0.9516  0.8761
18341TIP3    H276515   6.336   3.710   2.642  1.0036  1.1440  0.6429
18342TIP3   OH276516   4.479   5.905  16.754 -0.0923 -0.1071 -0.2616
18342TIP3    H176517   4.543   5.874  16.690 -0.7453 -1.4048 -0.3235
18342TIP3    H276518   4.454   5.992  16.723  0.6828 -0.1257 -0.9577
18343TIP3   OH276519   1.775   2.455   2.303  0.4813  0.1200 -0.0069
18343TIP3    H176520   1.760   2.490   2.216 -1.3627 -0.0331  0.2025
18343TIP3    H276521   1.694   2.474   2.351  0.7241 -1.4351  1.1070
18344TIP3   OH276522   6.310   2.863  15.813  0.6064 -0.4143  0.4507
18344TIP3    H176523   6.250   2.936  15.796  1.0921 -0.2653 -0.7642
18344TIP3    H276524   6.312   2.855  15.908 -1.3331 -0.4303  0.5364
18345TIP3   OH276525   3.291   4.989  12.241  0.1951 -0.1574 -0.5508
18345TIP3    H176526   3.329   5.077  12.240  1.3040 -0.6192 -1.3636
18345TIP3    H276527   3.214   4.995  12.185  0.3426  0.2760 -0.7093
18346TIP3   OH276528   0.419   0.762   0.153  0.4128  0.4023  0.9798
18346TIP3    H176529   0.500   0.780   0.105  0.8147  1.0077  1.8580
18346TIP3    H276530   0.370   0.844   0.149  0.5631  0.5394  1.8089
18347TIP3   OH276531   5.682   3.325  15.004  0.3429 -0.0789 -0.0580
18347TIP3    H176532   5.770   3.360  14.989 -0.3740  2.0942  0.4602
18347TIP3    H276533   5.654   3.293  14.918  1.4867 -0.4776 -0.3014
18348TIP3   OH276534   2.617   1.805   5.834 -0.4980 -0.0046  0.6647
18348TIP3    H176535   2.551   1.856   5.880 -0.9827  1.2827 -1.3122
18348TIP3    H276536   2.662   1.756   5.903 -1.3002  1.6293  2.4558
18349TIP3   OH276537   2.243   5.665  10.754  0.3815 -0.3929  0.0892
18349TIP3    H176538   2.165   5.672  10.699 -0.2498  0.7389  1.0937
18349TIP3    H276539   2.210   5.633  10.838  1.1486 -0.8550  0.2231
18350TIP3   OH276540   1.966   3.639   2.441 -0.3019  0.8364  0.5115
18350TIP3    H176541   1.933   3.640   2.351  1.5800 -3.0451 -0.4665
18350TIP3    H276542   2.039   3.700   2.441  2.0871 -1.7449 -1.8947
18351TIP3   OH276543   1.613   6.518  14.591  0.0667 -0.2642  0.1874
18351TIP3    H176544   1.621   6.520  14.496  1.1907 -2.1258  0.1948
18351TIP3    H276545   1.551   6.588  14.611  0.7696  1.0078 -1.7915
18352TIP3   OH276546   4.006   3.151   2.984 -0.3065 -0.5588  0.0417
18352TIP3    H176547   3.936   3.103   3.029 -0.1378 -1.0533 -0.2199
18352TIP3    H276548   4.079   3.090   2.981  0.4222  0.2148  1.0155
18353TIP3   OH276549   0.875   6.103   6.203 -0.4216  0.3540  0.0071
18353TIP3    H176550   0.865   6.124   6.295 -0.7407  1.9198 -0.3573
18353TIP3    H276551   0.947   6.040   6.200 -0.2774  0.4361  1.2866
18354TIP3   OH276552   4.849   4.732  14.431  0.3651  0.1397 -0.2739
18354TIP3    H176553   4.766   4.773  14.407  0.5834  0.2652 -0.8190
18354TIP3    H276554   4.850   4.650  14.382 -0.4713 -0.9798  1.4665
18355TIP3   OH276555   3.569   3.230  10.768  0.0828  0.0696  0.1422
18355TIP3    H176556   3.642   3.183  10.809 -1.1041 -1.1232  0.9672
18355TIP3    H276557   3.501   3.164  10.758 -0.7592  1.0761 -0.9621
18356TIP3   OH276558   2.390   5.340  11.680 -0.2141  0.2375 -0.2162
18356TIP3    H176559   2.420   5.281  11.610 -0.0129  0.4208 -0.2865
18356TIP3    H276560   2.379   5.283  11.756  3.1904  0.5416  0.6928
18357TIP3   OH276561   6.674   2.245   2.778  0.3255 -0.0987  0.0552
18357TIP3    H176562   6.682   2.325   2.725 -1.5970  0.8259  1.0599
18357TIP3    H276563   6.727   2.263   2.856  1.6206 -0.6997 -0.6586
18358TIP3   OH276564   4.124   1.954  15.392  0.1669 -0.3727  0.3035
18358TIP3    H176565   4.085   1.976  15.477  0.7641  0.2994  0.4141
18358TIP3    H276566   4.050   1.924  15.339  0.0501 -2.4752  1.5808
18359TIP3   OH276567   0.966   4.311   3.207 -0.3084  1.1997  0.1390
18359TIP3    H176568   0.932   4.272   3.287  0.0581  0.3506 -0.1083
18359TIP3    H276569   0.895   4.367   3.175 -1.7857 -1.0279 -0.7322
18360TIP3   OH276570   0.306   6.742   3.803  0.7151 -0.4370  0.1874
18360TIP3    H176571   0.358   6.779   3.874 -0.8059 -0.2651  1.2671
18360TIP3    H276572   0.215   6.751   3.833  0.1264 -2.0208 -0.9903
18361TIP3   OH276573   2.880   1.719   6.658  0.4754  0.5665 -0.0584
18361TIP3    H176574   2.815   1.705   6.589  1.7825  0.5862 -1.3406
18361TIP3    H276575   2.850   1.664   6.730 -0.7619  0.2932 -0.7532
18362TIP3   OH276576   0.302   0.081  16.008 -0.1017 -0.1573 -0.1226
18362TIP3    H176577   0.280   0.163  16.053 -0.6336 -0.3957  0.0594
18362TIP3    H276578   0.309   0.106  15.916 -1.2245 -0.0810 -0.1990
18363TIP3   OH276579   4.160   2.519   6.481 -0.4197  0.4808 -0.1834
18363TIP3    H176580   4.161   2.470   6.563 -0.3908  1.8308  0.6491
18363TIP3    H276581   4.242   2.496   6.438 -0.5290 -0.4015  0.0507
18364TIP3   OH276582   5.881   4.207   1.130  0.0339  0.0734 -0.3266
18364TIP3    H176583   5.974   4.232   1.123  0.0471 -0.2762 -1.6717
18364TIP3    H276584   5.883   4.111   1.139 -0.2152 -0.0555 -1.4907
18365TIP3   OH276585   4.797   4.651  11.090  0.2304  0.5056  0.4548
18365TIP3    H176586   4.725   4.595  11.060  1.8625 -0.3544 -2.2333
18365TIP3    H276587   4.754   4.725  11.133 -2.2721  0.1030 -1.1499
18366TIP3   OH276588   4.598   6.480   0.738  0.1538  0.1068  0.2257
18366TIP3    H176589   4.629   6.535   0.666 -0.3057  1.5610  1.0936
18366TIP3    H276590   4.649   6.400   0.731  0.9614  0.6983 -0.9938
18367TIP3   OH276591   2.062   2.967  16.893  0.4907  0.2336  0.1978
18367TIP3    H176592   2.050   2.947  16.801 -0.9476  0.0848  0.3855
18367TIP3    H276593   2.140   3.023  16.896  2.7998 -2.6654 -0.6675
18368TIP3   OH276594   6.744   4.984   3.736  0.1906  0.0904  0.6108
18368TIP3    H176595   6.747   4.930   3.815 -2.9876 -1.7565 -0.3811
18368TIP3    H276596   6.709   5.068   3.766  0.4704 -0.0447  1.3574
18369TIP3   OH276597   2.540   4.744   0.449 -0.1728  0.0082  0.3061
18369TIP3    H176598   2.493   4.770   0.528  2.6402  1.8653  1.5161
18369TIP3    H276599   2.541   4.822   0.394 -0.3024 -0.6517 -0.6712
18370TIP3   OH276600   5.506   1.941  15.261 -0.5136  0.3062  0.4121
18370TIP3    H176601   5.484   1.957  15.169 -1.8379  0.5864  0.7504
18370TIP3    H276602   5.425   1.960  15.308 -0.2449 -1.0989  1.5175
18371TIP3   OH276603   4.205   5.336  12.873 -0.0437  0.2441  0.1680
18371TIP3    H176604   4.221   5.406  12.810 -1.9918  0.5092 -0.0757
18371TIP3    H276605   4.128   5.364  12.922  0.1643 -0.9474  1.2452
18372TIP3   OH276606   6.667   0.461  12.484  0.0871  0.3552 -0.2486
18372TIP3    H176607   6.704   0.387  12.532  0.2137 -0.1137 -1.0605
18372TIP3    H276608   6.601   0.497  12.543 -0.1549 -0.5555  0.0527
18373TIP3   OH276609   4.947   5.266   4.884  1.0096  0.2007  0.0769
18373TIP3    H176610   5.025   5.232   4.840  1.7405  1.1501  0.5771
18373TIP3    H276611   4.971   5.267   4.977 -0.6317 -2.1155  0.5928
18374TIP3   OH276612   6.664   2.221  11.025  0.0059  0.5992 -0.6441
18374TIP3    H176613   6.688   2.313  11.035 -2.5771  1.3159 -0.2952
18374TIP3    H276614   6.601   2.220  10.953 -1.2730 -0.5899  0.4202
18375TIP3   OH276615   3.795   1.886  14.378  0.9255 -0.1896  0.1541
18375TIP3    H176616   3.834   1.869  14.292  0.5994  0.5615 -0.1496
18375TIP3    H276617   3.742   1.964  14.365 -1.8370 -1.9439  0.1971
18376TIP3   OH276618   4.582   0.024  12.142  0.1081  0.2013  0.0883
18376TIP3    H176619   4.550   0.025  12.051  0.2759 -2.2798 -0.0642
18376TIP3    H276620   4.677   0.025  12.133  0.1292 -0.4203  0.2050
18377TIP3   OH276621   0.457   4.596  15.367 -0.3561 -0.2044  0.2600
18377TIP3    H176622   0.421   4.644  15.292 -0.3028 -0.5959 -0.0243
18377TIP3    H276623   0.551   4.609  15.361 -0.2170 -1.3463 -0.5526
18378TIP3   OH276624   3.484   0.995   4.484 -0.3390  0.2170 -0.1634
18378TIP3    H176625   3.507   1.047   4.561 -1.2190  0.2153  0.1079
18378TIP3    H276626   3.568   0.965   4.450  0.0836  0.5195  0.5888
18379TIP3   OH276627   4.283   0.060   1.318 -0.1190 -0.1599  0.5191
18379TIP3    H176628   4.288   0.146   1.276  2.5076 -0.6174 -0.2840
18379TIP3    H276629   4.361   0.057   1.374  0.3196 -2.3298 -0.1300
18380TIP3   OH276630   4.156   2.079   4.796  0.0026  0.0090  0.0742
18380TIP3    H176631   4.214   2.119   4.732 -0.7307  2.7332  1.0022
18380TIP3    H276632   4.197   2.097   4.881 -1.0800  0.0410  0.6057
18381TIP3   OH276633   6.272   1.951  15.924 -0.4944 -0.3033  0.0951
18381TIP3    H176634   6.339   2.016  15.946 -0.0318 -0.4463 -0.8396
18381TIP3    H276635   6.210   1.999  15.869 -1.2058 -0.1567  1.0068
18382TIP3   OH276636   3.087   5.905  17.143 -0.1606 -0.1429 -0.3355
18382TIP3    H176637   3.122   5.969  17.080  0.2092 -0.0720 -0.0605
18382TIP3    H276638   3.068   5.828  17.090 -0.5233  0.1637 -0.6563
18383TIP3   OH276639   4.497   2.630   3.654 -0.0157 -0.6297 -0.1956
18383TIP3    H176640   4.539   2.715   3.641  0.5727 -0.9764 -0.5939
18383TIP3    H276641   4.569   2.570   3.672 -0.5656 -0.6023  2.7237
18384TIP3   OH276642   6.076   6.107   0.380 -0.6256 -0.0848  0.6491
18384TIP3    H176643   6.102   6.104   0.472  0.3993 -0.6556  0.3554
18384TIP3    H276644   6.127   6.178   0.342  0.2694 -0.9749  0.1482
18385TIP3   OH276645   0.581   4.261   5.555 -0.0614  0.1171  0.7071
18385TIP3    H176646   0.508   4.323   5.553  0.6330  0.9500  0.8137
18385TIP3    H276647   0.606   4.250   5.463 -0.7379 -0.6911  0.6057
18386TIP3   OH276648   4.659   4.306   6.494  0.3607 -0.4621 -0.0573
18386TIP3    H176649   4.685   4.231   6.441 -2.1038 -1.7655  0.4321
18386TIP3    H276650   4.623   4.369   6.431 -1.0222 -1.3088 -0.1498
18387TIP3   OH276651   2.152   0.216  13.672  0.0918  0.1202  0.2159
18387TIP3    H176652   2.139   0.128  13.709  0.7987 -0.5484 -1.0555
18387TIP3    H276653   2.076   0.266  13.701 -0.3681 -0.9326  0.8812
18388TIP3   OH276654   6.584   2.225  11.801  0.4385 -0.3176 -0.2880
18388TIP3    H176655   6.648   2.282  11.843 -0.0456  0.3529 -0.4269
18388TIP3    H276656   6.506   2.280  11.791  0.0193 -0.9487 -0.6087
18389TIP3   OH276657   3.232   3.614   3.568  0.2547 -0.1789  0.0790
18389TIP3    H176658   3.178   3.689   3.595  0.6455  0.5813 -1.1363
18389TIP3    H276659   3.228   3.553   3.641  1.8733  2.0615  2.2222
18390TIP3   OH276660   5.344   4.221   5.336  0.2070 -0.7646 -0.5289
18390TIP3    H176661   5.359   4.280   5.410 -1.5242  0.6821 -1.2587
18390TIP3    H276662   5.277   4.160   5.366  0.6867 -1.2253 -0.3789
18391TIP3   OH276663   3.250   3.451  15.405  0.7205 -0.3837  1.0372
18391TIP3    H176664   3.155   3.458  15.421  0.8483  1.8854  1.1633
18391TIP3    H276665   3.275   3.367  15.443 -1.6260 -2.2390 -1.1450
18392TIP3   OH276666   3.409   4.026  10.917 -0.0215 -0.1665  0.3373
18392TIP3    H176667   3.434   3.962  10.850 -1.9218 -1.9543  1.2433
18392TIP3    H276668   3.383   4.103  10.868 -3.1163 -2.0232 -1.2053
18393TIP3   OH276669   2.190   0.456  14.619 -0.1355  0.2235 -0.1287
18393TIP3    H176670   2.140   0.537  14.609  1.1863  1.0798 -0.0733
18393TIP3    H276671   2.245   0.452  14.541 -1.6443 -1.7495 -1.1982
18394TIP3   OH276672   1.471   0.833  11.837  0.6392  0.6254  0.1023
18394TIP3    H176673   1.414   0.761  11.812  1.0628  0.2960  0.0745
18394TIP3    H276674   1.478   0.826  11.933  3.1613 -1.3049 -0.1150
18395TIP3   OH276675   0.322   5.369   2.665 -0.1820  0.0896  0.2465
18395TIP3    H176676   0.403   5.365   2.615 -1.1408  0.5915 -1.4178
18395TIP3    H276677   0.288   5.280   2.664 -0.2328  0.1121 -0.0628
18396TIP3   OH276678   1.350   2.395  14.229  0.1200 -0.0425  0.0436
18396TIP3    H176679   1.272   2.352  14.265  0.9736 -1.3597  0.4042
18396TIP3    H276680   1.333   2.401  14.135 -0.7321  0.4015  0.2128
18397TIP3   OH276681   5.212   1.832   4.013 -0.2270 -0.4730 -0.3631
18397TIP3    H176682   5.183   1.923   4.002  1.4673  0.2140  0.3967
18397TIP3    H276683   5.294   1.828   3.963 -0.0885 -1.4605 -0.0690
18398TIP3   OH276684   3.262   1.184  14.957  0.1689 -0.0325 -0.1061
18398TIP3    H176685   3.263   1.255  15.021  0.9701 -0.0396 -0.0966
18398TIP3    H276686   3.206   1.117  14.996  0.7369 -0.0836  0.6452
18399TIP3   OH276687   5.704   1.996   4.495 -0.1337  0.2235 -0.0903
18399TIP3    H176688   5.752   2.046   4.562  0.8017  0.5622 -0.9852
18399TIP3    H276689   5.613   1.998   4.525  0.1749  0.8459  0.8807
18400TIP3   OH276690   2.746   6.470  12.338 -0.0087 -0.4216  0.1481
18400TIP3    H176691   2.741   6.564  12.355  0.2067 -0.2476 -0.6757
18400TIP3    H276692   2.663   6.435  12.369 -0.7852  0.3052 -1.0248
18401TIP3   OH276693   1.546   2.050  15.501 -0.0926  0.0970 -0.1259
18401TIP3    H176694   1.577   2.078  15.415 -0.9379 -2.5206 -1.3807
18401TIP3    H276695   1.614   1.992  15.534  0.1918  1.0294  0.9716
18402TIP3   OH276696   4.009   0.754   2.171  0.1797  0.5750 -0.2664
18402TIP3    H176697   4.089   0.805   2.164  0.2658  0.4040 -0.5263
18402TIP3    H276698   3.947   0.813   2.214  0.1599  1.0254 -0.9057
18403TIP3   OH276699   1.646   5.107  14.559  0.5130 -0.2207 -0.0217
18403TIP3    H176700   1.567   5.161  14.557  0.0309 -0.9272 -1.3514
18403TIP3    H276701   1.684   5.123  14.645 -0.3270  1.2042  0.1117
18404TIP3   OH276702   1.511   3.054   2.630 -0.5739 -0.3631 -0.1206
18404TIP3    H176703   1.438   3.104   2.668 -0.8648  0.0140 -1.1564
18404TIP3    H276704   1.469   2.977   2.591 -0.4112 -0.1967 -0.6307
18405TIP3   OH276705   3.407   6.409   2.591 -0.0642 -0.0452  0.2366
18405TIP3    H176706   3.429   6.485   2.537 -0.3089  0.3152  0.6402
18405TIP3    H276707   3.475   6.406   2.658  0.2919 -0.5464 -0.1371
18406TIP3   OH276708   2.081   5.830   4.709 -0.1579 -0.2263  0.1069
18406TIP3    H176709   2.022   5.904   4.724  0.4827  0.5004 -0.8274
18406TIP3    H276710   2.061   5.800   4.621  2.0054  1.1778 -0.9665
18407TIP3   OH276711   1.798   1.925   0.026  0.5150 -0.6203 -0.1025
18407TIP3    H176712   1.796   2.008   0.074  3.2127 -1.3853  1.5421
18407TIP3    H276713   1.726   1.874   0.062  0.6200 -0.0496  0.9386
18408TIP3   OH276714   0.232   2.100  13.214 -0.4657  0.5928  0.1134
18408TIP3    H176715   0.313   2.147  13.197  0.4240 -0.6631  0.6913
18408TIP3    H276716   0.220   2.106  13.309 -1.6110  1.6247 -0.0773
18409TIP3   OH276717   1.514   2.563  12.215  0.4366 -0.3045 -0.6168
18409TIP3    H176718   1.477   2.644  12.179 -0.9923 -0.6020  0.1117
18409TIP3    H276719   1.469   2.493  12.167 -0.9581 -0.6965  1.1588
18410TIP3   OH276720   5.949   0.290   5.178 -0.2724 -0.0720 -0.7131
18410TIP3    H176721   5.912   0.281   5.090 -0.5483  0.0792 -0.6160
18410TIP3    H276722   5.883   0.340   5.226  0.1536  0.3756 -0.5912
18411TIP3   OH276723   0.385   0.634  16.656  0.5260  0.1453 -0.7122
18411TIP3    H176724   0.373   0.721  16.619 -1.8038 -0.3367 -1.2419
18411TIP3    H276725   0.308   0.621  16.712  1.2879 -1.2326  0.0672
18412TIP3   OH276726   1.541   5.702  13.968  0.1235  0.2032 -0.0102
18412TIP3    H176727   1.472   5.714  14.034  0.5157  1.5636  0.1878
18412TIP3    H276728   1.602   5.774  13.985 -0.0872  0.9927 -2.2578
18413TIP3   OH276729   5.737   5.438   4.609  0.4766  0.2542  0.1388
18413TIP3    H176730   5.704   5.394   4.687  1.6751 -0.3099  0.3443
18413TIP3    H276731   5.668   5.501   4.586  1.2608  2.5654  3.3828
18414TIP3   OH276732   5.417   0.025  15.003  0.7626 -0.4712  0.5326
18414TIP3    H176733   5.426  -0.038  14.931  0.1235 -0.8216  0.7602
18414TIP3    H276734   5.410   0.110  14.959  0.9204 -0.6253  0.2044
18415TIP3   OH276735   6.536   0.776  11.351  0.1478 -0.3376  0.0256
18415TIP3    H176736   6.612   0.719  11.350  0.5500  0.1936 -0.1087
18415TIP3    H276737   6.524   0.804  11.260 -0.5334 -0.8380 -0.0462
18416TIP3   OH276738   4.498   6.185   3.066 -0.1547  0.5959 -0.1931
18416TIP3    H176739   4.546   6.195   3.149 -1.0424  0.1886  0.3899
18416TIP3    H276740   4.407   6.206   3.089 -0.1007  2.5464 -1.5358
18417TIP3   OH276741   5.957   1.116  10.803 -0.6386  0.1269  0.0628
18417TIP3    H176742   6.016   1.110  10.728 -1.1986 -1.4676 -0.2863
18417TIP3    H276743   5.935   1.209  10.809  0.5530  0.4890 -0.8459
18418TIP3   OH276744   3.529   5.117   4.384 -0.2317  0.0135 -0.0685
18418TIP3    H176745   3.577   5.190   4.346 -1.3888  0.0725 -1.4740
18418TIP3    H276746   3.490   5.072   4.310 -1.8596 -0.3691  0.9590
18419TIP3   OH276747   2.013   2.857   0.113 -0.0902 -0.1168  0.2079
18419TIP3    H176748   2.069   2.794   0.157  2.2966  0.8808 -1.2231
18419TIP3    H276749   2.006   2.824   0.023 -1.2210  0.1803  0.1673
18420TIP3   OH276750   2.195   6.674   5.581  0.2604  0.6323  0.2894
18420TIP3    H176751   2.253   6.637   5.648 -0.6325 -0.3545  0.5350
18420TIP3    H276752   2.165   6.598   5.531 -0.5315  1.1691 -0.0635
18421TIP3   OH276753   5.235   1.692  14.562  0.5272 -0.6310  0.3239
18421TIP3    H176754   5.146   1.696  14.596  0.4047 -0.4866 -0.0138
18421TIP3    H276755   5.235   1.749  14.486  0.2732 -2.4457 -1.1060
18422TIP3   OH276756   0.868   0.606  13.462  0.1891 -0.1767 -0.6003
18422TIP3    H176757   0.904   0.564  13.540 -1.4329 -1.0757 -0.2982
18422TIP3    H276758   0.874   0.700  13.480  0.6278 -0.3497  0.2179
18423TIP3   OH276759   0.905   6.305  14.929 -0.0487 -0.1423  0.6127
18423TIP3    H176760   0.939   6.217  14.917  1.6850  0.5580 -0.0235
18423TIP3    H276761   0.814   6.300  14.899  0.1227 -1.6235  0.2553
18424TIP3   OH276762   4.629   0.810  14.980 -0.4377 -0.4312 -0.3337
18424TIP3    H176763   4.699   0.851  15.031 -1.0933  0.6785 -0.2772
18424TIP3    H276764   4.652   0.828  14.889 -0.5730 -0.1714 -0.3190
18425TIP3   OH276765   6.118   6.529  10.868  0.1085  0.1734 -0.2824
18425TIP3    H176766   6.186   6.516  10.802 -0.1029 -0.2431 -0.4254
18425TIP3    H276767   6.119   6.623  10.886  0.1859  0.2892 -0.8617
18426TIP3   OH276768   2.815   3.524   2.702  0.1213 -0.3443 -0.2015
18426TIP3    H176769   2.899   3.564   2.682 -0.0937 -0.1594 -0.7490
18426TIP3    H276770   2.785   3.488   2.619 -0.9985  0.8303 -0.3348
18427TIP3   OH276771   5.236   3.163  14.143  0.2934  0.0495  0.3404
18427TIP3    H176772   5.320   3.157  14.098  0.5413  0.9439  0.6589
18427TIP3    H276773   5.257   3.152  14.235  0.3738  2.2777  0.6391
18428TIP3   OH276774   2.124   5.787   1.826 -0.0561 -0.1424  0.0756
18428TIP3    H176775   2.035   5.821   1.828 -0.1123 -0.2983  0.3526
18428TIP3    H276776   2.113   5.692   1.821  0.0986 -0.1248 -0.6065
18429TIP3   OH276777   1.315   0.064  15.953  0.5852  0.2200  0.7962
18429TIP3    H176778   1.293   0.110  16.034  0.0746  1.9194 -0.2646
18429TIP3    H276779   1.322   0.133  15.887 -0.5042 -1.2350 -0.9364
18430TIP3   OH276780   1.366   5.468   4.774 -0.4306 -0.2567  0.4248
18430TIP3    H176781   1.333   5.409   4.707  1.9836  0.1928 -1.2647
18430TIP3    H276782   1.303   5.540   4.775  0.2708  0.5331 -2.5908
18431TIP3   OH276783   0.876   2.055  13.266  0.3203 -0.5519 -0.0345
18431TIP3    H176784   0.902   1.965  13.246  0.4583 -0.5837  0.2960
18431TIP3    H276785   0.786   2.061  13.233  0.6336 -0.5219 -0.9328
18432TIP3   OH276786   4.945   1.047  12.649  0.1424  0.4316  0.0033
18432TIP3    H176787   5.006   1.026  12.578  0.4483 -0.3539  0.4821
18432TIP3    H276788   4.869   1.085  12.605  0.9704  1.4464 -0.6103
18433TIP3   OH276789   0.191   6.780  16.429 -0.3486  0.0564 -0.5058
18433TIP3    H176790   0.216   6.694  16.394  1.1983 -0.1893  1.0288
18433TIP3    H276791   0.257   6.839  16.392  0.1163  0.1241  0.4185
18434TIP3   OH276792   2.631   5.274  14.746 -0.1970 -0.6675  0.3768
18434TIP3    H176793   2.702   5.265  14.809 -1.0100 -0.7357  1.3117
18434TIP3    H276794   2.607   5.366  14.749  1.3187 -0.1383 -1.6181
18435TIP3   OH276795   0.620   1.314   4.267  0.3390  0.0591  0.9911
18435TIP3    H176796   0.567   1.238   4.294  0.0956 -0.6514 -1.2222
18435TIP3    H276797   0.691   1.276   4.215 -0.6443  1.3504 -1.4992
18436TIP3   OH276798   6.402   5.033   6.316 -0.5259  0.2759 -0.0484
18436TIP3    H176799   6.333   5.081   6.361 -1.3328 -1.6451  0.8821
18436TIP3    H276800   6.359   4.954   6.283  1.3322 -1.3932  1.2797
18437TIP3   OH276801   5.260   2.920   2.073  0.0808  0.1794  0.0383
18437TIP3    H176802   5.202   2.846   2.055  2.1206 -1.0371 -2.2898
18437TIP3    H276803   5.207   2.997   2.055 -2.2699 -0.5885  3.0312
18438TIP3   OH276804   1.457   0.021  14.902  0.0959  0.1652 -0.3881
18438TIP3    H176805   1.472   0.115  14.909  2.3232 -0.1091 -0.7575
18438TIP3    H276806   1.486  -0.015  14.986  2.5754 -0.4985 -1.4558
18439TIP3   OH276807   4.264   0.745   0.981  0.1308 -0.1297  0.0925
18439TIP3    H176808   4.334   0.721   1.041  0.2743 -1.0701 -0.4296
18439TIP3    H276809   4.305   0.746   0.895 -0.0386  1.3552  0.0078
18440TIP3   OH276810   5.866   3.853   6.797  0.3011  0.4292 -0.4407
18440TIP3    H176811   5.929   3.828   6.729 -0.7124 -0.6051 -1.0320
18440TIP3    H276812   5.860   3.776   6.853 -0.5652  0.4521 -0.4937
18441TIP3   OH276813   3.108   3.843   3.620  0.1155  0.3226 -0.3064
18441TIP3    H176814   3.071   3.915   3.569 -1.1178 -0.1001 -0.0586
18441TIP3    H276815   3.084   3.864   3.710 -1.9199 -1.2742 -0.3967
18442TIP3   OH276816   1.284   6.518  13.505 -0.0490  0.0159  0.1488
18442TIP3    H176817   1.203   6.511  13.454 -0.4160  1.3918  0.4993
18442TIP3    H276818   1.284   6.608  13.537  1.6847  0.0677  0.0690
18443TIP3   OH276819   6.324   1.136  11.259  0.1291 -0.2323 -0.0471
18443TIP3    H176820   6.401   1.132  11.203 -0.1610 -1.3333 -0.4049
18443TIP3    H276821   6.314   1.047  11.292  0.3055  0.3901  1.8113
18444TIP3   OH276822   4.378   1.830   3.682 -0.3494  0.3893  0.0663
18444TIP3    H176823   4.289   1.805   3.707  0.4986 -0.9049  1.9732
18444TIP3    H276824   4.369   1.920   3.649 -2.2961  0.4211  0.5471
18445TIP3   OH276825   4.711   4.110  14.649 -0.2442 -0.3084 -0.3903
18445TIP3    H176826   4.679   4.106  14.559 -0.6608 -2.2305 -0.2025
18445TIP3    H276827   4.673   4.032  14.692 -0.3503  0.7382  1.5506
18446TIP3   OH276828   2.989   6.249  11.288 -0.0015 -0.3247  0.0461
18446TIP3    H176829   2.925   6.259  11.359  1.2903  3.2945  0.9103
18446TIP3    H276830   2.946   6.286  11.211 -0.7412 -2.6201 -0.7098
18447TIP3   OH276831   0.360   1.187  14.888 -0.5225  0.4366 -0.1984
18447TIP3    H176832   0.378   1.180  14.981 -0.9763  2.4496  0.0801
18447TIP3    H276833   0.264   1.186  14.882 -0.5065 -1.2018 -0.8244
18448TIP3   OH276834   6.826   4.042  13.813  0.0476 -0.0452 -0.4971
18448TIP3    H176835   6.818   4.107  13.882  2.0312  1.0175 -1.1870
18448TIP3    H276836   6.914   4.007  13.822  0.4099  0.2239 -2.5445
18449TIP3   OH276837   4.675   6.137   1.187  0.1680  0.2869  0.1296
18449TIP3    H176838   4.733   6.062   1.194  0.5946  0.7542  2.3070
18449TIP3    H276839   4.686   6.168   1.096  0.7926 -1.5846 -0.4679
18450TIP3   OH276840   4.408   3.075   4.027  0.4754 -0.3887  0.3099
18450TIP3    H176841   4.338   3.015   4.054 -0.2694  0.7304  0.9413
18450TIP3    H276842   4.474   3.067   4.096  0.8485 -1.2242 -0.1333
18451TIP3   OH276843   4.403   0.680   0.162 -0.2013 -0.1925  0.8838
18451TIP3    H176844   4.434   0.706   0.249  0.8283 -2.3076  1.2160
18451TIP3    H276845   4.329   0.621   0.181 -0.4353 -0.0927  0.2873
18452TIP3   OH276846   3.875   1.503   2.756 -0.9484 -0.5298 -0.0740
18452TIP3    H176847   3.814   1.558   2.805 -1.5270 -0.3669 -0.9735
18452TIP3    H276848   3.825   1.470   2.682 -0.5726 -2.1606  0.3494
18453TIP3   OH276849   4.857   4.682   5.654 -0.6827 -0.5007 -0.0832
18453TIP3    H176850   4.814   4.661   5.571 -1.0694 -0.4410  0.0999
18453TIP3    H276851   4.841   4.605   5.709  0.0738 -0.7924 -0.2523
18454TIP3   OH276852   2.799   0.218   2.522 -0.0506 -0.0720  0.5663
18454TIP3    H176853   2.887   0.238   2.553  0.5278 -1.5296 -0.0481
18454TIP3    H276854   2.770   0.145   2.576 -0.3567 -0.4440 -0.0833
18455TIP3   OH276855   5.875   3.367  10.905 -0.5013  0.1227 -0.6374
18455TIP3    H176856   5.828   3.388  10.824 -0.5732 -1.3633 -1.0225
18455TIP3    H276857   5.829   3.289  10.938  1.1283 -0.8418 -0.5536
18456TIP3   OH276858   4.896   0.377   6.152 -0.5160  0.0291 -0.0767
18456TIP3    H176859   4.801   0.379   6.136 -0.6525  0.0127  0.6797
18456TIP3    H276860   4.908   0.307   6.217  0.0532 -0.1778 -0.3994
18457TIP3   OH276861   3.166   4.150  11.626 -0.4191  0.3588 -1.0012
18457TIP3    H176862   3.205   4.200  11.697 -0.0425 -0.4081 -0.6622
18457TIP3    H276863   3.083   4.118  11.662 -1.2342  1.6907 -1.6035
18458TIP3   OH276864   2.444   4.582   4.126  0.0893 -0.5278 -0.1310
18458TIP3    H176865   2.362   4.534   4.121 -1.7798  2.3253  0.6384
18458TIP3    H276866   2.443   4.639   4.048 -0.0742  1.4962  1.2809
18459TIP3   OH276867   4.505   2.474  17.099 -0.5078  0.1077 -0.0025
18459TIP3    H176868   4.510   2.451  17.006  1.9507 -0.7575  0.2834
18459TIP3    H276869   4.411   2.482  17.116 -1.0576 -0.3887 -2.3830
18460TIP3   OH276870   6.107   2.614  16.683 -0.3868  0.2100 -0.4098
18460TIP3    H176871   6.086   2.589  16.773  1.9047 -2.5983 -0.5133
18460TIP3    H276872   6.166   2.688  16.692  0.2007 -0.3489  0.4397
18461TIP3   OH276873   1.228   2.162  11.969  1.2365  0.5347  0.0784
18461TIP3    H176874   1.232   2.071  11.998  0.5514  1.1802  2.3587
18461TIP3    H276875   1.167   2.204  12.029  1.3038  2.4569 -1.1141
18462TIP3   OH276876   0.540   0.766   2.333 -0.2775  0.0500 -0.4942
18462TIP3    H176877   0.630   0.752   2.301 -0.4302 -0.7038 -0.6228
18462TIP3    H276878   0.485   0.723   2.268 -0.6110 -1.2355  0.5829
18463TIP3   OH276879   5.598   6.597   1.217  0.3330  0.2089  0.2490
18463TIP3    H176880   5.653   6.671   1.192 -0.6425  0.9406  0.1899
18463TIP3    H276881   5.513   6.616   1.177  0.3293 -1.4545 -0.6161
18464TIP3   OH276882   3.396   4.749   6.156 -0.1185 -0.2906  0.5482
18464TIP3    H176883   3.365   4.708   6.076  0.0473 -0.6981  0.6912
18464TIP3    H276884   3.406   4.676   6.218 -0.9139  0.0989  1.1504
18465TIP3   OH276885   4.267   0.400   2.860  0.4769 -0.2640 -0.2501
18465TIP3    H176886   4.267   0.455   2.781 -0.5378  0.0452 -0.0430
18465TIP3    H276887   4.353   0.357   2.858  0.2850 -0.6584 -1.7947
18466TIP3   OH276888   1.385   0.945   1.942  0.1011  0.7187 -0.1138
18466TIP3    H176889   1.322   0.919   1.875 -0.9761 -0.7480  1.3771
18466TIP3    H276890   1.339   1.009   1.996  0.0688  0.0983  0.6200
18467TIP3   OH276891   6.356   5.520  13.430  0.0221  0.0558 -0.4150
18467TIP3    H176892   6.265   5.510  13.457  0.3231 -1.6765  0.0871
18467TIP3    H276893   6.404   5.453  13.480  1.2902 -0.2389 -1.9302
18468TIP3   OH276894   4.121   5.944  12.035 -0.6113 -0.5166 -0.1382
18468TIP3    H176895   4.112   6.004  11.961  1.3336  1.1380  0.8912
18468TIP3    H276896   4.106   5.998  12.113  0.6897 -1.4424  0.8011
18469TIP3   OH276897   2.611   5.972  14.650 -0.2308 -0.0059  0.1704
18469TIP3    H176898   2.531   6.024  14.657 -0.6175 -0.8303  3.0935
18469TIP3    H276899   2.632   5.947  14.740  2.9761 -0.3809 -0.5556
18470TIP3   OH276900   4.073   6.014   5.870  0.4430 -0.0665 -0.8498
18470TIP3    H176901   4.029   6.067   5.804  1.1096  0.7606 -0.6570
18470TIP3    H276902   4.045   6.051   5.954  0.9439  0.0249 -0.7146
18471TIP3   OH276903   4.156   4.717  14.373 -0.2730 -0.3214 -0.5982
18471TIP3    H176904   4.083   4.656  14.379  0.1548 -0.8617 -0.8719
18471TIP3    H276905   4.224   4.669  14.326  1.0468 -0.5541  1.4734
18472TIP3   OH276906   4.417   2.488   4.050 -0.0061  0.0404 -0.4845
18472TIP3    H176907   4.398   2.582   4.043 -3.4115 -0.4724 -0.0233
18472TIP3    H276908   4.435   2.461   3.960  0.4086  1.0180 -0.7098
18473TIP3   OH276909   1.097   4.908  11.106 -0.1132  0.1828 -0.0427
18473TIP3    H176910   1.113   4.893  11.012  0.3081  0.8141 -0.0763
18473TIP3    H276911   1.048   4.831  11.134 -0.2879  0.0099 -0.7965
18474TIP3   OH276912   2.809   5.805  12.076 -0.5353  0.3904  0.4757
18474TIP3    H176913   2.714   5.819  12.073 -0.4067  1.1721 -0.2084
18474TIP3    H276914   2.844   5.886  12.113 -0.2229 -0.3991  1.9825
18475TIP3   OH276915   4.402   6.455  16.905  0.4638 -0.1329 -0.0803
18475TIP3    H176916   4.461   6.529  16.921  0.0282 -0.0367  1.1761
18475TIP3    H276917   4.449   6.380  16.941 -0.8566  0.2045  2.6147
18476TIP3   OH276918   6.788   3.050   4.660  0.7399  0.4464  0.1355
18476TIP3    H176919   6.826   2.999   4.587  0.7043 -0.0634  0.4690
18476TIP3    H276920   6.711   3.000   4.687  0.6119  0.7631  0.3678
18477TIP3   OH276921   3.718   2.648   3.760 -0.0841  0.1564 -0.2856
18477TIP3    H176922   3.803   2.622   3.722 -0.4177  0.9162 -1.6214
18477TIP3    H276923   3.716   2.605   3.845  1.6567  0.1330 -0.2137
18478TIP3   OH276924   5.911   2.175   4.562 -0.1266 -0.0079 -0.3136
18478TIP3    H176925   5.852   2.248   4.580 -1.9099 -1.4093 -0.2332
18478TIP3    H276926   5.917   2.128   4.646 -0.7679 -1.1701 -0.8986
18479TIP3   OH276927   5.892   1.682  14.029 -0.0153 -0.3073 -0.1238
18479TIP3    H176928   5.899   1.686  13.934  3.1687  0.4007  0.0364
18479TIP3    H276929   5.817   1.739  14.049 -0.9251 -0.6749 -2.1666
18480TIP3   OH276930   6.024   5.235  14.620 -0.1229  0.3543  0.3068
18480TIP3    H176931   5.993   5.164  14.676  2.2407 -0.0387  1.2607
18480TIP3    H276932   6.096   5.196  14.570  1.0587  1.9570  0.6585
18481TIP3   OH276933   0.038   5.416  16.722 -0.3107 -0.7203 -0.1333
18481TIP3    H176934   0.071   5.414  16.632  0.6455 -0.1017  0.1885
18481TIP3    H276935  -0.027   5.487  16.721  2.0573  1.5928  0.3947
18482TIP3   OH276936   4.924   5.985  11.884 -0.0719  0.1973  0.2807
18482TIP3    H176937   4.957   5.898  11.908 -0.3638 -0.1263 -0.4629
18482TIP3    H276938   4.843   5.968  11.836  1.3806  0.6672 -2.5782
18483TIP3   OH276939   4.265   0.412  15.068  0.4213 -0.3790 -0.6306
18483TIP3    H176940   4.189   0.457  15.105  0.5570 -0.0710 -0.7224
18483TIP3    H276941   4.315   0.481  15.024 -0.2455 -0.8703 -2.2378
18484TIP3   OH276942   3.094   3.358  16.074  0.0763  0.6280 -0.0441
18484TIP3    H176943   3.129   3.441  16.041 -1.0553  0.7247 -1.0933
18484TIP3    H276944   3.012   3.346  16.025 -1.1323  0.2123  1.9602
18485TIP3   OH276945   3.635   2.893  12.275  0.3580  0.5425 -0.1811
18485TIP3    H176946   3.672   2.882  12.362  0.2020 -1.1006 -0.2875
18485TIP3    H276947   3.606   2.984  12.272  0.3258  0.6080  1.4812
18486TIP3   OH276948   1.466   6.620  16.811 -0.1356  0.3645  0.0402
18486TIP3    H176949   1.519   6.643  16.735 -1.5609  2.9095 -0.2927
18486TIP3    H276950   1.474   6.696  16.869 -0.2629 -0.8996  1.7859
18487TIP3   OH276951   0.642   5.566  10.168  0.1538 -0.4539 -0.1601
18487TIP3    H176952   0.715   5.573  10.230  0.0359  0.0265 -0.0708
18487TIP3    H276953   0.648   5.646  10.116 -0.6779 -0.1106  0.2558
18488TIP3   OH276954   0.268   2.087  15.451 -1.2162  0.0091 -0.3198
18488TIP3    H176955   0.214   2.025  15.402 -0.9575 -0.4669 -0.0093
18488TIP3    H276956   0.319   2.032  15.511 -1.8926  0.6151  0.8330
18489TIP3   OH276957   1.360   5.769  16.425  0.5444  0.3053  0.4034
18489TIP3    H176958   1.386   5.733  16.340 -0.9139  1.2525 -0.4771
18489TIP3    H276959   1.355   5.693  16.483 -0.0432 -0.5804 -0.7781
18490TIP3   OH276960   5.759   4.023  11.183  0.5863 -0.2664  0.2814
18490TIP3    H176961   5.771   4.013  11.089  0.9031  1.6652  0.0765
18490TIP3    H276962   5.828   4.084  11.210  0.9385 -1.3363  1.8935
18491TIP3   OH276963   0.122   2.406  13.767 -0.6163  0.5545 -0.3882
18491TIP3    H176964   0.055   2.351  13.725 -0.8047  1.3170 -1.1268
18491TIP3    H276965   0.123   2.486  13.714  0.6322  0.6988 -0.1656
18492TIP3   OH276966   0.528   2.711  16.952  0.3404 -0.2144 -0.4303
18492TIP3    H176967   0.484   2.669  17.026 -0.8118  2.7429  0.6924
18492TIP3    H276968   0.544   2.639  16.890 -4.3092 -1.8949 -0.0494
18493TIP3   OH276969   5.166   0.688  14.753  0.3647  0.4032  0.4442
18493TIP3    H176970   5.166   0.783  14.741  0.6664  0.3388 -0.0968
18493TIP3    H276971   5.104   0.656  14.688 -0.4187  0.2929  1.2255
18494TIP3   OH276972   2.180   2.123  14.193 -0.3098 -0.0124  0.0679
18494TIP3    H176973   2.272   2.112  14.170  0.1082  2.1181  0.5349
18494TIP3    H276974   2.178   2.119  14.289 -0.5443  0.8580  0.1077
18495TIP3   OH276975   1.254   0.469   3.761 -0.8072 -0.1580  0.2214
18495TIP3    H176976   1.325   0.524   3.793 -0.5857 -1.0780  1.3995
18495TIP3    H276977   1.282   0.442   3.674 -0.6543  1.0901 -0.1417
18496TIP3   OH276978   1.657   5.286  13.512 -0.0707 -0.3547 -0.6385
18496TIP3    H176979   1.573   5.291  13.557  0.1867  0.0424 -0.1940
18496TIP3    H276980   1.665   5.369  13.464  1.0928  0.6583  1.1879
18497TIP3   OH276981   6.180   0.798  16.226 -0.1397  0.4044  0.5599
18497TIP3    H176982   6.180   0.721  16.282 -0.1618 -1.9072 -2.4073
18497TIP3    H276983   6.269   0.834  16.236  0.0315 -0.2560  1.6016
18498TIP3   OH276984   3.656   5.200  15.705  0.6883 -0.0459 -1.5009
18498TIP3    H176985   3.584   5.261  15.693 -1.0449 -1.4792  0.6820
18498TIP3    H276986   3.660   5.186  15.800  1.4839 -2.6983 -1.8271
18499TIP3   OH276987   5.319   4.983  16.444  0.0356 -0.0272 -0.0780
18499TIP3    H176988   5.316   4.902  16.495 -0.6310 -1.7716 -2.6786
18499TIP3    H276989   5.367   4.959  16.365 -1.7355  1.5806 -1.7500
18500TIP3   OH276990   2.069   4.256  13.037 -0.2385  0.0083 -0.5252
18500TIP3    H176991   2.158   4.288  13.023 -0.5468  1.0163 -0.2317
18500TIP3    H276992   2.074   4.162  13.018  0.6072  0.2737 -1.7379
18501TIP3   OH276993   2.267   5.672  16.653 -0.2153 -0.3436  0.3517
18501TIP3    H176994   2.295   5.614  16.582 -1.4089 -0.8373  0.2599
18501TIP3    H276995   2.190   5.629  16.690 -0.3471  0.5390  1.1368
18502TIP3   OH276996   0.817   4.287  13.828  0.0217  0.0850 -0.0912
18502TIP3    H176997   0.759   4.220  13.864  0.1266  0.2198  0.3372
18502TIP3    H276998   0.806   4.361  13.888  1.2809 -0.1784  0.4804
18503TIP3   OH276999   0.835   3.411  12.136  0.0225  0.4897 -0.3604
18503TIP3    H177000   0.850   3.362  12.055 -1.7886 -1.9422  0.6548
18503TIP3    H277001   0.773   3.480  12.110  1.7367  1.6581 -1.5832
18504TIP3   OH277002   6.224   5.179  12.102 -0.2205  0.0346  0.0091
18504TIP3    H177003   6.294   5.219  12.154 -0.2899 -0.1464  0.2401
18504TIP3    H277004   6.150   5.240  12.110 -0.5331 -0.4383  0.8729
18505TIP3   OH277005   1.526   3.383  12.140 -0.1176 -0.5512 -0.1587
18505TIP3    H177006   1.509   3.356  12.050  0.6468  1.4644 -0.9704
18505TIP3    H277007   1.596   3.448  12.133 -1.2747  0.9909  1.6899
18506TIP3   OH277008   5.550   6.738  11.702 -0.2370  0.7268  0.1483
18506TIP3    H177009   5.465   6.694  11.706 -0.6847  1.5330 -0.1441
18506TIP3    H277010   5.603   6.684  11.644 -0.7925  0.6099 -0.2574
18507TIP3   OH277011   3.217   5.039   4.443 -0.0446  0.3477 -0.2257
18507TIP3    H177012   3.198   5.018   4.351  1.0846 -0.4188 -0.2931
18507TIP3    H277013   3.171   5.122   4.458 -0.4714  0.3436 -1.4018
18508TIP3   OH277014   3.493   3.249  13.801  0.0534 -0.5768 -0.3428
18508TIP3    H177015   3.454   3.286  13.722  1.8579  0.8936 -0.6154
18508TIP3    H277016   3.423   3.197  13.840 -2.1138  1.7272 -0.8802
18509TIP3   OH277017   3.120   2.698  12.425  0.1075  0.0197  0.1035
18509TIP3    H177018   3.152   2.619  12.382  0.4915 -0.4079  1.1518
18509TIP3    H277019   3.024   2.690  12.422  0.1166  0.1758 -0.9783
18510TIP3   OH277020   2.811   0.258  11.856  0.7756  0.2493  0.5387
18510TIP3    H177021   2.726   0.299  11.840 -0.1903 -1.0833  1.9721
18510TIP3    H277022   2.838   0.226  11.770 -0.2961  0.4375  0.1077
18511TIP3   OH277023   1.355   4.531   1.924  0.5431 -0.1719 -0.0565
18511TIP3    H177024   1.356   4.468   1.852  0.1014 -0.9664  0.6033
18511TIP3    H277025   1.437   4.579   1.915  0.9077 -0.8640 -0.5690
18512TIP3   OH277026   3.630   0.798  15.068 -0.2711 -0.1783 -0.7157
18512TIP3    H177027   3.721   0.797  15.036  0.0010  1.0622 -0.0554
18512TIP3    H277028   3.615   0.890  15.092 -0.7487 -0.8657  1.8867
18513TIP3   OH277029   3.764   1.816   2.113 -0.4698  0.4480 -0.5300
18513TIP3    H177030   3.730   1.750   2.052  0.8078  0.6369 -1.4956
18513TIP3    H277031   3.756   1.898   2.065  0.8689  0.5546 -0.6131
18514TIP3   OH277032   4.873   0.482   5.316 -0.3559  0.4328  0.3101
18514TIP3    H177033   4.931   0.555   5.295 -0.7929  0.3015 -1.5257
18514TIP3    H277034   4.925   0.404   5.295 -0.9653  0.3052 -0.7806
18515TIP3   OH277035   3.813   3.734   2.409  0.1763  0.7501 -0.1777
18515TIP3    H177036   3.790   3.654   2.457 -1.7267  0.1522 -1.9615
18515TIP3    H277037   3.829   3.799   2.477  0.1723 -0.7032  1.2902
18516TIP3   OH277038   4.804   5.473   1.941 -0.6260 -0.0701  0.3565
18516TIP3    H177039   4.800   5.514   2.027 -2.6003  0.2071  0.1790
18516TIP3    H277040   4.785   5.381   1.956 -2.2320  0.1880  0.1378
18517TIP3   OH277041   6.600   5.357   1.272  0.2105 -0.2339 -0.0702
18517TIP3    H177042   6.535   5.424   1.249 -0.0480 -0.1511  0.8363
18517TIP3    H277043   6.683   5.391   1.241  0.1138  0.6276  0.5720
18518TIP3   OH277044   6.179   5.330  15.448  0.2352  0.5758  1.0432
18518TIP3    H177045   6.215   5.355  15.534 -0.0267 -0.0418  1.3390
18518TIP3    H277046   6.098   5.283  15.469  1.2809 -1.5413  0.5797
18519TIP3   OH277047   3.957   2.233   4.707 -0.0189  0.0144  0.3583
18519TIP3    H177048   3.882   2.183   4.673 -0.0861  0.2384  0.1820
18519TIP3    H277049   4.024   2.166   4.722 -0.0231 -0.0984 -0.1132
18520TIP3   OH277050   3.459   1.051  12.582  0.6464  0.0168 -0.1755
18520TIP3    H177051   3.551   1.069  12.560  1.1144  0.5750  1.9939
18520TIP3    H277052   3.455   0.955  12.587  0.7783 -0.0778 -1.4594
18521TIP3   OH277053   0.653   6.609  16.312  0.6653  0.0325  0.4453
18521TIP3    H177054   0.709   6.532  16.310  1.1591  0.3863 -0.0333
18521TIP3    H277055   0.590   6.595  16.240  1.0445  0.2740  0.0578
18522TIP3   OH277056   6.539   1.797   4.685 -0.1194  0.4418  0.1419
18522TIP3    H177057   6.546   1.873   4.626  0.0824  0.7261  0.5264
18522TIP3    H277058   6.572   1.829   4.769  0.9526 -0.3758  0.0426
18523TIP3   OH277059   1.845   5.358  15.830 -0.1469  0.0598  0.3839
18523TIP3    H177060   1.798   5.277  15.815 -2.3224  1.3325 -0.1068
18523TIP3    H277061   1.819   5.385  15.918  0.0769  0.5368  0.3103
18524TIP3   OH277062   2.763   1.682   1.642  0.3437  0.0160  0.3614
18524TIP3    H177063   2.843   1.630   1.639 -0.7372 -1.6676 -1.3588
18524TIP3    H277064   2.710   1.642   1.710  0.3286  0.1841  0.4509
18525TIP3   OH277065   3.324   0.760   5.696 -0.1807  0.0434  1.0164
18525TIP3    H177066   3.310   0.671   5.729 -0.1180 -1.0189 -1.5782
18525TIP3    H277067   3.239   0.803   5.707 -0.4528 -0.6057  1.5402
18526TIP3   OH277068   1.669   1.925   5.285 -0.6451 -0.0154 -0.6266
18526TIP3    H177069   1.615   1.997   5.319 -0.3997  0.5324 -1.3664
18526TIP3    H277070   1.638   1.913   5.195  0.3151  0.1686 -0.9912
18527TIP3   OH277071   6.181   1.630  17.034 -0.1002  0.1007  0.0026
18527TIP3    H177072   6.265   1.618  16.990  0.9461  2.7540  1.0854
18527TIP3    H277073   6.139   1.701  16.985 -1.9904 -1.4818 -0.8060
18528TIP3   OH277074   6.545   5.671   5.586 -0.5076  0.5430 -0.0631
18528TIP3    H177075   6.465   5.637   5.546 -2.3083  2.3720  1.8036
18528TIP3    H277076   6.583   5.727   5.518 -0.1321 -1.2388 -1.3792
18529TIP3   OH277077   2.065   1.419  16.450  0.1606  0.0809 -0.7692
18529TIP3    H177078   1.998   1.355  16.475  0.1477  0.2584 -0.3386
18529TIP3    H277079   2.125   1.371  16.393  0.0473 -0.2627 -0.5975
18530TIP3   OH277080   0.872   5.839   4.812  0.6090  0.3391  0.1779
18530TIP3    H177081   0.792   5.869   4.856  1.0419 -1.4595  2.4232
18530TIP3    H277082   0.938   5.906   4.833  0.1144  0.9606 -0.2280
18531TIP3   OH277083   3.960   5.779   2.645 -0.2166 -0.0033 -0.2180
18531TIP3    H177084   3.996   5.861   2.679  0.3787 -0.3724  0.0721
18531TIP3    H277085   3.868   5.798   2.626  0.3100  1.2108 -1.7463
18532TIP3   OH277086   0.236   2.512   3.156  0.0192  0.5544 -0.2576
18532TIP3    H177087   0.234   2.511   3.251  0.5280  1.7185 -0.2165
18532TIP3    H277088   0.223   2.421   3.130  2.8930 -0.2924  0.9879
18533TIP3   OH277089   4.644   4.681  11.840  0.3073  0.0819 -0.1298
18533TIP3    H177090   4.599   4.608  11.798  1.5123 -0.1628 -1.0375
18533TIP3    H277091   4.724   4.642  11.877 -0.9094  0.1570  2.9267
18534TIP3   OH277092   3.497   3.934  11.208 -0.3970  0.1060 -0.1764
18534TIP3    H177093   3.505   3.962  11.117 -1.0167 -0.3714 -0.3868
18534TIP3    H277094   3.559   3.862  11.217 -0.0097  0.4470 -0.0940
18535TIP3   OH277095   1.910   5.520  17.025 -0.5015  0.1819 -0.2425
18535TIP3    H177096   1.975   5.575  16.983 -1.5335  1.3286 -0.3956
18535TIP3    H277097   1.843   5.506  16.958 -0.0205 -1.7393 -0.3865
18536TIP3   OH277098   4.197   1.624   6.025 -0.8924  0.5559 -0.3489
18536TIP3    H177099   4.168   1.564   5.956 -1.0339  0.0083  0.1721
18536TIP3    H277100   4.244   1.693   5.979 -2.4006  1.0987 -1.1641
18537TIP3   OH277101   3.138   2.114   4.486  0.2300 -0.4824 -0.7405
18537TIP3    H177102   3.150   2.029   4.527  0.0607 -0.5666 -0.8618
18537TIP3    H277103   3.134   2.176   4.559 -2.4822 -0.8938 -0.4298
18538TIP3   OH277104   2.438   3.826  17.184 -0.1491  0.7833 -0.3073
18538TIP3    H177105   2.521   3.798  17.146  1.0529  2.3932  0.9942
18538TIP3    H277106   2.444   3.921  17.188 -1.7402  0.8747  0.5048
18539TIP3   OH277107   5.951   6.082  15.208  0.1911 -0.2967 -0.2111
18539TIP3    H177108   6.046   6.068  15.205  0.1248 -0.6228 -1.6466
18539TIP3    H277109   5.913   5.995  15.197 -0.3004 -0.2727  1.1339
18540TIP3   OH277110   6.171   1.644   4.030  0.1539 -0.5999  0.1328
18540TIP3    H177111   6.228   1.721   4.021  0.1984 -0.6046  0.3729
18540TIP3    H277112   6.083   1.681   4.043  0.3145 -0.5771  1.2109
18541TIP3   OH277113   4.630   2.358   4.721  0.4980  0.6303  0.0480
18541TIP3    H177114   4.620   2.450   4.699  0.3050  0.4147 -0.8110
18541TIP3    H277115   4.724   2.345   4.730  0.5167  0.9377  0.2813
18542TIP3   OH277116   6.049   0.197  16.160  0.3882  0.0005 -0.4758
18542TIP3    H177117   6.141   0.215  16.141  0.1788  0.1816 -1.3294
18542TIP3    H277118   6.024   0.264  16.224  1.0644 -0.5553  0.3982
18543TIP3   OH277119   1.911   4.814   4.394 -0.0450  0.2454  0.6208
18543TIP3    H177120   1.998   4.804   4.357 -0.1945 -0.5333  0.4605
18543TIP3    H277121   1.864   4.869   4.332 -0.6185 -1.8975 -0.9608
18544TIP3   OH277122   2.818   1.906  12.729 -0.5434 -0.0956  0.3830
18544TIP3    H177123   2.827   1.982  12.787  0.7314  0.6857 -0.7765
18544TIP3    H277124   2.745   1.929  12.671 -0.1636  0.2807  0.0373
18545TIP3   OH277125   0.842   2.172  12.897  0.5406 -0.1344  0.6175
18545TIP3    H177126   0.782   2.098  12.904  3.4436 -2.7158  0.1963
18545TIP3    H277127   0.863   2.177  12.804 -0.1233  1.7266  0.5334
18546TIP3   OH277128   2.878   5.219  14.231  0.2842 -0.2101 -0.0040
18546TIP3    H177129   2.847   5.289  14.288 -0.1232  0.1959 -0.7142
18546TIP3    H277130   2.970   5.209  14.252  0.3870  0.6718 -0.0323
18547TIP3   OH277131   6.526   5.591   0.377 -0.1398  0.5329  0.1274
18547TIP3    H177132   6.590   5.549   0.319  0.2245  3.0466 -1.4142
18547TIP3    H277133   6.526   5.683   0.351 -2.3820  1.1504  1.9732
18548TIP3   OH277134   3.423   6.649   1.579  0.4520  0.4884  0.3159
18548TIP3    H177135   3.370   6.709   1.527  0.4655  0.8340  0.7005
18548TIP3    H277136   3.476   6.602   1.514  1.1089  1.5298  0.0599
18549TIP3   OH277137   1.894   1.038   0.938  0.5141  0.1189 -0.0195
18549TIP3    H177138   1.942   0.976   0.993  2.1654 -0.1550 -1.6743
18549TIP3    H277139   1.803   1.028   0.966  0.9605 -1.7901  0.9633
18550TIP3   OH277140   2.699   4.794   5.060  0.4880 -0.1713 -0.3204
18550TIP3    H177141   2.729   4.881   5.034  3.0149 -1.2527 -1.4432
18550TIP3    H277142   2.747   4.776   5.141  0.1297 -0.6051 -0.2033
18551TIP3   OH277143   5.022   0.783  17.052  0.0181 -0.3242  0.3299
18551TIP3    H177144   5.077   0.820  16.983 -0.1209  0.0711  0.4324
18551TIP3    H277145   4.942   0.835  17.049 -0.3934 -0.9549  0.1239
18552TIP3   OH277146   3.452   5.576   3.658  0.6957 -0.1655  0.6646
18552TIP3    H177147   3.385   5.635   3.624 -1.7080 -1.2233  3.1662
18552TIP3    H277148   3.504   5.629   3.718 -0.1153 -0.0779  1.3030
18553TIP3   OH277149   3.064   2.142  12.680 -0.1707 -0.1506  0.2416
18553TIP3    H177150   3.159   2.145  12.670 -0.1088 -2.1786 -0.3022
18553TIP3    H277151   3.049   2.147  12.774  0.4195  0.7756  0.2979
18554TIP3   OH277152   1.586   2.521  12.466  0.0781 -0.0069  0.3091
18554TIP3    H177153   1.579   2.612  12.496  2.2171 -0.3340  2.0508
18554TIP3    H277154   1.559   2.524  12.374 -0.5092  2.2630  0.4853
18555TIP3   OH277155   1.874   0.390   1.070 -0.0493 -0.2498  0.1750
18555TIP3    H177156   1.911   0.471   1.035 -1.6313  0.5247  0.1601
18555TIP3    H277157   1.875   0.329   0.996  0.1839  0.1150 -0.1282
18556TIP3   OH277158   3.162   0.368  16.508  0.4329  0.4402 -0.2517
18556TIP3    H177159   3.173   0.454  16.548  1.2749  0.3593 -0.3061
18556TIP3    H277160   3.184   0.382  16.416 -0.0452  0.2953 -0.3942
18557TIP3   OH277161   4.810   0.047  14.369 -0.3283  0.6680  0.1965
18557TIP3    H177162   4.869   0.052  14.294 -0.2509  1.5804  0.2979
18557TIP3    H277163   4.867   0.024  14.443  0.0063  2.0043  0.3815
18558TIP3   OH277164   6.333   3.532   4.335 -0.0378  0.1552 -0.2319
18558TIP3    H177165   6.269   3.520   4.265 -1.8612 -0.9235  1.5363
18558TIP3    H277166   6.378   3.614   4.312 -0.4929 -0.1974 -2.6612
18559TIP3   OH277167   2.104   5.665  10.521 -0.4178 -1.3446 -0.3399
18559TIP3    H177168   2.017   5.654  10.482  0.1321 -2.4247 -1.3297
18559TIP3    H277169   2.139   5.744  10.479 -1.8761  0.6372  1.9756
18560TIP3   OH277170   1.220   0.823   1.759 -0.5478 -0.2603 -0.3010
18560TIP3    H177171   1.186   0.870   1.683 -0.4022 -0.9535 -0.8037
18560TIP3    H277172   1.156   0.754   1.775 -1.8826  1.2975  1.7289
18561TIP3   OH277173   5.474   4.143  13.440  0.5414 -0.2290 -0.2243
18561TIP3    H177174   5.426   4.074  13.394  0.1620  0.6150 -1.1445
18561TIP3    H277175   5.553   4.156  13.387  0.6879 -0.0692  0.0327
18562TIP3   OH277176   2.911   3.263   4.532  0.3467  0.5242  0.3692
18562TIP3    H177177   2.961   3.190   4.570  1.1609  0.6678 -0.4014
18562TIP3    H277178   2.961   3.289   4.455 -2.6575 -1.6371 -2.5837
18563TIP3   OH277179   4.257   2.905  15.663 -0.4366 -0.4882  0.5387
18563TIP3    H177180   4.192   2.965  15.699  1.1456  2.0055 -0.4864
18563TIP3    H277181   4.250   2.916  15.568  2.3200  1.0222  0.3786
18564TIP3   OH277182   3.280   0.539   5.867 -0.4503 -0.3020 -0.2065
18564TIP3    H177183   3.285   0.447   5.842 -0.5538 -0.2175 -0.5444
18564TIP3    H277184   3.341   0.548   5.940  0.3058 -0.4292 -0.8063
18565TIP3   OH277185   4.454   2.445  11.615  0.0241 -0.1448 -0.2571
18565TIP3    H177186   4.481   2.476  11.528 -0.1966  0.7398 -0.0205
18565TIP3    H277187   4.359   2.432  11.607 -0.2533  1.4105  0.2675
18566TIP3   OH277188   1.030   1.923   4.501  0.1240 -0.2100  0.7578
18566TIP3    H177189   0.968   1.858   4.534 -0.8525  0.4578  0.2987
18566TIP3    H277190   0.981   1.971   4.434  1.4913 -0.3500 -0.3706
18567TIP3   OH277191   1.807   1.505  11.328  0.1595 -0.5454  0.1134
18567TIP3    H177192   1.791   1.418  11.290  0.0246 -0.4887  0.0394
18567TIP3    H277193   1.893   1.530  11.295 -0.7791  0.3834 -1.8200
18568TIP3   OH277194   0.571   1.385   4.551  0.3340  0.1056 -0.2243
18568TIP3    H177195   0.594   1.316   4.613  0.3705  0.2371 -0.0912
18568TIP3    H277196   0.604   1.353   4.467 -0.2369 -0.3413 -0.2876
18569TIP3   OH277197   3.754   5.668   3.551  0.4073 -0.2044  0.4946
18569TIP3    H177198   3.793   5.739   3.602  1.2653 -1.1088  1.1507
18569TIP3    H277199   3.699   5.711   3.487 -0.1835  1.0075  1.7652
18570TIP3   OH277200   6.814   2.426  14.269 -0.1938  0.3178 -0.2088
18570TIP3    H177201   6.843   2.481  14.196  1.6758  0.4093  0.5634
18570TIP3    H277202   6.825   2.336  14.237  0.7863  0.3548 -0.0213
18571TIP3   OH277203   4.898   3.665  10.648  0.2820  0.5832  0.4093
18571TIP3    H177204   4.856   3.703  10.571 -0.3922 -0.6244  0.1559
18571TIP3    H277205   4.959   3.600  10.613 -0.2508 -0.1894  0.8869
18572TIP3   OH277206   5.595   1.752   4.638  1.1694 -0.4978  0.8361
18572TIP3    H177207   5.515   1.708   4.666  0.9920  0.1121  1.3154
18572TIP3    H277208   5.595   1.745   4.543 -0.9943  2.0557  0.5542
18573TIP3   OH277209   3.072   0.334  13.124  0.4413  0.1811  0.1963
18573TIP3    H177210   3.148   0.388  13.101  0.5096  0.5585  1.2238
18573TIP3    H277211   2.997   0.392  13.111  0.3589 -0.0642 -0.4367
18574TIP3   OH277212   6.720   0.231  16.127  0.3179  0.1845  0.2672
18574TIP3    H177213   6.753   0.311  16.086  1.0606  0.4388  1.3127
18574TIP3    H277214   6.645   0.259  16.179 -2.3127 -0.5314 -2.8163
18575TIP3   OH277215   6.790   3.213   4.256  0.2899 -0.1174 -0.7487
18575TIP3    H177216   6.803   3.242   4.166 -0.2280  2.6232 -0.0339
18575TIP3    H277217   6.730   3.278   4.293  0.8163 -0.9235  1.6863
18576TIP3   OH277218   1.108   6.498  10.641 -0.0575  0.1904 -0.1622
18576TIP3    H177219   1.113   6.480  10.547  2.1331  2.8353 -0.6720
18576TIP3    H277220   1.045   6.569  10.649 -0.7759 -0.4982  0.4993
18577TIP3   OH277221   6.375   3.561   0.682 -0.2611 -0.9967 -0.5104
18577TIP3    H177222   6.403   3.634   0.737  0.3840 -1.0142 -0.8039
18577TIP3    H277223   6.444   3.496   0.692  1.1352 -0.0558 -3.1827
18578TIP3   OH277224   5.734   4.826  14.004  0.1310 -0.4241 -0.7278
18578TIP3    H177225   5.677   4.824  13.926  0.6038 -0.7681 -1.0710
18578TIP3    H277226   5.759   4.734  14.018  0.9148 -0.2339 -0.8220
18579TIP3   OH277227   3.091   2.442   5.244  0.0272  0.1110  0.0791
18579TIP3    H177228   3.110   2.517   5.301 -3.0102 -0.1412  1.6373
18579TIP3    H277229   3.009   2.465   5.200 -0.0990 -1.6131 -0.6742
18580TIP3   OH277230   3.357   2.555  11.390 -0.4464 -0.4294 -0.4630
18580TIP3    H177231   3.444   2.593  11.379 -0.4545 -0.9291 -2.9379
18580TIP3    H277232   3.303   2.628  11.420  0.2861  0.6273 -1.5933
18581TIP3   OH277233   5.130   6.374   0.159 -0.0022 -0.3095 -0.6521
18581TIP3    H177234   5.173   6.402   0.078 -2.4161  1.0155 -1.5863
18581TIP3    H277235   5.108   6.282   0.143  0.4989 -0.3697 -1.0464
18582TIP3   OH277236   0.966   3.778   1.144  0.0685 -0.1621  0.1703
18582TIP3    H177237   0.927   3.704   1.097  1.6168 -3.8072  3.9898
18582TIP3    H277238   0.891   3.825   1.180 -1.0258  1.3505 -3.5904
18583TIP3   OH277239   0.803   6.226   6.442 -0.5333  0.3435 -0.2206
18583TIP3    H177240   0.819   6.175   6.522 -0.5842 -1.0000 -1.0406
18583TIP3    H277241   0.716   6.264   6.456  0.0285  1.2879  0.9389
18584TIP3   OH277242   5.721   2.472  12.135 -0.6066 -0.0417 -0.1379
18584TIP3    H177243   5.688   2.459  12.046  0.1469 -2.2340 -0.1620
18584TIP3    H277244   5.666   2.415  12.189  1.4258 -1.8603  0.1645
18585TIP3   OH277245   0.993   5.074   5.590 -0.3432 -0.0212 -0.2920
18585TIP3    H177246   1.026   4.995   5.633 -0.6689  0.2101  0.4036
18585TIP3    H277247   0.945   5.043   5.514  0.5142 -0.4278 -0.6743
18586TIP3   OH277248   0.453   0.730   4.384  0.5237  0.0844  0.0014
18586TIP3    H177249   0.530   0.694   4.428  0.5208  1.5122  1.2635
18586TIP3    H277250   0.459   0.825   4.398 -1.8467  0.1893  0.8673
18587TIP3   OH277251   2.811   3.973  17.112  0.0159  0.2719 -0.3197
18587TIP3    H177252   2.879   3.974  17.044  0.0831 -0.4244 -0.2734
18587TIP3    H277253   2.804   4.064  17.141  2.2325  0.0893  0.9668
18588TIP3   OH277254   4.200   2.977  11.847 -0.0361  0.6444  0.2166
18588TIP3    H177255   4.167   2.955  11.759 -0.3192 -2.2343  0.9315
18588TIP3    H277256   4.290   2.944  11.848 -0.3230 -0.1575  1.2450
18589TIP3   OH277257   4.356   2.770   4.301  0.0430 -0.7733 -0.1777
18589TIP3    H177258   4.291   2.774   4.232 -1.9031 -0.5758  1.5710
18589TIP3    H277259   4.351   2.680   4.334  0.1858 -0.5793  0.3901
18590TIP3   OH277260   3.453   3.426  12.538 -0.0247  0.4971 -0.0083
18590TIP3    H177261   3.512   3.500  12.526 -1.3476  1.5302 -0.4578
18590TIP3    H277262   3.422   3.406  12.449  0.1038 -0.4242  0.1451
18591TIP3   OH277263   3.055   3.022   2.105 -0.0790 -0.2176 -0.2113
18591TIP3    H177264   3.081   3.101   2.152 -2.0913 -0.7038  1.9319
18591TIP3    H277265   3.119   2.955   2.131  0.8033  0.3343 -0.9175
18592TIP3   OH277266   5.098   5.376  12.873 -0.4365 -0.1435  0.0090
18592TIP3    H177267   5.070   5.464  12.897  0.2589 -0.2470  1.2616
18592TIP3    H277268   5.131   5.386  12.783 -1.1409  0.6857 -0.1748
18593TIP3   OH277269   3.626   3.517   5.196  0.0293 -0.7140 -0.4821
18593TIP3    H177270   3.719   3.525   5.219  0.2193 -1.2565 -1.0554
18593TIP3    H277271   3.584   3.495   5.279  0.3246  0.1443 -0.0960
18594TIP3   OH277272   2.207   5.049   5.490 -0.1654 -0.0077  0.1131
18594TIP3    H177273   2.242   5.053   5.401 -0.4451 -2.0818 -0.1369
18594TIP3    H277274   2.112   5.045   5.477 -0.2152 -0.0802  0.5036
18595TIP3   OH277275   3.581   5.430   1.276 -0.0023  0.4245  0.1891
18595TIP3    H177276   3.614   5.392   1.195  1.8018  0.7623  0.7188
18595TIP3    H277277   3.487   5.440   1.262 -0.1648 -1.9579 -0.8608
18596TIP3   OH277278   0.204   4.601  11.475 -0.0379  0.1354 -0.0176
18596TIP3    H177279   0.210   4.552  11.393 -0.7209 -0.0310  0.0238
18596TIP3    H277280   0.117   4.641  11.472  0.6583  1.7282 -0.2629
18597TIP3   OH277281   4.629   6.614  10.315  0.8934  0.0419  0.1210
18597TIP3    H177282   4.663   6.578  10.397 -2.0062 -1.0732  0.9572
18597TIP3    H277283   4.609   6.537  10.262 -1.9479  0.4605  0.4499
18598TIP3   OH277284   1.596   5.176   1.017 -0.1092 -0.5906 -0.3431
18598TIP3    H177285   1.545   5.166   0.937  1.4000  0.8480 -1.5546
18598TIP3    H277286   1.657   5.102   1.015 -1.8028 -2.1187  0.9372
18599TIP3   OH277287   3.972   4.109   3.909 -0.2817  0.2419  0.1061
18599TIP3    H177288   4.059   4.146   3.895 -0.5214  0.8261  0.1416
18599TIP3    H277289   3.934   4.162   3.979 -0.1471 -0.8901  1.0583
18600TIP3   OH277290   4.310   6.016  14.134  0.4198 -0.1313 -0.1907
18600TIP3    H177291   4.375   5.974  14.077 -0.8343 -1.8180 -0.4187
18600TIP3    H277292   4.295   5.953  14.204 -0.4450  0.5648  0.2617
18601TIP3   OH277293   2.784   5.251  13.486 -0.3976  0.5310 -0.5183
18601TIP3    H177294   2.741   5.197  13.553 -1.7388 -0.0276 -1.7632
18601TIP3    H277295   2.835   5.189  13.434  0.9815  1.0246  0.2192
18602TIP3   OH277296   3.962   4.366  16.759  0.1531 -0.4041 -0.1750
18602TIP3    H177297   4.032   4.329  16.814 -0.4506  1.1461  1.7731
18602TIP3    H277298   3.988   4.457  16.746  0.4316 -0.7814 -2.8636
18603TIP3   OH277299   4.796   3.768   4.279 -0.6230  0.1552 -0.4138
18603TIP3    H177300   4.752   3.688   4.250 -0.6979 -0.6634  1.7931
18603TIP3    H277301   4.844   3.742   4.357 -1.1738  2.3968  0.7596
18604TIP3   OH277302   5.567   6.372   2.182  0.1105 -0.6014  0.6015
18604TIP3    H177303   5.630   6.443   2.195 -0.1523 -0.2198 -0.1501
18604TIP3    H277304   5.526   6.391   2.097  0.3177 -1.8713  0.1969
18605TIP3   OH277305   3.635   0.723  16.544 -0.4528  0.7034 -0.0919
18605TIP3    H177306   3.699   0.794  16.549 -0.8290  0.9324  1.9961
18605TIP3    H277307   3.580   0.748  16.470  2.2381  0.0987 -2.5122
18606TIP3   OH277308   2.609   1.327  14.051  0.8592 -0.0058  0.1008
18606TIP3    H177309   2.528   1.325  14.001  0.1453  1.7735  1.0702
18606TIP3    H277310   2.595   1.266  14.123  0.7254 -0.3244 -0.1910
18607TIP3   OH277311   3.594   2.515  14.485 -0.1916  0.8538  0.4865
18607TIP3    H177312   3.643   2.435  14.502  1.7836  1.9630  0.3998
18607TIP3    H277313   3.555   2.538  14.569  0.1365  0.3624  0.7768
18608TIP3   OH277314   3.170   5.700  14.389 -0.5376 -0.8088  0.0231
18608TIP3    H177315   3.190   5.741  14.473  0.1842 -0.6297 -0.2300
18608TIP3    H277316   3.137   5.613  14.412 -0.1306 -0.8450  0.4865
18609TIP3   OH277317   6.626   2.423   5.729  0.2102 -0.2330 -0.2213
18609TIP3    H177318   6.684   2.498   5.741 -0.2487  0.2345 -0.8761
18609TIP3    H277319   6.613   2.418   5.634 -0.0679 -0.9052 -0.1490
18610TIP3   OH277320   2.489   3.802  15.247 -0.2918  0.3775  0.5328
18610TIP3    H177321   2.567   3.855  15.262  0.1456  0.0229 -0.3960
18610TIP3    H277322   2.423   3.863  15.214 -0.5420  0.7419  1.6478
18611TIP3   OH277323   6.229   1.034  16.655 -0.0694 -0.0763 -0.4367
18611TIP3    H177324   6.281   1.078  16.589 -1.7065  1.3870 -0.8141
18611TIP3    H277325   6.142   1.028  16.617 -1.1280  1.0388  1.6501
18612TIP3   OH277326   0.762   4.819   2.857 -0.1693  0.3814 -0.4187
18612TIP3    H177327   0.830   4.772   2.906  0.6157 -0.6597 -2.3672
18612TIP3    H277328   0.768   4.909   2.887  1.4659  0.1239  0.1103
18613TIP3   OH277329   4.718   1.376  16.373  0.3674  0.0930 -0.4469
18613TIP3    H177330   4.789   1.414  16.425  0.2595 -0.3315  0.0265
18613TIP3    H277331   4.677   1.451  16.330  0.3476  0.4785  0.2312
18614TIP3   OH277332   6.553   4.319  11.825  0.4246  0.6371  0.4461
18614TIP3    H177333   6.637   4.355  11.796  2.4247 -2.6494  1.6434
18614TIP3    H277334   6.569   4.290  11.915 -1.5733 -1.2863  0.2550
18615TIP3   OH277335   0.175   0.927  15.757  0.4688  0.7250 -0.1811
18615TIP3    H177336   0.146   0.846  15.714  1.0116  0.0537  0.6669
18615TIP3    H277337   0.267   0.910  15.778  0.4800  1.4170  0.3550
18616TIP3   OH277338   3.766   4.518   1.372  0.3077 -0.3844  0.2021
18616TIP3    H177339   3.710   4.440   1.368  1.4421 -1.2144 -0.1178
18616TIP3    H277340   3.804   4.525   1.285  0.6413  0.2079  0.3924
18617TIP3   OH277341   4.763   4.934   6.292  0.1658 -0.2132  0.2480
18617TIP3    H177342   4.699   5.005   6.298 -1.0155 -1.3701  2.7435
18617TIP3    H277343   4.711   4.854   6.296  1.6107 -1.2397 -0.4952
18618TIP3   OH277344   1.378   0.099  10.249 -0.3494  0.0126 -0.5845
18618TIP3    H177345   1.360   0.068  10.337 -0.0243  1.9733  0.2267
18618TIP3    H277346   1.473   0.094  10.241 -0.2725  0.9601 -0.3568
18619TIP3   OH277347   1.890   0.128  14.270  0.5079  0.3878 -0.3798
18619TIP3    H177348   1.986   0.128  14.274  0.4661 -0.0981  1.9159
18619TIP3    H277349   1.866   0.036  14.275 -0.1115  0.3463 -2.7863
18620TIP3   OH277350   0.793   5.942  14.848 -0.2013  0.5042 -0.8353
18620TIP3    H177351   0.721   5.919  14.790 -1.2073  0.7257  0.2782
18620TIP3    H277352   0.858   5.984  14.791 -0.7407 -0.1062 -1.9319
18621TIP3   OH277353   4.572   5.855  12.472 -0.2000 -0.5758 -0.7427
18621TIP3    H177354   4.559   5.771  12.516  1.1455 -1.0689 -1.2344
18621TIP3    H277355   4.489   5.901  12.483 -0.4270 -1.3098  0.9316
18622TIP3   OH277356   5.367   1.109   3.860  0.2473  0.1328 -0.2541
18622TIP3    H177357   5.375   1.090   3.953  0.0531 -1.3266 -0.5017
18622TIP3    H277358   5.426   1.183   3.845  0.7239  0.0113  0.9181
18623TIP3   OH277359   5.266   0.134  15.846  0.0180  0.2529  0.0703
18623TIP3    H177360   5.279   0.177  15.762  0.6137  0.4463  0.2533
18623TIP3    H277361   5.315   0.052  15.838 -2.0143 -0.9539 -0.6811
18624TIP3   OH277362   3.668   5.746  11.845  0.0113 -0.3347  0.8003
18624TIP3    H177363   3.729   5.813  11.877  0.7573 -0.4372 -0.3515
18624TIP3    H277364   3.589   5.796  11.821  0.3329  0.0582  0.5369
18625TIP3   OH277365   2.069   4.182   6.188 -0.4340 -0.3396 -0.3512
18625TIP3    H177366   2.019   4.255   6.225  0.9584 -0.3603  1.7582
18625TIP3    H277367   2.103   4.135   6.264 -1.3173 -3.2895 -1.6290
18626TIP3   OH277368   4.339   5.821   3.303  0.0462 -0.4386 -0.1064
18626TIP3    H177369   4.366   5.832   3.212  1.7158 -1.2036  0.2497
18626TIP3    H277370   4.293   5.737   3.305  2.3239 -1.7808  0.1462
18627TIP3   OH277371   6.740   6.207  14.690 -0.6780  0.1586  0.7696
18627TIP3    H177372   6.822   6.164  14.716  1.3630  1.7376 -2.4249
18627TIP3    H277373   6.706   6.153  14.619  1.2326  2.7139 -2.3966
18628TIP3   OH277374   2.377   4.206  15.613  0.5510 -0.0911  0.2083
18628TIP3    H177375   2.383   4.135  15.549  1.7578 -0.4398  0.6855
18628TIP3    H277376   2.304   4.260  15.582 -0.2378 -1.4040 -0.2907
18629TIP3   OH277377   2.055   5.467   4.796  0.0752  0.3547  0.3605
18629TIP3    H177378   2.011   5.385   4.818 -0.2857  0.2958 -0.5176
18629TIP3    H277379   2.038   5.525   4.871 -2.3544  0.6531 -0.3097
18630TIP3   OH277380   4.246   2.296  13.613  0.0565  0.1337 -0.5068
18630TIP3    H177381   4.196   2.374  13.589 -3.2945 -1.3788  0.9382
18630TIP3    H277382   4.223   2.231  13.546  0.3661 -0.5007 -0.0120
18631TIP3   OH277383   0.961   0.240   4.691 -0.1384  0.0840 -0.0255
18631TIP3    H177384   1.025   0.187   4.738  1.2104  0.5693 -1.2254
18631TIP3    H277385   0.997   0.248   4.602 -1.2729  1.3634 -0.4082
18632TIP3   OH277386   3.313   6.504   3.835 -0.2603 -0.2371  0.1125
18632TIP3    H177387   3.365   6.424   3.824  0.1362 -0.0743  0.7336
18632TIP3    H277388   3.262   6.487   3.914 -2.2579 -0.9779 -1.2602
18633TIP3   OH277389   3.042   4.887  15.966  0.0516  0.5434 -0.5037
18633TIP3    H177390   3.100   4.957  15.936 -0.0991  1.5720  1.3889
18633TIP3    H277391   2.957   4.930  15.975 -0.0667  0.1101  0.5761
18634TIP3   OH277392   2.347   3.232  15.971 -0.0551 -0.0515 -0.6061
18634TIP3    H177393   2.348   3.249  16.065 -0.2758  0.5586 -0.7094
18634TIP3    H277394   2.385   3.145  15.962 -2.4891 -1.2902  0.2745
18635TIP3   OH277395   2.353   4.104   4.489 -0.4407 -0.3537  0.4061
18635TIP3    H177396   2.289   4.037   4.512 -0.0927 -1.6464 -2.0218
18635TIP3    H277397   2.435   4.057   4.481  0.1837  0.7047  0.3875
18636TIP3   OH277398   6.674   5.909  11.528  0.4616 -0.7370  0.2768
18636TIP3    H177399   6.622   5.839  11.490  0.4753 -0.7270  0.2394
18636TIP3    H277400   6.742   5.926  11.462 -0.2233  0.1034 -0.2398
18637TIP3   OH277401   0.137   0.756   0.335  0.3541  0.7839  0.5489
18637TIP3    H177402   0.229   0.752   0.307  0.4921  0.5517  1.0241
18637TIP3    H277403   0.132   0.696   0.409 -0.8027 -1.2864 -1.1139
18638TIP3   OH277404   6.539   5.304  17.152 -0.3321  0.8183  0.3630
18638TIP3    H177405   6.532   5.332  17.061 -0.3482 -1.1124 -0.2901
18638TIP3    H277406   6.620   5.252  17.155 -1.4839 -1.0575  0.8458
18639TIP3   OH277407   4.882   3.223  16.902 -0.1176 -0.1099  0.0013
18639TIP3    H177408   4.815   3.289  16.883 -0.0771 -0.3865 -1.2002
18639TIP3    H277409   4.945   3.269  16.957  0.5073  1.2533 -1.7500
18640TIP3   OH277410   6.118   2.852   3.048 -0.0324  0.9677  0.5065
18640TIP3    H177411   6.080   2.939   3.046 -0.1897  0.9318  1.4143
18640TIP3    H277412   6.061   2.799   2.993 -1.5703  0.8224  2.1489
18641TIP3   OH277413   5.247   5.550  13.191 -0.3337  0.0262 -0.7638
18641TIP3    H177414   5.155   5.572  13.180 -0.2651 -0.2356 -1.9457
18641TIP3    H277415   5.294   5.632  13.176 -0.2627 -0.2560 -2.2208
18642TIP3   OH277416   6.019   1.193   0.071  0.1357  0.0079  0.1710
18642TIP3    H177417   5.990   1.283   0.058  1.9210  0.4681 -1.0481
18642TIP3    H277418   6.093   1.200   0.131  0.4309 -0.6202 -0.1174
18643TIP3   OH277419   4.285   5.390   2.315 -0.0172 -0.5190 -0.1189
18643TIP3    H177420   4.264   5.375   2.222  0.7224 -1.0860 -0.2071
18643TIP3    H277421   4.207   5.433   2.351  0.4819  1.6916 -1.4790
18644TIP3   OH277422   0.770   1.418   4.917  0.2288 -0.8893 -0.0330
18644TIP3    H177423   0.719   1.436   4.996 -1.9610 -0.8719 -1.3783
18644TIP3    H277424   0.833   1.490   4.913  0.7617 -1.1737  1.9294
18645TIP3   OH277425   2.819   4.924  10.873 -0.4343 -0.6304 -0.4843
18645TIP3    H177426   2.877   4.972  10.932 -0.6977 -0.3642 -0.4378
18645TIP3    H277427   2.777   4.858  10.928 -0.0467 -0.9357 -0.5549
18646TIP3   OH277428   4.311   2.424  10.414 -0.4929  0.2370  0.0141
18646TIP3    H177429   4.235   2.458  10.462  0.1722  0.6326  0.7932
18646TIP3    H277430   4.303   2.329  10.421 -0.0525  0.2844  1.4912
18647TIP3   OH277431   3.109   6.620   0.089  0.1176 -0.7297 -0.0666
18647TIP3    H177432   3.149   6.689   0.142 -2.3640 -0.1024  1.1620
18647TIP3    H277433   3.130   6.644  -0.001  2.4459 -0.4964  0.4763
18648TIP3   OH277434   1.183   0.077  14.628  0.3056  0.3690 -0.1594
18648TIP3    H177435   1.100   0.029  14.630  0.1059  0.7260  2.1844
18648TIP3    H277436   1.164   0.154  14.574 -0.7100  0.1526 -0.1335
18649TIP3   OH277437   0.803   2.263   3.983  0.1230 -0.1034  0.2079
18649TIP3    H177438   0.794   2.312   3.901  0.2523 -1.5546 -0.6916
18649TIP3    H277439   0.876   2.204   3.969 -1.3752 -2.1318  0.4377
18650TIP3   OH277440   2.789   2.028   2.215 -0.6924 -0.4541  0.1877
18650TIP3    H177441   2.775   2.033   2.309  0.2249 -0.3547  0.3316
18650TIP3    H277442   2.707   1.992   2.180 -1.1605 -0.1726  0.9785
18651TIP3   OH277443   2.414   3.876   1.269 -0.4277 -0.7879 -0.4409
18651TIP3    H177444   2.496   3.829   1.258  0.6259  1.0019 -0.6995
18651TIP3    H277445   2.421   3.917   1.356 -1.3016 -1.0607 -0.2268
18652TIP3   OH277446   2.084   3.097  14.806  0.1145 -0.1135 -0.3161
18652TIP3    H177447   2.090   3.169  14.869  0.5322  0.2698 -0.7850
18652TIP3    H277448   2.163   3.104  14.753 -0.0662 -0.6380 -0.6691
18653TIP3   OH277449   0.696   1.524  11.859 -0.1974  0.3881 -0.1360
18653TIP3    H177450   0.663   1.495  11.774  0.3464 -0.1837 -0.1573
18653TIP3    H277451   0.782   1.483  11.867 -0.3314  0.2555  0.7804
18654TIP3   OH277452   0.610   5.655  10.641 -0.2021  0.1451  0.0108
18654TIP3    H177453   0.567   5.639  10.725  0.1770 -1.7944 -0.1172
18654TIP3    H277454   0.539   5.679  10.582 -0.6929 -0.0358  0.5227
18655TIP3   OH277455   4.817   4.758   1.663 -0.5668  0.3040  0.3671
18655TIP3    H177456   4.744   4.741   1.722  1.3348  0.2168  2.8750
18655TIP3    H277457   4.876   4.814   1.714  1.1972  0.2521 -1.4925
18656TIP3   OH277458   6.468   4.852   2.293 -0.2490  0.7552  0.4445
18656TIP3    H177459   6.408   4.795   2.340  0.7631 -1.3426 -0.6707
18656TIP3    H277460   6.417   4.885   2.219 -0.0672 -1.2458 -0.6613
18657TIP3   OH277461   1.736   4.356   5.934 -0.0812  0.2060  0.1184
18657TIP3    H177462   1.735   4.425   5.868  0.4078  1.1784  1.1013
18657TIP3    H277463   1.716   4.401   6.016 -0.9960 -1.0303  0.6006
18658TIP3   OH277464   4.016   0.050  13.565  0.7652  0.1732  0.2700
18658TIP3    H177465   4.081   0.091  13.508  2.7726  1.1644  3.0405
18658TIP3    H277466   4.046  -0.041  13.573  1.4336  0.4464  0.9750
18659TIP3   OH277467   4.300   1.479  12.996 -0.3352  0.1080 -0.0091
18659TIP3    H177468   4.284   1.484  13.090 -1.3949  2.0255 -0.2448
18659TIP3    H277469   4.217   1.450  12.958  0.0830 -0.6523 -0.3630
18660TIP3   OH277470   1.551   6.104   1.818  0.2267  0.3827 -0.1589
18660TIP3    H177471   1.525   6.158   1.743 -0.3060 -1.5702 -1.4636
18660TIP3    H277472   1.588   6.025   1.779 -1.9782 -1.6334  1.5297
18661TIP3   OH277473   3.074   1.930   3.908  0.0222 -0.0408  0.0020
18661TIP3    H177474   3.054   2.014   3.950 -1.7894 -0.1173 -0.6008
18661TIP3    H277475   3.111   1.955   3.823 -0.9135  0.1736 -0.3549
18662TIP3   OH277476   5.451   2.285   0.452  0.0413  0.3019  0.1061
18662TIP3    H177477   5.546   2.287   0.440  0.2814  0.8681  1.8724
18662TIP3    H277478   5.433   2.195   0.480  0.1157  0.3192  0.2101
18663TIP3   OH277479   4.504   0.673  12.288 -0.2520  0.1197 -0.3244
18663TIP3    H177480   4.411   0.655  12.276 -0.2273  0.4134 -0.9915
18663TIP3    H277481   4.523   0.646  12.379 -1.3594  1.6611  0.3979
18664TIP3   OH277482   5.996   1.866   0.863 -0.5829  0.5364  0.4991
18664TIP3    H177483   6.059   1.876   0.935 -0.4888 -0.5880  0.6058
18664TIP3    H277484   5.998   1.772   0.844 -3.1270  0.2372  1.3374
18665TIP3   OH277485   1.689   4.388  12.774  0.2759 -0.3624  0.2633
18665TIP3    H177486   1.634   4.334  12.832  1.5855  0.0941  2.0143
18665TIP3    H277487   1.777   4.355  12.787  0.6122 -0.2234 -1.5175
18666TIP3   OH277488   3.539   4.635  11.321  0.3109 -0.3284  0.3579
18666TIP3    H177489   3.461   4.614  11.270 -0.0318  2.5208 -0.5164
18666TIP3    H277490   3.596   4.559  11.312 -1.5870 -1.7084 -0.5538
18667TIP3   OH277491   5.276   4.982  14.665  0.3583 -0.1541  0.0180
18667TIP3    H177492   5.256   5.011  14.576  1.2563  0.0197 -0.1420
18667TIP3    H277493   5.339   5.047  14.698  0.3908 -0.4742  0.6091
18668TIP3   OH277494   3.229   1.866   5.425 -0.4235  0.4054 -0.0461
18668TIP3    H177495   3.195   1.835   5.341  2.4714 -0.5328 -1.0057
18668TIP3    H277496   3.217   1.960   5.422 -0.1601  0.4228 -1.6730
18669TIP3   OH277497   3.728   2.008   5.918 -0.1225  0.3679 -0.2809
18669TIP3    H177498   3.657   1.994   5.981  0.9809 -1.7998  0.6007
18669TIP3    H277499   3.795   1.945   5.943  0.9113  0.2860 -2.8813
18670TIP3   OH277500   2.984   6.765  11.636  0.1306  0.4076  0.4652
18670TIP3    H177501   3.050   6.695  11.641 -0.2520  0.1227  2.5195
18670TIP3    H277502   2.929   6.751  11.714 -2.1091  0.8983 -0.9478
18671TIP3   OH277503   2.363   1.262   0.597 -0.0778 -0.0737 -0.0259
18671TIP3    H177504   2.365   1.167   0.604  1.4932 -0.1202 -0.6654
18671TIP3    H277505   2.356   1.279   0.503 -1.0666  0.4711  0.1219
18672TIP3   OH277506   6.148   0.797   6.088  0.1833 -0.3889  0.2456
18672TIP3    H177507   6.161   0.781   6.182  0.3134 -1.2187  0.0984
18672TIP3    H277508   6.171   0.714   6.047  1.3753  0.3657 -0.6501
18673TIP3   OH277509   4.608   1.896   5.333 -0.1065 -0.0439 -0.1565
18673TIP3    H177510   4.630   1.862   5.246 -0.2148  0.2040 -0.2809
18673TIP3    H277511   4.516   1.921   5.326 -0.3112 -0.6816  0.2381
18674TIP3   OH277512   3.511   6.646   3.039 -0.4406  0.3622 -0.2184
18674TIP3    H177513   3.536   6.698   2.962  0.5356  0.2414  0.0139
18674TIP3    H277514   3.568   6.677   3.109 -0.8791  0.0095  0.3003
18675TIP3   OH277515   6.241   2.379   0.251  0.0565  0.1796 -0.4656
18675TIP3    H177516   6.278   2.466   0.239  1.2199 -0.2530 -0.2037
18675TIP3    H277517   6.309   2.319   0.219 -0.7525 -0.6268 -0.7164
18676TIP3   OH277518   2.300   6.438  12.322  0.0165 -0.1142 -0.4505
18676TIP3    H177519   2.381   6.437  12.373 -0.3956  1.6755  0.3086
18676TIP3    H277520   2.327   6.466  12.235  0.2407  0.4882 -0.1965
18677TIP3   OH277521   5.949   1.100   1.926  0.6690 -0.6538 -0.5059
18677TIP3    H177522   5.868   1.146   1.950  1.4924  0.5562  0.0396
18677TIP3    H277523   6.018   1.164   1.942  1.7619 -1.7528 -0.7483
18678TIP3   OH277524   3.840   1.058   1.376  0.0565 -0.2219  0.2415
18678TIP3    H177525   3.877   1.139   1.410  0.8887 -0.3920 -0.2199
18678TIP3    H277526   3.760   1.044   1.427 -0.4421  1.2129 -0.1043
18679TIP3   OH277527   0.955   4.933   4.141  0.3544 -0.3545  0.3228
18679TIP3    H177528   0.928   4.936   4.232 -1.9860 -2.8904 -0.1716
18679TIP3    H277529   1.045   4.901   4.144  1.2971  2.1401  1.7606
18680TIP3   OH277530   1.446   2.087  10.607 -0.0430  0.4019  0.0027
18680TIP3    H177531   1.533   2.072  10.568  1.2029  1.9558  1.9780
18680TIP3    H277532   1.443   2.182  10.620 -0.8143  0.0785  2.6359
18681TIP3   OH277533   5.018   4.343  17.017  0.5322 -0.2591 -0.7866
18681TIP3    H177534   5.047   4.273  16.958  0.8306 -0.7187 -0.1126
18681TIP3    H277535   5.035   4.424  16.969  1.2725 -0.6033 -1.1241
18682TIP3   OH277536   3.431   5.968   1.496  0.5373  0.6609  0.6547
18682TIP3    H177537   3.436   5.914   1.574  0.2668  0.2852  0.4179
18682TIP3    H277538   3.383   5.914   1.432 -0.6163  1.5492  0.7287
18683TIP3   OH277539   2.342   5.913   2.956 -0.1745 -0.5034  0.4409
18683TIP3    H177540   2.258   5.873   2.980  0.1689 -0.5636  1.6226
18683TIP3    H277541   2.335   6.003   2.988  0.1366 -0.4585  0.3841
18684TIP3   OH277542   2.952   4.006  14.281  0.6490 -0.6768 -0.6418
18684TIP3    H177543   3.029   4.014  14.225 -0.7622 -0.5196 -2.6342
18684TIP3    H277544   2.911   3.924  14.253 -0.1047 -0.5807  0.1566
18685TIP3   OH277545   3.331   2.138  12.713  0.3951 -0.7820  0.5280
18685TIP3    H177546   3.383   2.187  12.650 -0.9084 -1.7144 -1.3701
18685TIP3    H277547   3.393   2.115  12.783  1.3502  2.2822  0.8071
18686TIP3   OH277548   5.440   4.481  10.955 -0.4430  0.2731  0.1215
18686TIP3    H177549   5.496   4.553  10.983  1.7361 -0.5296 -1.8608
18686TIP3    H277550   5.367   4.523  10.908  1.2680  1.2467 -1.8136
18687TIP3   OH277551   0.779   5.518   3.024  0.1299 -0.6438  0.7199
18687TIP3    H177552   0.841   5.555   2.962 -0.5327  0.8154  0.8783
18687TIP3    H277553   0.698   5.508   2.974 -0.1069 -0.4734  1.0620
18688TIP3   OH277554   5.139   1.435  13.461 -0.0391  0.2580  0.4953
18688TIP3    H177555   5.155   1.524  13.491  3.0311  0.4869 -1.4194
18688TIP3    H277556   5.191   1.380  13.520 -1.3609 -0.2368  1.2314
18689TIP3   OH277557   6.312   1.530  13.782 -0.1458 -0.1635 -0.1202
18689TIP3    H177558   6.217   1.522  13.772  0.0127 -1.6151 -0.7972
18689TIP3    H277559   6.348   1.465  13.722  1.2955  0.5600 -0.0874
18690TIP3   OH277560   4.621   0.347  12.568  0.1214 -0.4566  0.1492
18690TIP3    H177561   4.713   0.371  12.560 -0.4884  1.8413 -0.8834
18690TIP3    H277562   4.613   0.267  12.516  1.0541  0.8531 -2.1875
18691TIP3   OH277563   3.597   1.165   3.097  0.2972 -0.1437 -0.5494
18691TIP3    H177564   3.567   1.163   3.006 -0.2656 -0.6920 -0.3569
18691TIP3    H277565   3.692   1.165   3.090  0.3198 -2.5428 -1.1334
18692TIP3   OH277566   5.417   5.773  15.474 -0.2203  0.3001 -0.5362
18692TIP3    H177567   5.424   5.729  15.559 -1.8613  0.2606 -0.3973
18692TIP3    H277568   5.368   5.853  15.493  1.3547  1.4397 -1.0727
18693TIP3   OH277569   0.895   6.625  10.947  0.2796  0.0750 -0.0139
18693TIP3    H177570   0.973   6.596  10.993  1.4504 -0.4328 -2.2242
18693TIP3    H277571   0.847   6.545  10.926  0.5635  0.1481 -1.0122
18694TIP3   OH277572   1.250   5.593   2.138 -0.7711 -0.4864 -0.6454
18694TIP3    H177573   1.264   5.687   2.146 -1.0639 -0.5579  0.9450
18694TIP3    H277574   1.156   5.584   2.123 -0.9689 -0.5675  0.5425
18695TIP3   OH277575   5.253   0.002   5.268  0.2233  0.5687 -0.0213
18695TIP3    H177576   5.207   0.037   5.345 -0.7022  2.1105 -1.2201
18695TIP3    H277577   5.189  -0.056   5.227  1.1360 -1.2246  0.9731
18696TIP3   OH277578   6.724   1.105   0.329  0.5697 -0.2516  0.4471
18696TIP3    H177579   6.690   1.036   0.386 -1.0355 -1.5759 -1.8900
18696TIP3    H277580   6.689   1.083   0.242  1.8307  2.3133 -0.8336
18697TIP3   OH277581   3.464   1.253  14.684 -0.0176  0.2337 -0.0094
18697TIP3    H177582   3.433   1.220  14.768 -1.1718  0.6331 -0.2622
18697TIP3    H277583   3.476   1.175  14.630 -1.6008  0.1095 -0.2252
18698TIP3   OH277584   3.913   3.645  14.609  0.2433 -0.2379  0.0523
18698TIP3    H177585   3.885   3.721  14.558  1.8293  1.6322  1.8125
18698TIP3    H277586   3.833   3.594  14.623 -0.9850  1.4246 -0.6357
18699TIP3   OH277587   1.357   1.488  15.408 -0.3113 -0.1407 -0.2093
18699TIP3    H177588   1.276   1.447  15.436  0.2805 -0.7168  0.7080
18699TIP3    H277589   1.329   1.563  15.356 -1.4154 -1.5974 -1.8195
18700TIP3   OH277590   0.118   6.234  17.113  0.3715 -0.6281 -1.0186
18700TIP3    H177591   0.155   6.245  17.201  0.4862 -0.9699 -1.0205
18700TIP3    H277592   0.182   6.273  17.054  0.7087 -1.1598 -1.0151
18701TIP3   OH277593   1.647   4.845  13.263  0.5567  0.2674 -0.0080
18701TIP3    H177594   1.701   4.794  13.203  0.5057  0.1366  0.0568
18701TIP3    H277595   1.692   4.839  13.347 -1.2405 -2.6895  0.9101
18702TIP3   OH277596   1.963   0.602   0.904  0.4222  1.0311 -0.1591
18702TIP3    H177597   2.004   0.687   0.916  2.1046  0.3021 -0.3262
18702TIP3    H277598   1.951   0.594   0.810 -1.2192  1.7115 -0.0245
18703TIP3   OH277599   5.628   5.671  13.490  0.0929  0.1202 -0.5863
18703TIP3    H177600   5.688   5.598  13.505  0.2590  0.6468  1.6440
18703TIP3    H277601   5.682   5.750  13.498 -0.8290  0.6171  1.7916
18704TIP3   OH277602   0.729   1.916  12.928  0.4131 -0.0260  0.0252
18704TIP3    H177603   0.664   1.871  12.981 -0.8387  0.4171 -1.0671
18704TIP3    H277604   0.770   1.847  12.876 -1.7479  0.0262 -1.9091
18705TIP3   OH277605   0.247   2.284   3.508  0.1626 -0.3060  0.4364
18705TIP3    H177606   0.298   2.225   3.451 -1.6193 -1.3606 -0.1358
18705TIP3    H277607   0.176   2.229   3.541 -1.4041  1.4442  0.0973
18706TIP3   OH277608   0.561   6.311  12.374  0.4731 -0.4922 -0.1655
18706TIP3    H177609   0.569   6.268  12.289 -1.1693 -1.7553  0.2895
18706TIP3    H277610   0.519   6.247  12.431 -0.9788  1.2706  0.8743
18707TIP3   OH277611   2.061   4.496  12.637 -0.4507 -0.2994 -0.5300
18707TIP3    H177612   2.150   4.461  12.639 -0.1325  0.4538 -1.0874
18707TIP3    H277613   2.028   4.483  12.725  0.4359 -0.0377 -0.1502
18708TIP3   OH277614   4.985   1.037  16.214  0.3803 -0.2645 -0.1993
18708TIP3    H177615   4.969   0.975  16.142 -1.6540  0.5151 -0.4827
18708TIP3    H277616   5.010   0.981  16.288 -0.4395 -1.3575 -0.7086
18709TIP3   OH277617   3.640   0.024   1.083  0.2062  0.2294  0.2074
18709TIP3    H177618   3.735   0.026   1.068  0.0457  0.2394 -0.8789
18709TIP3    H277619   3.606  -0.031   1.012 -0.5388 -0.2801  0.9436
18710TIP3   OH277620   0.088   3.937   5.719  0.0299 -0.1148  0.9401
18710TIP3    H177621   0.151   3.982   5.663 -0.8727 -2.3453 -2.2099
18710TIP3    H277622   0.132   3.856   5.744 -0.7280 -0.6353  0.6314
18711TIP3   OH277623   6.214   2.709  11.214 -0.7506  0.1028 -0.1313
18711TIP3    H177624   6.296   2.716  11.165 -0.0252  0.9782  1.1710
18711TIP3    H277625   6.240   2.674  11.299 -2.0340 -1.6862 -0.4047
18712TIP3   OH277626   2.635   1.161   4.865 -0.4509  0.3137  0.2136
18712TIP3    H177627   2.624   1.067   4.877 -0.7827  0.2677 -0.4123
18712TIP3    H277628   2.623   1.175   4.771 -0.2024  0.9551  0.2697
18713TIP3   OH277629   3.665   2.681   0.218  0.2491  0.1481  0.1199
18713TIP3    H177630   3.689   2.717   0.303  0.3134  1.8186 -0.5767
18713TIP3    H277631   3.667   2.586   0.232 -0.7769  0.3666  2.2555
18714TIP3   OH277632   5.732   5.132   4.613  0.0207 -0.2658 -0.3125
18714TIP3    H177633   5.736   5.222   4.645  0.9915  0.3106 -1.9296
18714TIP3    H277634   5.711   5.080   4.691 -2.0224  1.4679  0.3928
18715TIP3   OH277635   5.700   1.895   6.177  0.9791  0.0143 -0.2773
18715TIP3    H177636   5.688   1.804   6.204  0.5508  0.0473 -0.3414
18715TIP3    H277637   5.682   1.946   6.257 -0.4651  0.1210 -0.6418
18716TIP3   OH277638   2.773   6.250   1.403  0.0516 -0.7891  0.3474
18716TIP3    H177639   2.708   6.310   1.367  1.2825  0.0826 -0.5176
18716TIP3    H277640   2.838   6.306   1.445  0.8232 -1.5348  0.2106
18717TIP3   OH277641   6.337   0.850  13.701  0.6275  0.4259  0.5757
18717TIP3    H177642   6.389   0.781  13.659  0.6988 -0.7466  2.5180
18717TIP3    H277643   6.271   0.873  13.635  1.9417  0.0736 -0.9255
18718TIP3   OH277644   0.697   0.660   5.370 -0.2437 -0.1947  0.5120
18718TIP3    H177645   0.609   0.625   5.381 -0.5970  0.8361  1.1421
18718TIP3    H277646   0.685   0.754   5.367  0.3940 -0.0620 -3.8436
18719TIP3   OH277647   1.577   5.325  17.109 -0.4389 -0.0946  0.6946
18719TIP3    H177648   1.587   5.328  17.013  0.7304 -0.0583  0.8043
18719TIP3    H277649   1.519   5.399  17.129 -0.8213 -0.1948  0.0055
18720TIP3   OH277650   1.987   4.467  11.439  0.6172 -0.7865  0.8087
18720TIP3    H177651   2.037   4.499  11.364 -0.3499 -0.0625  0.4515
18720TIP3    H277652   1.916   4.530  11.450 -0.3126 -1.8543  1.2054
18721TIP3   OH277653   5.708   3.904  16.820  0.1586 -0.1851  0.3348
18721TIP3    H177654   5.737   3.995  16.819  0.1525 -0.1825  0.4198
18721TIP3    H277655   5.650   3.898  16.896  0.2133 -0.2776  0.3687
18722TIP3   OH277656   2.354   5.145  11.857  0.2645  0.5787 -0.0817
18722TIP3    H177657   2.316   5.063  11.823 -0.1981  0.3951  0.8353
18722TIP3    H277658   2.439   5.119  11.892 -0.2275  0.3244  0.9435
18723TIP3   OH277659   3.205   0.955   1.175  0.0950  0.3792  0.3739
18723TIP3    H177660   3.153   0.970   1.096  0.1048  0.4337  0.3778
18723TIP3    H277661   3.233   1.042   1.202  0.3090  0.3391  0.2885
18724TIP3   OH277662   2.189   3.244  14.293  0.0194 -0.4944 -0.1969
18724TIP3    H177663   2.263   3.216  14.240  0.9841  2.3115 -0.5376
18724TIP3    H277664   2.225   3.258  14.380 -0.4462 -0.5018  0.0022
18725TIP3   OH277665   6.630   6.600  16.453  0.0125 -0.0102  0.7433
18725TIP3    H177666   6.621   6.674  16.513 -0.8225 -0.5426  1.3029
18725TIP3    H277667   6.613   6.523  16.507  2.7261 -0.8128  0.6370
18726TIP3   OH277668   2.836   4.584  16.055 -0.3372  0.2816 -0.1345
18726TIP3    H177669   2.774   4.603  15.985 -0.4494  0.9686  0.1489
18726TIP3    H277670   2.789   4.525  16.114  0.3516 -1.7939 -1.5336
18727TIP3   OH277671   0.820   6.215   0.431 -0.4574  0.7066 -0.1219
18727TIP3    H177672   0.724   6.221   0.427 -0.7973 -2.2846  0.9085
18727TIP3    H277673   0.839   6.197   0.523  0.9009 -0.5756 -0.6166
18728TIP3   OH277674   4.770   1.840  13.113  0.0528 -0.1121 -0.1260
18728TIP3    H177675   4.792   1.866  13.203 -1.0867  0.9255 -0.1301
18728TIP3    H277676   4.850   1.799  13.080  0.6427 -0.0773  1.2004
18729TIP3   OH277677   0.150   2.814  14.320 -0.0759 -0.6132  0.0194
18729TIP3    H177678   0.190   2.779  14.241  0.7492 -0.6769  0.4529
18729TIP3    H277679   0.084   2.875  14.289 -0.0477 -0.9506 -0.7195
18730TIP3   OH277680   2.357   4.551  10.951 -0.3219 -0.0431  0.1239
18730TIP3    H177681   2.396   4.637  10.965 -0.7032  0.0916  0.3580
18730TIP3    H277682   2.414   4.510  10.885  1.0877 -0.3973  1.4936
18731TIP3   OH277683   5.430   5.110   2.836 -0.3652  0.2175 -0.6068
18731TIP3    H177684   5.485   5.163   2.894  0.1986 -2.2827  1.2700
18731TIP3    H277685   5.341   5.143   2.851 -0.0831  0.3815  0.8024
18732TIP3   OH277686   2.104   3.003   2.558 -0.1573  0.0289  0.7862
18732TIP3    H177687   2.117   2.910   2.577  0.2391  0.0538  0.6544
18732TIP3    H277688   2.038   3.004   2.489  0.5711 -0.2173  0.0590
18733TIP3   OH277689   3.967   4.572  13.307  0.2248 -0.3762 -0.4439
18733TIP3    H177690   3.951   4.662  13.279 -1.8078 -0.6394 -0.2982
18733TIP3    H277691   4.021   4.535  13.238  0.6625  0.8105 -0.7668
18734TIP3   OH277692   0.317   1.151   1.636 -0.4602 -0.1387  0.3576
18734TIP3    H177693   0.221   1.151   1.638 -0.5352 -1.2070 -1.2516
18734TIP3    H277694   0.340   1.060   1.615  0.8087  0.5179 -1.2787
18735TIP3   OH277695   1.742   5.945   0.231 -0.3933 -0.2073 -0.1627
18735TIP3    H177696   1.726   6.037   0.208 -1.1115 -0.7173 -1.8517
18735TIP3    H277697   1.656   5.912   0.258  0.2066  0.0560  2.2876
18736TIP3   OH277698   1.548   3.808   1.854 -0.2566  0.0561 -0.2807
18736TIP3    H177699   1.538   3.836   1.763 -2.2472 -0.1333 -0.1685
18736TIP3    H277700   1.514   3.718   1.855 -0.0358 -0.0286  0.6022
18737TIP3   OH277701   5.724   0.107  12.856 -0.0752  0.1784 -0.0220
18737TIP3    H177702   5.669   0.180  12.828  1.3529  0.6255 -1.8713
18737TIP3    H277703   5.813   0.135  12.833  0.7016 -1.3711  0.9725
18738TIP3   OH277704   0.063   6.019   5.771  0.4199 -0.0368  0.1242
18738TIP3    H177705  -0.014   5.969   5.799 -1.5305  2.5707 -0.2429
18738TIP3    H277706   0.079   6.081   5.842  1.2375  0.4666 -0.4789
18739TIP3   OH277707   4.170   5.212  11.176  0.2335  0.1812 -0.1109
18739TIP3    H177708   4.126   5.127  11.167  0.2380  0.0908  0.6265
18739TIP3    H277709   4.140   5.245  11.261  1.7074  0.0328  0.4903
18740TIP3   OH277710   1.880   0.480  15.950 -0.6747 -0.2420  0.4359
18740TIP3    H177711   1.873   0.502  16.043 -1.3160 -1.1549  0.6147
18740TIP3    H277712   1.930   0.399  15.947 -1.4769 -0.7410  0.0677
18741TIP3   OH277713   3.251   2.000  14.446  0.5097  0.8954  0.0923
18741TIP3    H177714   3.172   2.045  14.414  0.1621  1.0521  1.1258
18741TIP3    H277715   3.217   1.922  14.491  0.9899  0.6299 -0.0038
18742TIP3   OH277716   2.535   5.357   5.116  0.2108  0.6166 -0.1808
18742TIP3    H177717   2.622   5.331   5.146 -0.3491  0.4090  1.3407
18742TIP3    H277718   2.479   5.346   5.192 -1.2748  0.2117 -1.2827
18743TIP3   OH277719   2.725   3.582  11.977  0.3101 -0.3232 -0.0444
18743TIP3    H177720   2.669   3.627  12.040 -1.2740 -0.6020 -1.1841
18743TIP3    H277721   2.750   3.500  12.020 -0.3926 -0.3123  0.3895
18744TIP3   OH277722   0.564   2.837  11.478  0.3441 -0.0711 -0.5206
18744TIP3    H177723   0.586   2.929  11.493  0.9372 -0.3154  0.1146
18744TIP3    H277724   0.549   2.801  11.565  2.4194 -1.1466 -0.5701
18745TIP3   OH277725   4.220   3.864  15.300 -0.0693 -0.1076 -0.8143
18745TIP3    H177726   4.288   3.922  15.267 -0.2511 -0.1392 -1.2648
18745TIP3    H277727   4.226   3.870  15.395  0.7928 -0.3900 -0.8488
18746TIP3   OH277728   5.188   2.830   2.897 -0.0778 -0.1690  0.2068
18746TIP3    H177729   5.146   2.914   2.912 -1.4894 -0.1207 -3.1364
18746TIP3    H277730   5.280   2.844   2.922 -0.0623  2.6506 -1.0739
18747TIP3   OH277731   3.655   5.566  14.983  0.3046 -0.5479  0.8048
18747TIP3    H177732   3.728   5.592  15.039  1.6458  0.4987 -1.2817
18747TIP3    H277733   3.675   5.605  14.898 -1.2501 -2.6047 -0.6206
18748TIP3   OH277734   6.207   6.239   0.681 -0.6554 -0.1058 -0.3077
18748TIP3    H177735   6.221   6.160   0.733 -1.1035  0.7265  1.1089
18748TIP3    H277736   6.124   6.275   0.712 -1.4732 -0.1184 -2.3203
18749TIP3   OH277737   1.896   6.303  15.417 -0.3137  0.1205 -0.2055
18749TIP3    H177738   1.974   6.248  15.407 -0.4397 -0.1013  0.0118
18749TIP3    H277739   1.835   6.248  15.467 -1.0867 -0.1915 -1.4546
18750TIP3   OH277740   4.786   4.187  15.874 -0.3731  0.0432 -0.2929
18750TIP3    H177741   4.716   4.144  15.825 -0.8078  0.3900  0.0147
18750TIP3    H277742   4.845   4.116  15.898 -1.7557 -0.6199  1.3461
18751TIP3   OH277743   4.324   4.886   5.411 -0.7248 -0.1748 -0.2748
18751TIP3    H177744   4.330   4.906   5.505  0.0142 -1.1402 -0.1029
18751TIP3    H277745   4.245   4.932   5.382 -0.4195  0.9630  0.6028
18752TIP3   OH277746   4.766   5.327  17.102  0.2046 -0.0820 -0.6070
18752TIP3    H177747   4.701   5.259  17.086  0.6405 -0.4179 -0.9912
18752TIP3    H277748   4.799   5.310  17.190 -0.0992 -0.0203 -0.4818
18753TIP3   OH277749   0.413   3.249   0.430 -0.2493  0.1598 -0.2229
18753TIP3    H177750   0.421   3.200   0.348 -3.2018 -0.2964 -0.3377
18753TIP3    H277751   0.367   3.329   0.406 -0.9231  0.1441  0.9425
18754TIP3   OH277752   2.759   5.303   0.105 -0.2120 -0.2522  0.4372
18754TIP3    H177753   2.753   5.213   0.073 -0.6746  0.2002 -0.7947
18754TIP3    H277754   2.669   5.327   0.126 -0.0042 -0.2938  1.4234
18755TIP3   OH277755   0.320   5.745   4.521 -0.1974 -0.0469 -0.2053
18755TIP3    H177756   0.227   5.730   4.537 -0.5151 -0.4493 -2.1595
18755TIP3    H277757   0.332   5.840   4.531 -0.1717 -0.2998  2.8608
18756TIP3   OH277758   0.448   3.491  13.493  0.4022  0.2243 -0.3660
18756TIP3    H177759   0.421   3.579  13.466  0.7732  0.8684  1.2040
18756TIP3    H277760   0.542   3.488  13.473 -0.1080 -0.8932 -3.0004
18757TIP3   OH277761   5.334   4.913  11.468 -0.0706  0.5329  0.0141
18757TIP3    H177762   5.368   4.825  11.454  0.4974  0.5045  1.3741
18757TIP3    H277763   5.259   4.901  11.525 -0.2415  0.8915 -0.1327
18758TIP3   OH277764   0.469   0.114  11.826  0.1306 -0.3918 -0.3343
18758TIP3    H177765   0.479   0.203  11.860  1.8367 -0.1304 -1.4318
18758TIP3    H277766   0.375   0.105  11.810 -0.1113  1.0801  0.1302
18759TIP3   OH277767   3.088   4.772   3.718  0.5490  0.1934  0.0300
18759TIP3    H177768   3.160   4.710   3.706  0.5221  0.2812 -0.6047
18759TIP3    H277769   3.031   4.758   3.643  1.5015  2.2631 -1.1696
18760TIP3   OH277770   4.229   1.792  16.386  0.5351  0.6989 -0.0328
18760TIP3    H177771   4.282   1.854  16.336  0.9482  0.9418  0.6891
18760TIP3    H277772   4.274   1.784  16.471  0.2612 -0.2767  0.0349
18761TIP3   OH277773   3.530   4.314   1.592  0.3458  0.3356 -0.1975
18761TIP3    H177774   3.542   4.282   1.502 -0.3395 -0.5397  0.0139
18761TIP3    H277775   3.473   4.390   1.582  1.1013  0.8612 -0.5991
18762TIP3   OH277776   2.981   2.512  10.818 -0.0767 -0.7922 -0.1447
18762TIP3    H177777   2.913   2.447  10.800 -1.4202  0.3107  0.6628
18762TIP3    H277778   2.955   2.588  10.766 -0.0428 -0.0098  0.9439
18763TIP3   OH277779   2.062   2.975  12.246  0.5443 -0.8816 -0.2562
18763TIP3    H177780   2.068   2.967  12.151 -0.6559  2.6312 -0.7835
18763TIP3    H277781   2.152   2.972  12.276  1.1835  0.3781 -1.8684
18764TIP3   OH277782   3.361   3.253   2.784 -0.3761  0.0552 -0.3429
18764TIP3    H177783   3.269   3.271   2.802 -0.4789 -1.3253  0.6992
18764TIP3    H277784   3.374   3.282   2.693 -1.1589  2.6195  0.2641
18765TIP3   OH277785   6.644   4.415   4.528  0.5929 -0.1917 -0.0085
18765TIP3    H177786   6.670   4.502   4.558 -0.1135  0.1925 -0.4818
18765TIP3    H277787   6.724   4.363   4.533  0.7312  0.1125  1.5958
18766TIP3   OH277788   1.578   3.002   3.493  0.2406  0.4629  0.1565
18766TIP3    H177789   1.589   3.066   3.423  0.5644 -0.2089 -0.4278
18766TIP3    H277790   1.483   2.987   3.497  0.3217 -0.5750 -1.1590
18767TIP3   OH277791   0.641   5.590  12.842  0.1387 -0.2679  0.1353
18767TIP3    H177792   0.700   5.641  12.787  0.6390 -1.4083 -0.4276
18767TIP3    H277793   0.661   5.617  12.931  1.2469 -0.3477 -0.0740
18768TIP3   OH277794   5.267   0.514   5.067  0.1895  0.3007  0.0708
18768TIP3    H177795   5.275   0.421   5.084  2.0099  0.0585 -1.6807
18768TIP3    H277796   5.194   0.543   5.121 -1.9523 -2.5708 -1.0248
18769TIP3   OH277797   4.649   5.222   5.161 -0.2005 -0.1729  0.0101
18769TIP3    H177798   4.697   5.277   5.223  0.3034  0.7595 -1.1681
18769TIP3    H277799   4.713   5.156   5.132 -0.1151  0.0538 -0.3211
18770TIP3   OH277800   4.893   3.468   3.311 -0.5456  0.0203  0.0128
18770TIP3    H177801   4.910   3.541   3.251 -2.6220  1.0702  0.6164
18770TIP3    H277802   4.824   3.418   3.268 -0.9954 -0.0652  0.8232
18771TIP3   OH277803   0.838   5.093  17.032 -0.5538  0.5673 -0.1271
18771TIP3    H177804   0.759   5.043  17.053  0.8887 -0.7565  2.7492
18771TIP3    H277805   0.879   5.110  17.117  2.4004  0.9422 -1.4904
18772TIP3   OH277806   0.286   4.024  14.420  0.4168 -0.0978 -0.1720
18772TIP3    H177807   0.263   3.958  14.354  1.4198  1.1766 -1.8678
18772TIP3    H277808   0.332   3.974  14.488  0.0509 -1.3341 -0.7962
18773TIP3   OH277809   6.118   1.986  11.405 -0.1651 -0.0763 -0.0901
18773TIP3    H177810   6.206   1.987  11.368 -0.5494  0.7334 -1.0474
18773TIP3    H277811   6.127   1.940  11.488  1.2555  0.4663  0.0857
18774TIP3   OH277812   4.549   3.961   5.845 -0.1075 -0.1955  0.2775
18774TIP3    H177813   4.470   3.935   5.797 -0.8506  2.5954 -0.1780
18774TIP3    H277814   4.619   3.961   5.779  0.2888 -2.3450  0.6132
18775TIP3   OH277815   5.241   6.550   2.404 -0.6859  0.3771  0.4162
18775TIP3    H177816   5.337   6.550   2.411 -0.5680  0.3181 -0.8243
18775TIP3    H277817   5.221   6.473   2.351 -1.4054  0.4757  0.5364
18776TIP3   OH277818   1.781   5.681   4.108  0.1088 -0.3509  0.1131
18776TIP3    H177819   1.687   5.692   4.096  0.3608  2.7114  0.3757
18776TIP3    H277820   1.790   5.649   4.198 -0.6347  0.0284  0.3298
18777TIP3   OH277821   2.731   3.485  15.840 -0.0813  0.1462  0.1826
18777TIP3    H177822   2.826   3.496  15.832 -0.0157 -0.4055  0.1545
18777TIP3    H277823   2.708   3.534  15.919  0.0239  1.3910 -0.5367
18778TIP3   OH277824   1.675   4.247  16.122 -0.6650  0.0924 -0.4381
18778TIP3    H177825   1.726   4.318  16.084 -0.8097  0.4072 -0.0509
18778TIP3    H277826   1.586   4.261  16.089 -0.9664  0.8437  0.6454
18779TIP3   OH277827   1.675   5.702   4.996 -0.7157  0.4626  0.0234
18779TIP3    H177828   1.616   5.639   5.037 -0.5744  0.0795 -0.3532
18779TIP3    H277829   1.717   5.747   5.069  1.6888 -2.1666  0.4788
18780TIP3   OH277830   5.507   3.165   0.476 -1.2558 -0.6240 -0.4505
18780TIP3    H177831   5.422   3.152   0.518 -1.6913 -1.4866 -1.5480
18780TIP3    H277832   5.487   3.172   0.383 -0.2056  0.1347 -0.6291
18781TIP3   OH277833   5.816   1.718  16.163  0.2940  0.1030  0.4737
18781TIP3    H177834   5.827   1.768  16.243 -0.0492  0.8244  0.0829
18781TIP3    H277835   5.882   1.753  16.103 -1.2812  1.5655 -0.4916
18782TIP3   OH277836   4.786   5.654   0.936  0.2262  0.4812 -0.1675
18782TIP3    H177837   4.731   5.589   0.893 -0.9921  2.1090 -1.2153
18782TIP3    H277838   4.778   5.635   1.029  0.0472 -0.9433 -0.4455
18783TIP3   OH277839   0.568   1.657  14.573 -0.4956  0.2032  0.1685
18783TIP3    H177840   0.530   1.583  14.526 -0.4573  0.2181  0.1146
18783TIP3    H277841   0.587   1.622  14.661  0.3859 -0.1093 -0.1374
18784TIP3   OH277842   3.906   3.120  16.441  0.5986 -0.3808 -0.2472
18784TIP3    H177843   3.850   3.181  16.392  0.4126 -1.2767 -1.1770
18784TIP3    H277844   3.987   3.115  16.390  0.4488 -1.2312 -0.4072
18785TIP3   OH277845   2.927   2.896  11.247 -0.2067  0.0985 -0.1462
18785TIP3    H177846   2.920   2.965  11.182 -0.9261  0.3881  0.2322
18785TIP3    H277847   2.883   2.931  11.324  0.5902 -0.2566  0.4858
18786TIP3   OH277848   3.157   5.684   1.058 -0.2787 -0.4979 -0.6829
18786TIP3    H177849   3.234   5.690   1.001  1.0282  1.4913  1.1251
18786TIP3    H277850   3.100   5.755   1.028 -0.0781 -0.1346 -0.2136
18787TIP3   OH277851   4.715   1.511  13.371  0.6099  0.3838  0.1123
18787TIP3    H177852   4.768   1.590  13.375 -0.9964  1.5624 -0.8163
18787TIP3    H277853   4.692   1.493  13.463  1.8916  0.3279  0.4377
18788TIP3   OH277854   3.728   1.791  11.420  0.2959 -0.3617  0.7542
18788TIP3    H177855   3.776   1.850  11.479 -0.8811  1.8176 -0.3633
18788TIP3    H277856   3.764   1.810  11.333 -1.5088  0.2514  0.0970
18789TIP3   OH277857   4.487   0.089  15.549 -0.2247 -0.2191  0.1186
18789TIP3    H177858   4.500   0.038  15.629  1.2833  0.9463  0.6569
18789TIP3    H277859   4.434   0.032  15.493 -0.0900 -1.6434  1.3719
18790TIP3   OH277860   0.452   0.725   2.033  0.0292 -0.1749  0.7401
18790TIP3    H177861   0.494   0.639   2.037  0.8270  0.1196 -0.7409
18790TIP3    H277862   0.358   0.705   2.037  0.1908 -1.1370  0.1611
18791TIP3   OH277863   4.461   5.567  12.990  0.8592  1.1125 -0.7922
18791TIP3    H177864   4.391   5.503  12.976  3.4512 -2.5200  1.0740
18791TIP3    H277865   4.431   5.620  13.064  0.8705 -2.1828  1.8622
18792TIP3   OH277866   4.685   3.516  16.559 -0.6606 -0.3994  0.4530
18792TIP3    H177867   4.652   3.604  16.543  1.7845  0.5874  0.4056
18792TIP3    H277868   4.631   3.459  16.505  0.0678  1.5138 -2.4797
18793TIP3   OH277869   4.488   0.583  11.864 -0.2661  0.4018  0.1958
18793TIP3    H177870   4.420   0.518  11.883 -0.2282  0.4919  0.6524
18793TIP3    H277871   4.566   0.550  11.908 -0.0384  0.3499 -0.2456
18794TIP3   OH277872   0.397   5.584   2.815  0.0640  0.1866  0.2047
18794TIP3    H177873   0.363   5.539   2.738 -0.7579 -0.6486  1.0268
18794TIP3    H277874   0.457   5.520   2.855 -0.8708 -0.0868  1.2110
18795TIP3   OH277875   4.051   6.397   0.655  0.0819  0.0136 -0.2716
18795TIP3    H177876   4.134   6.419   0.613 -0.3593  1.6126 -0.3837
18795TIP3    H277877   4.067   6.409   0.748 -0.3364  1.6248 -0.3716
18796TIP3   OH277878   2.539   4.954   2.867  0.7033 -0.7418  0.4128
18796TIP3    H177879   2.466   4.893   2.857 -0.0778  0.3482 -0.9684
18796TIP3    H277880   2.617   4.899   2.865 -0.0113 -1.7781  0.2050
18797TIP3   OH277881   1.518   2.137  13.074  0.5378  0.0496  0.3307
18797TIP3    H177882   1.610   2.163  13.074  0.5866 -0.1123  0.7835
18797TIP3    H277883   1.470   2.220  13.071  0.6980  0.1944  1.2356
18798TIP3   OH277884   4.086   3.968   0.468  0.7279  0.2862 -0.5995
18798TIP3    H177885   4.137   3.935   0.542  1.1963  1.2836 -0.4633
18798TIP3    H277886   4.083   4.063   0.481 -2.1637  0.2126  0.0533
18799TIP3   OH277887   1.040   4.805  11.398  0.1251 -0.2024 -0.1035
18799TIP3    H177888   0.999   4.753  11.330  1.4877  0.9742 -1.9299
18799TIP3    H277889   1.023   4.896  11.372  0.4301  0.2820  1.2973
18800TIP3   OH277890   4.642   3.190   2.665  0.1612  0.1455 -0.0840
18800TIP3    H177891   4.731   3.156   2.676  0.7848  0.8850 -2.2765
18800TIP3    H277892   4.620   3.170   2.574 -2.5123 -1.2795  0.8012
18801TIP3   OH277893   6.772   2.411   4.408  0.0006  0.2883  0.0428
18801TIP3    H177894   6.797   2.414   4.500 -1.2028  0.5367  0.3726
18801TIP3    H277895   6.830   2.345   4.369 -0.8997 -1.4035  1.4290
18802TIP3   OH277896   2.567   0.777  16.917  0.3626 -0.3400  0.0609
18802TIP3    H177897   2.645   0.827  16.942  0.9966 -1.2798  0.0368
18802TIP3    H277898   2.497   0.813  16.972  1.1154 -0.4375  1.1311
18803TIP3   OH277899   2.580   1.004  11.623 -0.3238 -0.4759  0.1176
18803TIP3    H177900   2.618   1.091  11.637 -0.4933 -0.4485  0.4181
18803TIP3    H277901   2.559   0.973  11.711  1.0740 -1.4286  0.1498
18804TIP3   OH277902   4.429   2.116  15.955  0.4047  0.3883  0.4469
18804TIP3    H177903   4.486   2.040  15.971 -0.3334 -0.2845 -0.0569
18804TIP3    H277904   4.459   2.150  15.870 -0.1988 -0.2229 -0.0254
18805TIP3   OH277905   2.920   6.039  12.121 -0.2425  0.4041 -0.1864
18805TIP3    H177906   2.863   6.108  12.157 -2.3934 -2.4683  2.4291
18805TIP3    H277907   3.009   6.068  12.144 -1.1576  1.6514  2.1413
18806TIP3   OH277908   3.652   3.193   0.913  0.6412  0.2993  0.3732
18806TIP3    H177909   3.698   3.269   0.948 -0.3130  0.4590  1.3477
18806TIP3    H277910   3.632   3.216   0.823  0.2451  1.2650  0.6937
18807TIP3   OH277911   2.234   1.455  14.813  0.0296 -0.1310  0.1498
18807TIP3    H177912   2.241   1.460  14.908  0.1877  0.1148  0.1260
18807TIP3    H277913   2.222   1.362  14.795 -0.3476 -0.1419  0.4318
18808TIP3   OH277914   3.441   1.815  16.137 -0.2411  0.0276  0.1533
18808TIP3    H177915   3.502   1.825  16.063 -0.3045 -2.1399 -0.2601
18808TIP3    H277916   3.358   1.788  16.096 -0.0768 -1.9548  1.0195
18809TIP3   OH277917   6.331   0.453   3.086 -0.3194  0.8004  0.2134
18809TIP3    H177918   6.425   0.437   3.073 -0.3435  1.2859 -0.6570
18809TIP3    H277919   6.289   0.369   3.064 -0.2734  1.2999 -2.0467
18810TIP3   OH277920   5.337   4.642   3.673 -0.0253  0.9246 -0.0121
18810TIP3    H177921   5.380   4.556   3.684 -1.4331  0.1760 -0.1832
18810TIP3    H277922   5.400   4.693   3.622  0.7254 -0.0989 -0.1625
18811TIP3   OH277923   4.466   6.642   0.408  0.1774  0.2130  0.0184
18811TIP3    H177924   4.514   6.725   0.415 -0.3825  0.7958 -2.1966
18811TIP3    H277925   4.375   6.669   0.393 -0.4215 -0.8508  1.5291
18812TIP3   OH277926   3.930   2.815   1.141  0.2866 -0.1424  0.1125
18812TIP3    H177927   3.966   2.780   1.059  0.1849  1.0583 -0.4745
18812TIP3    H277928   3.906   2.738   1.192  1.2508 -0.9295 -0.5838
18813TIP3   OH277929   2.485   5.944   2.448  0.9488 -0.3457  0.3401
18813TIP3    H177930   2.561   5.899   2.485  1.6029  0.1217 -0.4164
18813TIP3    H277931   2.522   6.016   2.397  0.1632 -1.6062 -2.1823
18814TIP3   OH277932   2.401   0.376   0.091 -0.0884 -0.2219 -0.1635
18814TIP3    H177933   2.383   0.295   0.139  0.9653  0.3839  1.3256
18814TIP3    H277934   2.468   0.352   0.027  0.4462 -0.4699  0.4821
18815TIP3   OH277935   5.111   4.107  13.831 -0.3250 -0.1655 -0.2866
18815TIP3    H177936   5.104   4.019  13.868 -0.6839 -0.4397 -0.9832
18815TIP3    H277937   5.191   4.143  13.870  0.4868 -1.2460 -0.9107
18816TIP3   OH277938   6.532   1.701   3.625 -0.2920  0.6468  0.4283
18816TIP3    H177939   6.437   1.688   3.624 -0.2910  0.6486  0.2967
18816TIP3    H277940   6.564   1.647   3.553 -0.3642  1.9408 -0.6254
18817TIP3   OH277941   6.210   0.267  15.665 -0.0848 -0.2676 -0.6804
18817TIP3    H177942   6.302   0.245  15.649  0.7542  0.2447  2.6399
18817TIP3    H277943   6.213   0.335  15.733 -2.9117  1.4731 -2.1021
18818TIP3   OH277944   5.453   1.821  11.581 -0.1016 -0.5531 -0.3654
18818TIP3    H177945   5.486   1.821  11.492 -1.4848 -0.0080 -0.9071
18818TIP3    H277946   5.418   1.910  11.594  3.3451  0.6620  2.0146
18819TIP3   OH277947   3.777   0.163  12.319  0.5578 -0.3269  0.1794
18819TIP3    H177948   3.741   0.187  12.233  2.0650  0.3041 -0.3185
18819TIP3    H277949   3.840   0.094  12.300  2.1176  0.9364  0.5121
18820TIP3   OH277950   1.832   0.685  15.380  0.4789 -0.1159 -0.2901
18820TIP3    H177951   1.809   0.772  15.347  1.1407  0.5264  0.8639
18820TIP3    H277952   1.860   0.637  15.303  0.9913  0.9957 -0.8263
18821TIP3   OH277953   4.151   2.569   1.348  0.6769 -0.0340 -0.2377
18821TIP3    H177954   4.161   2.520   1.431  0.5527 -1.0715 -0.8155
18821TIP3    H277955   4.089   2.639   1.369  0.6169 -0.3042  0.5416
18822TIP3   OH277956   2.770   3.431   2.098 -0.0547  0.4020 -0.0467
18822TIP3    H177957   2.851   3.425   2.046 -1.2008  0.0899 -1.9167
18822TIP3    H277958   2.741   3.522   2.086 -0.2106  0.3906  0.2458
18823TIP3   OH277959   5.602   1.752   0.611  0.0827 -0.0372  0.8799
18823TIP3    H177960   5.546   1.709   0.676 -0.0191 -1.6396 -0.1862
18823TIP3    H277961   5.671   1.688   0.593 -0.5580 -0.1982 -1.4092
18824TIP3   OH277962   0.108   0.964  10.620 -0.3149  0.0116  0.2930
18824TIP3    H177963   0.180   1.023  10.642  0.6418 -1.6348  1.8716
18824TIP3    H277964   0.086   0.984  10.529  3.5439 -0.7843 -0.9839
18825TIP3   OH277965   2.745   3.395   4.692  0.9396  0.0836 -0.1173
18825TIP3    H177966   2.809   3.433   4.753  0.3798  1.1321 -0.1682
18825TIP3    H277967   2.798   3.362   4.619  1.4568  0.5505  0.0393
18826TIP3   OH277968   1.156   4.904   1.769 -0.1636 -0.0298 -0.2320
18826TIP3    H177969   1.174   4.817   1.807 -1.1058 -0.3920 -0.6067
18826TIP3    H277970   1.233   4.922   1.715 -0.2768 -0.9460 -0.7132
18827TIP3   OH277971   2.331   3.437   5.208  0.1540 -0.4614 -0.3651
18827TIP3    H177972   2.337   3.520   5.255 -0.8833  0.2513 -1.4085
18827TIP3    H277973   2.419   3.423   5.172 -0.0175  1.0085 -1.4517
18828TIP3   OH277974   6.428   4.706  15.128 -0.0903 -0.3820 -0.4513
18828TIP3    H177975   6.337   4.693  15.154  0.2403 -0.1092  0.9282
18828TIP3    H277976   6.426   4.779  15.067 -0.6091  0.8428  0.9810
18829TIP3   OH277977   1.190   4.728   0.055 -0.4341 -0.2450 -0.0219
18829TIP3    H177978   1.217   4.819   0.071 -1.7130  0.6882 -2.5671
18829TIP3    H277979   1.097   4.734   0.033 -0.6336 -2.2420  0.0889
18830TIP3   OH277980   3.265   1.332  13.748  0.3769  0.1184  0.0920
18830TIP3    H177981   3.281   1.264  13.681 -3.5164 -0.1627 -0.8079
18830TIP3    H277982   3.301   1.295  13.828  2.9477 -0.6691 -1.3100
18831TIP3   OH277983   5.006   5.873   5.256  0.1658  0.2976  0.5172
18831TIP3    H177984   5.010   5.939   5.187  0.8646 -0.4004 -0.1410
18831TIP3    H277985   4.947   5.806   5.222 -0.7833  0.7227  1.3133
18832TIP3   OH277986   6.397   0.982  14.521  0.0541  0.6897 -0.1720
18832TIP3    H177987   6.304   0.979  14.500 -0.0097 -1.9932  0.1954
18832TIP3    H277988   6.441   0.958  14.440  0.7154  4.6751 -1.1917
18833TIP3   OH277989   4.428   0.185  15.079  0.5961  0.2445 -0.8925
18833TIP3    H177990   4.484   0.259  15.100  0.6987 -0.1271  0.1729
18833TIP3    H277991   4.344   0.206  15.118  1.1063 -0.9651  1.0120
18834TIP3   OH277992   2.367   5.151  15.317  0.1591 -0.4767  0.3750
18834TIP3    H177993   2.300   5.206  15.275  1.2056  1.1002  0.6709
18834TIP3    H277994   2.333   5.062  15.310 -0.1359 -0.2073 -3.0199
18835TIP3   OH277995   2.075   3.103   0.622  0.4721 -0.2428 -0.3172
18835TIP3    H177996   2.097   3.068   0.708 -1.6173  0.6096  0.6227
18835TIP3    H277997   2.089   3.029   0.562  0.9143 -1.1856  0.9052
18836TIP3   OH277998   1.909   6.146  15.165 -0.0042  0.1440 -0.0398
18836TIP3    H177999   1.984   6.137  15.224 -1.2198  0.1109  1.5699
18836TIP3    H278000   1.932   6.219  15.107  0.8524  0.8028  1.0903
18837TIP3   OH278001   2.723   4.060   3.649  0.4942 -0.4099  0.1402
18837TIP3    H178002   2.815   4.063   3.624  0.6327  0.8238  0.7233
18837TIP3    H278003   2.680   4.125   3.593 -0.0486 -1.0173 -0.1709
18838TIP3   OH278004   3.527   1.436   5.329 -0.2067 -0.4617  0.5323
18838TIP3    H178005   3.464   1.468   5.393 -0.7137 -0.5112  0.0702
18838TIP3    H278006   3.612   1.464   5.362 -0.4299 -0.8020  1.4048
18839TIP3   OH278007   0.486   1.602  11.661 -0.5416  0.7575 -0.1086
18839TIP3    H178008   0.393   1.590  11.641 -0.5517  0.1418  0.2845
18839TIP3    H278009   0.494   1.694  11.686 -1.5346  0.2436  2.3688
18840TIP3   OH278010   2.982   3.509   0.987 -0.3258  0.1832  0.0077
18840TIP3    H178011   3.013   3.421   0.968  1.5664  0.8681 -0.2345
18840TIP3    H278012   2.904   3.496   1.041  0.3493 -1.6282  0.6048
18841TIP3   OH278013   6.570   2.828   5.344 -0.6328 -0.2566  0.4240
18841TIP3    H178014   6.598   2.744   5.380 -0.4248 -0.7215 -0.7550
18841TIP3    H278015   6.549   2.881   5.420  1.3883 -0.6151  1.3045
18842TIP3   OH278016   4.048   4.263   2.154 -0.0268 -0.4040 -0.5688
18842TIP3    H178017   3.957   4.265   2.124 -0.4201 -1.0974  0.5288
18842TIP3    H278018   4.050   4.195   2.221  1.4339 -0.7824 -0.9541
18843TIP3   OH278019   1.875   0.424  14.204 -0.5892  0.2847  0.7052
18843TIP3    H178020   1.964   0.457  14.191 -0.1948  0.1919  2.8272
18843TIP3    H278021   1.875   0.338  14.161 -0.5265  1.3858 -1.6685
18844TIP3   OH278022   6.135   0.486  12.468 -0.1136  0.2915  0.0669
18844TIP3    H178023   6.069   0.553  12.450 -0.2664 -0.2656 -1.5924
18844TIP3    H278024   6.213   0.516  12.420 -0.1807 -0.6811 -0.6864
18845TIP3   OH278025   5.912   3.745  13.394 -0.0122  0.5569  0.2833
18845TIP3    H178026   5.950   3.743  13.481  0.0198 -0.8222  0.2712
18845TIP3    H278027   5.829   3.697  13.403  0.1726  0.0528 -0.5070
18846TIP3   OH278028   4.825   6.347  13.704 -0.2019 -0.0431  0.7801
18846TIP3    H178029   4.821   6.333  13.799  0.1020 -0.3505  0.7510
18846TIP3    H278030   4.919   6.358  13.686 -0.4147  2.8295  0.8982
18847TIP3   OH278031   3.722   4.324  14.488 -0.1948 -0.2896  0.3800
18847TIP3    H178032   3.628   4.313  14.505 -0.2499  0.4682  0.5919
18847TIP3    H278033   3.732   4.299  14.396 -1.0116  1.7838 -0.3430
18848TIP3   OH278034   3.664   6.743   3.239  0.2972 -0.1862  0.2587
18848TIP3    H178035   3.667   6.760   3.333  0.7284  1.9465 -0.1006
18848TIP3    H278036   3.755   6.744   3.211  0.1391 -0.3122 -0.2769
18849TIP3   OH278037   0.111   0.901   4.871  0.4618  0.2206 -0.2240
18849TIP3    H178038   0.054   0.904   4.795 -0.9828  0.4163  0.8434
18849TIP3    H278039   0.072   0.834   4.928  2.1679 -0.7678 -0.1364
18850TIP3   OH278040   3.702   5.886  14.953  0.4472 -0.1862 -0.1391
18850TIP3    H178041   3.782   5.937  14.940 -0.3222  0.9844 -0.4744
18850TIP3    H278042   3.720   5.830  15.028  1.8619 -0.5490 -0.7204
18851TIP3   OH278043   1.854   4.747   3.853  0.0824  0.0004 -0.1400
18851TIP3    H178044   1.924   4.696   3.893  0.1786 -0.5664 -0.9984
18851TIP3    H278045   1.775   4.696   3.872  0.2544 -0.8498 -1.5529
18852TIP3   OH278046   0.417   2.382  15.459 -0.0940 -0.0599 -0.0780
18852TIP3    H178047   0.471   2.305  15.440  0.2151  0.2387 -0.4043
18852TIP3    H278048   0.340   2.346  15.503 -1.2785 -0.8853 -2.6637
18853TIP3   OH278049   6.108   5.252   0.526 -0.6343 -0.2766 -0.0517
18853TIP3    H178050   6.171   5.323   0.517  0.1537 -1.0272 -0.6308
18853TIP3    H278051   6.042   5.285   0.587 -0.0400  0.7723  0.0337
18854TIP3   OH278052   3.763   5.546   6.056  0.2066 -0.1760  0.0835
18854TIP3    H178053   3.726   5.597   6.127  0.9198 -1.3224  1.3153
18854TIP3    H278054   3.857   5.567   6.056  0.1360  0.2137 -0.8748
18855TIP3   OH278055   2.880   2.665  15.339  0.4968 -0.2992 -0.0633
18855TIP3    H178056   2.968   2.650  15.304  0.5646 -0.6276  0.2460
18855TIP3    H278057   2.894   2.719  15.417  0.3909 -0.0455 -0.2168
18856TIP3   OH278058   2.750   4.928  14.023  0.3108 -0.0850  0.6779
18856TIP3    H178059   2.665   4.907  13.985 -0.7563  2.3168  1.5326
18856TIP3    H278060   2.795   4.843  14.029 -1.5924 -1.2901 -0.7233
18857TIP3   OH278061   3.442   6.268   0.465 -0.0292  0.3178 -0.0236
18857TIP3    H178062   3.478   6.206   0.528  1.2626  1.4040  0.3358
18857TIP3    H278063   3.398   6.213   0.400 -0.4773 -0.8687  1.2445
18858TIP3   OH278064   0.769   4.118  12.849 -0.4517 -0.0015 -0.3308
18858TIP3    H178065   0.782   4.034  12.893 -0.3519 -0.5974 -1.4497
18858TIP3    H278066   0.687   4.152  12.886 -0.5835 -0.6712  0.0090
18859TIP3   OH278067   5.813   6.093   0.013  0.7128  0.2492 -0.0457
18859TIP3    H178068   5.902   6.066  -0.010  1.0269  1.2655 -0.0498
18859TIP3    H278069   5.807   6.183  -0.018 -0.7498 -0.2160 -1.2221
18860TIP3   OH278070   0.210   2.520   4.033  0.3641  0.2106  0.2382
18860TIP3    H178071   0.159   2.452   4.078 -1.4157  0.5438 -1.1796
18860TIP3    H278072   0.197   2.599   4.086  1.4461 -0.2375  1.2171
18861TIP3   OH278073   0.311   2.992  15.291 -0.1572  0.1296  0.2254
18861TIP3    H178074   0.369   3.068  15.288 -1.5275  1.2953  1.6541
18861TIP3    H278075   0.310   2.966  15.383 -2.0675  0.3160  0.2926
18862TIP3   OH278076   6.589   2.657  14.642  0.3065 -1.1914  0.8878
18862TIP3    H178077   6.504   2.648  14.598 -0.8745  0.7644  2.6019
18862TIP3    H278078   6.644   2.701  14.577 -1.0388  0.5499  0.8413
18863TIP3   OH278079   3.045   4.791  11.997  0.0152  0.3535 -0.2050
18863TIP3    H178080   3.066   4.883  12.009  0.0473  0.3025  0.1224
18863TIP3    H278081   3.085   4.746  12.071  1.7506 -0.1902 -1.4067
18864TIP3   OH278082   5.224   5.513  14.793 -0.2618 -0.1150  0.3714
18864TIP3    H178083   5.176   5.596  14.792  0.6571  0.4189  0.1409
18864TIP3    H278084   5.311   5.535  14.824  0.3558 -0.7897 -0.7883
18865TIP3   OH278085   4.677   5.955  11.769  0.2506 -0.3570  0.0367
18865TIP3    H178086   4.612   5.981  11.704 -0.2930 -1.5165  0.0818
18865TIP3    H278087   4.626   5.933  11.847  0.9334  1.5716  1.0866
18866TIP3   OH278088   2.735   2.550  16.843 -0.7619  0.0237  0.5730
18866TIP3    H178089   2.812   2.596  16.809 -0.4356 -0.9453 -0.0277
18866TIP3    H278090   2.768   2.504  16.921 -1.1403  0.9531  1.3073
18867TIP3   OH278091   6.327   5.425  12.162 -1.1197 -0.1716 -0.3582
18867TIP3    H178092   6.265   5.450  12.093 -0.3525  3.7514  0.1392
18867TIP3    H278093   6.283   5.448  12.244  0.1537  0.6475  0.1193
18868TIP3   OH278094   4.000   3.822   3.483  0.3766 -0.1708 -0.2600
18868TIP3    H178095   4.007   3.734   3.518 -0.3300 -0.4351 -0.7690
18868TIP3    H278096   4.004   3.879   3.560 -1.4801 -0.7517  0.3202
18869TIP3   OH278097   4.141   6.793   4.287 -0.4490 -0.0369 -0.5514
18869TIP3    H178098   4.218   6.850   4.293  0.3264 -1.1303  0.1221
18869TIP3    H278099   4.089   6.815   4.364  1.1077 -1.9702  1.1714
18870TIP3   OH278100   4.491   0.942  12.456 -0.5266  0.2659  0.2700
18870TIP3    H178101   4.451   0.865  12.414  0.8025  0.2789 -1.1045
18870TIP3    H278102   4.462   1.016  12.403 -0.0439  0.4510  0.2538
18871TIP3   OH278103   0.957   1.312  10.923  0.5670 -0.0702  0.6051
18871TIP3    H178104   1.017   1.342  10.855 -0.7716 -0.7894 -0.9505
18871TIP3    H278105   0.977   1.367  10.999  0.3167  2.6413 -1.1582
18872TIP3   OH278106   4.437   3.369  12.842 -0.3138  0.0180 -0.2038
18872TIP3    H178107   4.439   3.361  12.937  1.3987  0.7185 -0.1306
18872TIP3    H278108   4.434   3.279  12.810 -1.8973 -0.2019  0.4904
18873TIP3   OH278109   4.598   0.008  16.079  0.1408 -0.1311  0.2479
18873TIP3    H178110   4.683   0.053  16.082  0.0496  0.4229 -2.8231
18873TIP3    H278111   4.620  -0.085  16.076  0.5207 -0.1007  1.5337
18874TIP3   OH278112   2.422   4.759   4.355  0.1898 -0.0500  0.4911
18874TIP3    H178113   2.496   4.706   4.326 -1.8186 -2.0538 -1.2496
18874TIP3    H278114   2.436   4.844   4.314  0.9484 -0.7614 -0.7883
18875TIP3   OH278115   2.935   0.211   3.595 -0.2110  0.0173 -0.4547
18875TIP3    H178116   2.931   0.137   3.654 -1.5377 -0.2627 -0.8602
18875TIP3    H278117   3.027   0.238   3.595 -0.2337  0.2613  1.9833
18876TIP3   OH278118   0.782   2.178   2.556 -0.5221  0.1329 -0.6096
18876TIP3    H178119   0.849   2.149   2.494  0.2158  0.4589  0.0111
18876TIP3    H278120   0.767   2.102   2.612  0.9342  0.6919  0.6060
18877TIP3   OH278121   2.925   4.239  14.735  0.6418 -0.1997  0.2628
18877TIP3    H178122   2.947   4.332  14.738 -1.2594  0.3004  0.4091
18877TIP3    H278123   2.833   4.238  14.707  0.2499 -1.9526  1.4585
18878TIP3   OH278124   6.513   6.495   4.872 -0.0001  0.4568 -0.3030
18878TIP3    H178125   6.584   6.506   4.809 -0.0248  0.3095 -0.3577
18878TIP3    H278126   6.550   6.524   4.955  0.0840  0.4996 -0.3560
18879TIP3   OH278127   4.372   4.805   2.506  0.4238 -0.0338 -0.2883
18879TIP3    H178128   4.384   4.736   2.441  0.7056  0.4100 -0.7191
18879TIP3    H278129   4.277   4.815   2.513  0.3653  1.4970 -2.3719
18880TIP3   OH278130   1.250   5.637  16.858 -0.2461 -0.1188 -0.1869
18880TIP3    H178131   1.169   5.586  16.872 -1.1020  1.1286 -0.4063
18880TIP3    H278132   1.222   5.712  16.805  1.4192 -0.5877 -1.8039
18881TIP3   OH278133   0.920   3.036  14.114  0.0741 -0.1596  0.0825
18881TIP3    H178134   0.963   3.012  14.196  0.1525  1.4223  0.5389
18881TIP3    H278135   0.989   3.079  14.063 -0.2381 -0.1902 -0.3684
18882TIP3   OH278136   5.626   5.548  10.927 -0.4047 -0.9758 -0.0310
18882TIP3    H178137   5.697   5.546  10.991 -0.4004  0.9344  0.0701
18882TIP3    H278138   5.637   5.467  10.877  1.5599 -0.9588  0.2858
18883TIP3   OH278139   0.138   4.663  17.068 -0.4567 -0.2305 -0.4142
18883TIP3    H178140   0.074   4.657  16.997 -0.0565 -2.0362 -0.6950
18883TIP3    H278141   0.165   4.572  17.083 -0.1551  0.1597  1.7266
18884TIP3   OH278142   4.331   1.471   0.468  0.3096  0.0813 -0.1928
18884TIP3    H178143   4.319   1.561   0.436 -0.1182  0.3504  0.6726
18884TIP3    H278144   4.371   1.424   0.395 -0.2471  0.7629 -0.9545
18885TIP3   OH278145   1.054   5.597  14.372  0.2507 -0.0128 -0.0572
18885TIP3    H178146   0.969   5.605  14.329  0.2515  1.2767  0.1443
18885TIP3    H278147   1.112   5.565  14.303 -0.4223 -1.0983 -0.1438
18886TIP3   OH278148   6.486   4.801  12.598 -0.2088  0.4992 -0.1034
18886TIP3    H178149   6.565   4.748  12.583 -0.2337  0.7018 -1.0593
18886TIP3    H278150   6.497   4.876  12.538 -1.7674 -0.1822 -1.3047
18887TIP3   OH278151   0.326   6.603  12.058  0.9395 -0.0502  0.0862
18887TIP3    H178152   0.285   6.537  12.114  0.5416  0.5882  0.5739
18887TIP3    H278153   0.375   6.658  12.120 -0.3517  1.2936 -0.0270
18888TIP3   OH278154   6.708   2.506  17.038  0.3054  0.5247  0.6431
18888TIP3    H178155   6.722   2.589  16.991 -0.9650  0.1456 -0.4838
18888TIP3    H278156   6.616   2.508  17.062 -0.6541 -1.8532 -2.1868
18889TIP3   OH278157   1.418   6.510   1.412 -0.3127  0.0213  0.2472
18889TIP3    H178158   1.494   6.503   1.354 -1.5122 -1.2869 -1.2643
18889TIP3    H278159   1.431   6.591   1.460  0.3808  1.5891 -2.4302
18890TIP3   OH278160   4.169   1.056  11.589  0.0757  0.1730 -0.3541
18890TIP3    H178161   4.133   1.106  11.663 -0.4375 -1.3043  0.4312
18890TIP3    H278162   4.156   1.113  11.513 -1.8449  0.6617  0.2836
18891TIP3   OH278163   1.748   1.947   1.136 -0.2496 -0.3130 -0.3296
18891TIP3    H178164   1.693   1.894   1.193  0.8675 -1.4562 -0.2534
18891TIP3    H278165   1.742   1.904   1.050  0.2601 -0.2742 -0.3896
18892TIP3   OH278166   3.723   1.476  15.540  0.3963  1.1083  0.0362
18892TIP3    H178167   3.722   1.381  15.535 -1.0113  1.1484 -1.1778
18892TIP3    H278168   3.810   1.502  15.511  0.0685  0.2594 -1.8256
18893TIP3   OH278169   2.486   4.875  11.530 -0.0030  0.6069 -0.0910
18893TIP3    H178170   2.563   4.836  11.572  0.0366 -0.3196 -0.9633
18893TIP3    H278171   2.523   4.928  11.459 -0.1286  0.8858  0.0535
18894TIP3   OH278172   4.910   5.206  14.428 -0.0059  0.4809  0.3663
18894TIP3    H178173   4.906   5.132  14.368  0.9449  0.8813 -0.2013
18894TIP3    H278174   5.003   5.219  14.445 -0.0039  2.5914 -0.8688
18895TIP3   OH278175   3.336   1.809   6.745 -0.0285  0.9278  0.2977
18895TIP3    H178176   3.364   1.821   6.655 -0.2712  1.9852  0.3446
18895TIP3    H278177   3.388   1.873   6.795  0.6185 -0.1223  1.0179
18896TIP3   OH278178   5.584   2.559   3.657 -0.4290 -0.3404 -0.2073
18896TIP3    H178179   5.555   2.617   3.728  0.3479 -0.4241  0.1887
18896TIP3    H278180   5.671   2.591   3.634  0.3274 -1.8018  0.5267
18897TIP3   OH278181   4.156   4.160  12.679 -0.1066  0.0216 -0.2378
18897TIP3    H178182   4.188   4.071  12.661  0.1870 -0.5286  2.6020
18897TIP3    H278183   4.214   4.217  12.627  1.0026 -1.3402 -0.5490
18898TIP3   OH278184   1.222   5.899  13.562  0.0466  0.4663  0.0126
18898TIP3    H178185   1.305   5.862  13.533  0.1613  0.3213  0.5264
18898TIP3    H278186   1.246   5.966  13.625 -0.1625  1.3910 -0.8631
18899TIP3   OH278187   3.778   3.893  15.597  0.2504  0.3297  0.0413
18899TIP3    H178188   3.798   3.941  15.517  0.8243 -0.3061 -0.2003
18899TIP3    H278189   3.807   3.804  15.580 -0.1970  0.0443  0.7324
18900TIP3   OH278190   2.085   2.884  11.612  0.3182  0.2652  0.4390
18900TIP3    H178191   2.001   2.893  11.657  0.1402  0.9724 -0.0028
18900TIP3    H278192   2.067   2.826  11.539  0.5886 -0.8193  1.2153
18901TIP3   OH278193   3.972   4.416  13.531 -0.0592 -0.3202 -0.0209
18901TIP3    H178194   3.957   4.468  13.610 -2.8098 -2.1446  0.7718
18901TIP3    H278195   3.970   4.480  13.460 -0.5429  0.9902  1.1275
18902TIP3   OH278196   0.115   2.529   5.087 -1.0641  0.4411  0.0782
18902TIP3    H178197   0.131   2.553   4.996 -0.1505 -0.8237 -0.1250
18902TIP3    H278198   0.054   2.595   5.119 -2.0366  0.4477 -1.6833
18903TIP3   OH278199   1.806   4.728   5.425 -0.4707  0.1818 -0.1473
18903TIP3    H178200   1.764   4.791   5.484  0.9063  1.8852 -0.8789
18903TIP3    H278201   1.887   4.704   5.470  0.3470  1.1088 -1.0729
18904TIP3   OH278202   4.004   2.656   1.785  0.9615 -0.5664  0.0263
18904TIP3    H178203   3.989   2.740   1.741  2.2007 -1.4023 -2.1653
18904TIP3    H278204   4.025   2.680   1.875 -1.5201  1.2583  0.2359
18905TIP3   OH278205   4.408   1.571   1.514 -0.1981  0.3166 -0.5100
18905TIP3    H178206   4.316   1.597   1.525 -0.0904  1.1853 -1.5117
18905TIP3    H278207   4.404   1.488   1.467 -0.4811 -0.0642  0.1733
18906TIP3   OH278208   1.792   5.461  11.041  0.2969  0.0971  0.3489
18906TIP3    H178209   1.734   5.407  11.095 -1.1957  0.3518 -0.9147
18906TIP3    H278210   1.757   5.452  10.952  1.8030  0.8265 -0.3474
18907TIP3   OH278211   4.669   2.356   7.089  0.3199  0.2250 -0.2106
18907TIP3    H178212   4.586   2.395   7.061 -1.1518 -1.6915  1.1702
18907TIP3    H278213   4.686   2.288   7.025  0.0246 -0.3265  0.2811
18908TIP3   OH278214   0.175   5.767  14.523 -0.0074  0.1387 -0.2518
18908TIP3    H178215   0.207   5.683  14.558  1.6747  0.8162 -0.0874
18908TIP3    H278216   0.154   5.748  14.432 -0.2740 -0.6057 -0.0508
18909TIP3   OH278217   4.081   6.619  15.977 -0.7647  0.4813  0.1476
18909TIP3    H178218   4.084   6.706  16.018  0.4878  0.2257  0.6538
18909TIP3    H278219   4.001   6.620  15.925 -1.1585  1.6738  0.7344
18910TIP3   OH278220   0.216   1.789   3.806  0.6625 -0.2094 -0.1792
18910TIP3    H178221   0.269   1.747   3.874  0.0496  1.0428  1.1161
18910TIP3    H278222   0.159   1.719   3.774 -0.4375 -0.3881  2.0266
18911TIP3   OH278223   2.886   5.285  14.891 -0.3449  0.1352  0.2917
18911TIP3    H178224   2.912   5.205  14.846 -3.4865 -1.1421  0.5400
18911TIP3    H278225   2.929   5.279  14.976 -0.3748 -1.2122  0.2388
18912TIP3   OH278226   0.654   2.708  14.626  0.3176  0.0495 -0.4748
18912TIP3    H178227   0.564   2.677  14.631  0.5212 -1.0367 -2.4452
18912TIP3    H278228   0.664   2.766  14.701 -1.9670  0.0693 -0.1208
18913TIP3   OH278229   0.125   6.379  15.946 -0.0967 -0.0798 -0.3660
18913TIP3    H178230   0.121   6.336  15.861 -0.3356 -2.9354  0.9956
18913TIP3    H278231   0.203   6.344  15.988 -0.5202  0.5158  0.9829
18914TIP3   OH278232   5.751   1.085   5.244 -0.3245  0.2188 -0.3189
18914TIP3    H178233   5.774   1.058   5.333  1.6869 -0.9336 -1.1251
18914TIP3    H278234   5.698   1.165   5.256  1.5885  1.2740  1.8532
18915TIP3   OH278235   2.069   5.483  16.691 -0.4173 -0.1938 -0.2381
18915TIP3    H178236   2.032   5.457  16.775 -1.1878 -0.1040 -0.5488
18915TIP3    H278237   2.099   5.401  16.651  1.9420 -0.0567  1.0256
18916TIP3   OH278238   3.223   2.755  14.551 -0.2215 -0.3711  0.1818
18916TIP3    H178239   3.192   2.774  14.462 -0.4050  1.9476  0.6644
18916TIP3    H278240   3.143   2.750  14.603 -0.0616 -0.6250  0.4065
18917TIP3   OH278241   3.848   1.107  16.168 -0.2997 -0.2234 -0.0331
18917TIP3    H178242   3.831   1.179  16.108 -0.0903 -0.1379  0.0075
18917TIP3    H278243   3.929   1.132  16.213 -0.9130  0.1412  0.9165
18918TIP3   OH278244   6.785   2.008   0.069  0.2777  0.1705  0.0253
18918TIP3    H178245   6.710   1.955   0.093 -0.9366  2.0999  0.7184
18918TIP3    H278246   6.844   2.003   0.144  0.1818 -0.2021  0.0747
18919TIP3   OH278247   1.905   2.094  16.720 -0.1177 -0.3535 -0.2977
18919TIP3    H178248   1.893   2.188  16.736 -0.2868 -0.6302  1.2823
18919TIP3    H278249   1.999   2.080  16.732 -0.3111 -0.6428  1.0125
18920TIP3   OH278250   3.193   4.711   3.067  0.1354  0.3513  0.2075
18920TIP3    H178251   3.268   4.655   3.049  1.5400  2.1261  0.2491
18920TIP3    H278252   3.175   4.699   3.160 -0.7046 -1.2876 -0.1353
18921TIP3   OH278253   2.649   4.487   3.321  0.1473 -0.0401  0.3644
18921TIP3    H178254   2.741   4.474   3.299  0.4491 -1.6344  2.2612
18921TIP3    H278255   2.647   4.573   3.364  1.0183 -0.5075  1.4049
18922TIP3   OH278256   3.593   3.856   4.981  0.0981 -0.0471 -0.1716
18922TIP3    H178257   3.672   3.908   4.963 -0.1270  0.2093 -0.4286
18922TIP3    H278258   3.526   3.921   5.002  0.7571 -0.3383  3.4635
18923TIP3   OH278259   6.017   5.480  14.762  0.2593  0.3817  0.4630
18923TIP3    H178260   6.034   5.387  14.748 -2.1058 -0.7873  4.0087
18923TIP3    H278261   6.072   5.504  14.836  1.2778  2.0619 -0.7642
18924TIP3   OH278262   4.713   3.061   6.168  0.3610  0.5827  0.3022
18924TIP3    H178263   4.716   2.979   6.118 -0.9929 -1.1670  2.8042
18924TIP3    H278264   4.654   3.117   6.119 -1.6746 -1.4065  0.2794
18925TIP3   OH278265   6.023   1.109  14.229  0.8718 -0.3574  0.9218
18925TIP3    H178266   6.093   1.103  14.163  0.1403 -0.2930  0.1139
18925TIP3    H278267   6.000   1.018  14.248  2.6399 -0.4665  2.8379
18926TIP3   OH278268   2.223   5.249   5.835 -0.1037 -0.2668  0.2312
18926TIP3    H178269   2.228   5.184   5.906  1.3974  1.2207  1.5619
18926TIP3    H278270   2.157   5.312   5.865 -0.0050 -0.0334 -0.0437
18927TIP3   OH278271   4.917   2.825  13.129  0.4082  0.5048  0.0103
18927TIP3    H178272   4.955   2.857  13.047 -2.7441  0.2460 -1.7207
18927TIP3    H278273   4.979   2.759  13.160  0.6005 -1.2045 -3.5419
18928TIP3   OH278274   5.586   4.951   0.257  0.0372 -0.1164 -0.0332
18928TIP3    H178275   5.643   4.946   0.180  0.1345 -1.0102  0.0793
18928TIP3    H278276   5.610   4.874   0.309 -0.1276  0.4012  0.8190
18929TIP3   OH278277   5.893   4.031  15.836 -0.0410 -0.1766 -0.0581
18929TIP3    H178278   5.956   3.959  15.829  0.5164  0.3603 -0.7954
18929TIP3    H278279   5.929   4.100  15.779  0.2451  1.2720  1.7756
18930TIP3   OH278280   3.105   2.377   3.444  0.8676 -0.2396 -0.5402
18930TIP3    H178281   3.158   2.332   3.510 -0.8377  0.3771  1.3643
18930TIP3    H278282   3.117   2.470   3.463 -0.8065 -0.0898 -0.0921
18931TIP3   OH278283   1.627   2.112  16.135  0.3294  0.2355 -0.1201
18931TIP3    H178284   1.644   2.034  16.082 -0.3072  0.7348 -1.1053
18931TIP3    H278285   1.711   2.157  16.141  0.6006 -0.2893  0.0750
18932TIP3   OH278286   6.411   0.207  14.317 -0.4879  0.0480  0.0264
18932TIP3    H178287   6.360   0.242  14.389 -0.2544  1.2215 -0.3501
18932TIP3    H278288   6.402   0.112  14.324 -1.7571  0.1963  0.6510
18933TIP3   OH278289   4.720   6.068  12.567  0.5097 -0.2912  0.3317
18933TIP3    H178290   4.667   5.991  12.546 -1.2389  1.2853 -1.5292
18933TIP3    H278291   4.657   6.141  12.568  2.4922  1.5698 -1.1708
18934TIP3   OH278292   5.233   5.954  15.549  0.4680  0.3783  0.3614
18934TIP3    H178293   5.220   5.933  15.642  0.5930  0.3075  0.3637
18934TIP3    H278294   5.240   6.050  15.548  1.6390  0.3131  0.5798
18935TIP3   OH278295   5.350   5.266  11.275  0.4278 -0.0421  0.2982
18935TIP3    H178296   5.388   5.258  11.188 -2.0355  0.1022 -0.8538
18935TIP3    H278297   5.387   5.347  11.310  2.4586 -0.7711 -0.0139
18936TIP3   OH278298   6.075   2.114   2.936  0.4326  0.0030 -0.3644
18936TIP3    H178299   6.157   2.085   2.976  0.1199  0.1563  0.3978
18936TIP3    H278300   6.087   2.098   2.842  2.2964  2.2694 -0.6057
18937TIP3   OH278301   2.627   2.143  11.170 -0.3841 -0.2206 -0.6024
18937TIP3    H178302   2.537   2.114  11.187 -0.6140 -0.4730 -2.0801
18937TIP3    H278303   2.672   2.064  11.141  0.4139 -0.1574  0.4305
18938TIP3   OH278304   3.647   6.711  12.297 -0.0311  0.0439 -0.0581
18938TIP3    H178305   3.670   6.725  12.205  1.7466 -0.8387  0.2043
18938TIP3    H278306   3.552   6.700  12.296 -0.0731  0.1971 -1.7674
18939TIP3   OH278307   0.057   3.187  15.383 -0.4925  0.7023  0.3129
18939TIP3    H178308   0.151   3.169  15.372 -0.3549  0.2093  1.9233
18939TIP3    H278309   0.054   3.275  15.421 -0.4495 -0.2621  2.7699
18940TIP3   OH278310   2.202   4.876  13.214 -0.2876  0.0537  0.0715
18940TIP3    H178311   2.223   4.870  13.308 -1.2257  0.4716  0.3162
18940TIP3    H278312   2.128   4.936  13.210  0.1171  0.4929 -1.0070
18941TIP3   OH278313   5.034   1.888  15.964 -0.0548 -0.5014 -0.0254
18941TIP3    H178314   5.127   1.913  15.965 -0.1822  0.5975  4.3537
18941TIP3    H278315   5.034   1.794  15.977  0.4044 -0.5326 -0.2164
18942TIP3   OH278316   1.725   4.744  12.235  0.6811 -0.0843  0.0790
18942TIP3    H178317   1.712   4.838  12.248  0.2714 -0.1576  0.2107
18942TIP3    H278318   1.691   4.727  12.147 -1.2984 -0.4867  0.8658
18943TIP3   OH278319   5.794   2.766   3.952  0.3061  0.0032  0.2601
18943TIP3    H178320   5.881   2.731   3.967  0.2031  0.5666  2.3982
18943TIP3    H278321   5.771   2.812   4.033 -1.4573  0.9770 -0.7137
18944TIP3   OH278322   1.773   0.948   3.249 -0.1854 -0.5273  0.3704
18944TIP3    H178323   1.828   0.886   3.200 -0.3258 -0.5370  0.2244
18944TIP3    H278324   1.836   1.008   3.290 -0.0040 -1.2498  1.1824
18945TIP3   OH278325   3.570   4.011  13.037 -0.3416  0.3065  0.3076
18945TIP3    H178326   3.539   4.086  13.087  0.2930  1.0736 -0.4296
18945TIP3    H278327   3.663   4.028  13.022 -0.6399  0.4588 -1.6961
18946TIP3   OH278328   1.866   6.020  17.055 -0.3902 -0.0325 -0.0004
18946TIP3    H178329   1.915   5.938  17.053  0.3353  0.3885  0.1816
18946TIP3    H278330   1.856   6.040  17.148 -0.8302 -0.0620 -0.0375
18947TIP3   OH278331   2.824   2.157   0.677 -0.1035 -0.1116  0.1102
18947TIP3    H178332   2.811   2.096   0.750  1.1249 -2.2992 -1.4021
18947TIP3    H278333   2.918   2.153   0.660 -0.0971  1.8009 -0.4344
18948TIP3   OH278334   2.731   4.700  11.592 -0.0506 -0.0015 -0.6869
18948TIP3    H178335   2.801   4.662  11.646 -0.7010 -1.6805 -0.9819
18948TIP3    H278336   2.747   4.666  11.504  0.0049  1.3554 -1.2248
18949TIP3   OH278337   0.953   4.769   3.042 -0.2356 -0.5812  0.0648
18949TIP3    H178338   1.000   4.687   3.059 -1.0230 -0.7934  1.3840
18949TIP3    H278339   1.019   4.837   3.050 -0.0768 -0.8855  1.8043
18950TIP3   OH278340   6.724   4.495  14.727 -0.0517  0.0917 -0.1500
18950TIP3    H178341   6.701   4.436  14.655  0.4753  0.0428 -0.2883
18950TIP3    H278342   6.642   4.512  14.772  0.0023 -2.1450  0.9451
18951TIP3   OH278343   2.059   3.288  16.393  0.2752  0.2369 -0.4228
18951TIP3    H178344   2.045   3.379  16.418  0.1724  0.1331 -0.0902
18951TIP3    H278345   2.151   3.284  16.367 -0.0551  0.7179 -1.7258
18952TIP3   OH278346   0.629   1.965   0.370  0.1664 -0.3766 -0.0483
18952TIP3    H178347   0.652   2.056   0.391 -1.2082 -0.2354  1.0468
18952TIP3    H278348   0.595   1.930   0.453 -0.6363 -1.4553 -0.8106
18953TIP3   OH278349   5.892   4.092   5.448 -0.4701 -0.1522  0.0209
18953TIP3    H178350   5.844   4.010   5.463 -0.3832 -0.2764 -0.3783
18953TIP3    H278351   5.927   4.084   5.359 -1.2541  0.7277 -0.3773
18954TIP3   OH278352   6.716   0.582  12.813  0.2548 -0.5315 -0.6842
18954TIP3    H178353   6.784   0.549  12.872  0.2699 -0.7230 -0.8064
18954TIP3    H278354   6.760   0.649  12.761 -0.3455  1.3905  1.1456
18955TIP3   OH278355   0.011   2.179  14.134  0.0232  0.2297 -0.7291
18955TIP3    H178356   0.048   2.109  14.081 -1.3183 -1.2055  0.1637
18955TIP3    H278357  -0.071   2.201  14.090 -1.8892 -2.0519  1.4729
18956TIP3   OH278358   0.955   4.157   5.253  0.6929 -0.2810 -0.6852
18956TIP3    H178359   1.008   4.082   5.224  1.4813 -0.9117  2.1115
18956TIP3    H278360   0.900   4.122   5.322  0.7136  1.6172  0.3578
18957TIP3   OH278361   4.093   3.543   2.198 -0.0104  0.1580 -0.1397
18957TIP3    H178362   4.075   3.543   2.104  1.6612  0.5092 -0.4870
18957TIP3    H278363   4.130   3.457   2.215 -1.9529 -0.5838  0.5783
18958TIP3   OH278364   4.672   4.333   0.584 -0.1662 -0.4871  0.4660
18958TIP3    H178365   4.687   4.398   0.515  0.2134  0.6268  1.5478
18958TIP3    H278366   4.581   4.308   0.573 -0.7558  1.3062  0.8616
18959TIP3   OH278367   0.968   2.340   0.604 -0.0247 -0.3992  0.2694
18959TIP3    H178368   0.949   2.433   0.615 -0.3408 -0.3788 -0.4055
18959TIP3    H278369   1.027   2.319   0.676  2.4375  0.9948 -1.2222
18960TIP3   OH278370   6.101   4.303  11.862  0.1527 -0.2476 -0.4451
18960TIP3    H178371   6.076   4.323  11.772  2.1829 -0.5527 -1.1242
18960TIP3    H278372   6.187   4.344  11.873  0.9758 -2.1144  0.5832
18961TIP3   OH278373   5.217   0.815  13.974  0.6011 -0.1144  0.5599
18961TIP3    H178374   5.152   0.770  13.921  0.5066 -1.5174  1.8127
18961TIP3    H278375   5.172   0.833  14.057  0.7988  1.8826  0.2849
18962TIP3   OH278376   0.496   5.074   5.298  0.0267  0.4356  0.6170
18962TIP3    H178377   0.546   5.155   5.308 -1.4159  1.2854  1.2905
18962TIP3    H278378   0.536   5.030   5.223 -0.0403  2.4445 -0.6633
18963TIP3   OH278379   6.424   2.358   1.463 -0.3562  0.1815 -0.1838
18963TIP3    H178380   6.479   2.367   1.385  0.8993  2.1277  0.8434
18963TIP3    H278381   6.404   2.447   1.489 -2.1258 -0.4572  0.8079
18964TIP3   OH278382   3.892   3.659  15.447  0.6834  0.2238  0.2560
18964TIP3    H178383   3.982   3.667  15.478  0.8461  0.3676 -0.2501
18964TIP3    H278384   3.878   3.565  15.437  1.5707  0.2610 -1.9347
18965TIP3   OH278385   6.742   4.655   4.693 -0.1118 -0.0395  0.0576
18965TIP3    H178386   6.758   4.705   4.774  2.0784  0.1658 -0.4521
18965TIP3    H278387   6.829   4.639   4.657 -0.8954 -2.1825 -1.0631
18966TIP3   OH278388   2.671   3.257   2.510  0.0619 -0.0859  0.3320
18966TIP3    H178389   2.656   3.340   2.465  1.3283  0.5289  0.9991
18966TIP3    H278390   2.708   3.199   2.443  1.1374  0.5572  0.3564
18967TIP3   OH278391   0.567   2.843  13.630  0.3706 -0.5962 -0.3060
18967TIP3    H178392   0.513   2.863  13.554  0.6417 -0.4233 -0.4525
18967TIP3    H278393   0.538   2.906  13.697  1.2878  0.3613 -0.7957
18968TIP3   OH278394   6.708   1.731  13.205  0.4592  0.1644  0.1324
18968TIP3    H178395   6.671   1.760  13.122 -2.4485  1.1941  1.6719
18968TIP3    H278396   6.760   1.805  13.235  0.1951  0.4022  0.0038
18969TIP3   OH278397   1.994   0.403  13.413  0.1472  0.4964 -0.1404
18969TIP3    H178398   1.980   0.365  13.500 -1.3037 -1.7089 -1.2342
18969TIP3    H278399   1.914   0.454  13.397 -0.7576 -1.1404 -1.1017
18970TIP3   OH278400   3.254   6.184  16.539 -0.4745  0.0448 -0.5609
18970TIP3    H178401   3.179   6.125  16.545  1.5656 -2.6218  1.2840
18970TIP3    H278402   3.254   6.231  16.623 -1.7425  2.4675 -1.7850
18971TIP3   OH278403   6.018   5.178  12.425 -0.8589 -0.3041  0.0216
18971TIP3    H178404   5.935   5.203  12.386 -1.5149  0.4617  1.8063
18971TIP3    H278405   6.017   5.217  12.512  0.4137 -2.1421  0.9337
18972TIP3   OH278406   4.512   0.950  14.330 -0.0891  0.2803 -0.2274
18972TIP3    H178407   4.521   0.952  14.235  0.9498  0.1633 -0.1420
18972TIP3    H278408   4.478   0.863  14.349 -3.8221  1.4258 -0.7175
18973TIP3   OH278409   2.993   1.231   2.854  0.2065 -0.1140 -0.2078
18973TIP3    H178410   2.981   1.191   2.767 -1.5165  1.6813 -0.8618
18973TIP3    H278411   2.944   1.174   2.913 -1.3135  0.3808 -0.9487
18974TIP3   OH278412   1.985   5.062  11.239  0.2111  0.1901  0.1689
18974TIP3    H178413   1.927   4.992  11.208 -1.2907  0.8819  1.3252
18974TIP3    H278414   1.929   5.117  11.293  2.3004 -0.0602  2.7695
18975TIP3   OH278415   3.671   0.295  15.161 -0.0601  0.9113 -0.4049
18975TIP3    H178416   3.579   0.268  15.159  0.6845 -1.8690 -0.9101
18975TIP3    H278417   3.691   0.305  15.254  0.0981 -2.5247  0.0489
18976TIP3   OH278418   5.378   4.814   5.681  0.2549 -0.4397  0.2438
18976TIP3    H178419   5.452   4.860   5.720  1.8927 -0.6586 -2.3321
18976TIP3    H278420   5.332   4.881   5.630 -0.8692 -0.4884  1.1562
18977TIP3   OH278421   6.818   6.477  14.782  0.1336  0.7346 -0.1803
18977TIP3    H178422   6.775   6.391  14.783  1.1050  0.1137 -2.8644
18977TIP3    H278423   6.899   6.464  14.832  0.5291 -0.0970 -1.0059
18978TIP3   OH278424   1.788   1.432   6.080  0.1533 -0.8181 -0.0169
18978TIP3    H178425   1.802   1.358   6.021  0.2595 -0.2408 -0.7316
18978TIP3    H278426   1.729   1.399   6.147 -0.8753 -1.1760 -1.0713
18979TIP3   OH278427   0.083   6.101  16.856  0.4623 -0.0010  0.8090
18979TIP3    H178428   0.169   6.104  16.815  0.2148 -1.8964  0.0724
18979TIP3    H278429   0.097   6.057  16.940  0.5857  1.9093  1.8610
18980TIP3   OH278430   2.705   1.907  11.411 -0.0144 -0.1451 -0.3632
18980TIP3    H178431   2.769   1.877  11.475 -0.9852 -0.7760  0.3244
18980TIP3    H278432   2.645   1.962  11.460 -0.7074 -0.5465 -0.7370
18981TIP3   OH278433   0.167   5.418   1.755 -0.5332  0.0666  0.0616
18981TIP3    H178434   0.200   5.477   1.688  0.8427  0.7128  1.2496
18981TIP3    H278435   0.242   5.364   1.778 -1.3061 -0.9450  0.2545
18982TIP3   OH278436   5.108   1.229   2.592 -0.1321  0.4945 -0.1728
18982TIP3    H178437   5.095   1.240   2.686  1.1057  3.4457 -0.2528
18982TIP3    H278438   5.202   1.240   2.579 -0.3936  1.0965 -1.8503
18983TIP3   OH278439   0.220   4.573  13.656 -0.3808  0.0489  0.2004
18983TIP3    H178440   0.167   4.636  13.607  0.5339 -0.2964 -1.3058
18983TIP3    H278441   0.282   4.627  13.705 -0.5746  0.3694  0.0938
18984TIP3   OH278442   6.173   3.041  12.763 -0.1061 -0.0667 -0.4067
18984TIP3    H178443   6.084   3.034  12.798  0.8839  0.5013  2.4648
18984TIP3    H278444   6.168   3.111  12.698 -1.7147  0.0541 -0.1886
18985TIP3   OH278445   3.624   4.600  13.643 -0.1741 -0.3414  0.0723
18985TIP3    H178446   3.554   4.619  13.706 -0.0343 -1.5062  0.6078
18985TIP3    H278447   3.671   4.683  13.634 -0.2446 -0.1127  1.4651
18986TIP3   OH278448   5.641   4.876  15.060 -0.1476  0.0757  0.2252
18986TIP3    H178449   5.597   4.819  14.997 -0.5122 -1.3087  1.6657
18986TIP3    H278450   5.615   4.964  15.034 -1.2942 -0.5282 -0.8051
18987TIP3   OH278451   0.697   4.917  13.516 -0.2237  0.1861 -0.0825
18987TIP3    H178452   0.730   4.863  13.587 -1.1597  0.2576  0.4253
18987TIP3    H278453   0.647   4.857  13.461  1.1489 -0.0355 -1.1501
18988TIP3   OH278454   5.631   4.199   4.239  0.2991  0.0157  0.1982
18988TIP3    H178455   5.583   4.151   4.306  0.7847  1.0864  1.3556
18988TIP3    H278456   5.621   4.291   4.263  3.4224  0.2894  0.8988
18989TIP3   OH278457   2.472   0.721   1.286 -0.9112 -0.1906  0.3124
18989TIP3    H178458   2.451   0.774   1.363 -2.7611  1.0198 -0.9060
18989TIP3    H278459   2.442   0.633   1.308 -1.3881  0.1372  1.0150
18990TIP3   OH278460   2.255   0.103  16.239  0.5482  0.0498  0.0945
18990TIP3    H178461   2.185   0.156  16.276  1.5887  1.1583  0.5320
18990TIP3    H278462   2.304   0.072  16.315  1.8145  1.1034 -0.2591
18991TIP3   OH278463   2.595   2.686  13.976 -0.3723 -0.0542 -0.3345
18991TIP3    H178464   2.563   2.656  14.061 -1.0262  0.8049 -0.2659
18991TIP3    H278465   2.626   2.606  13.933 -3.5511 -1.1572 -0.8243
18992TIP3   OH278466   1.926   4.226   1.982  0.0307  0.3511 -0.0253
18992TIP3    H178467   1.881   4.245   2.065 -0.8223 -0.8248 -0.1944
18992TIP3    H278468   1.987   4.299   1.971 -0.7276  1.1759  1.0092
18993TIP3   OH278469   6.331   0.590  16.886  0.1162  0.5968  0.0724
18993TIP3    H178470   6.321   0.685  16.881 -0.3486  0.6056  0.9007
18993TIP3    H278471   6.363   0.574  16.975 -1.3898 -0.1352  0.5187
18994TIP3   OH278472   5.533   0.047  15.463 -0.5729  0.1492  0.6356
18994TIP3    H178473   5.585   0.128  15.459 -0.7060  0.3240  2.0665
18994TIP3    H278474   5.581  -0.014  15.407 -0.4725  1.2094 -0.4682
18995TIP3   OH278475   4.012   6.830   3.549 -0.3937 -0.2567  0.4504
18995TIP3    H178476   4.008   6.868   3.637  1.2586  0.5702  0.1924
18995TIP3    H278477   4.105   6.815   3.533 -0.6913 -0.6006 -1.0793
18996TIP3   OH278478   5.837   1.009   5.485 -0.6281 -0.6644  0.5019
18996TIP3    H178479   5.903   1.066   5.523 -0.2982 -0.0355 -0.9366
18996TIP3    H278480   5.779   0.987   5.558 -0.8463  1.6227  1.0775
18997TIP3   OH278481   1.014   1.525   3.472 -0.3443 -0.0927 -0.4142
18997TIP3    H178482   1.084   1.564   3.525 -0.7381 -0.7468  0.6099
18997TIP3    H278483   1.018   1.573   3.389  0.8133  0.4044 -0.0974
18998TIP3   OH278484   4.750   4.972  15.062 -0.2683 -0.0303  0.5408
18998TIP3    H178485   4.717   4.890  15.026 -0.5806  1.4265 -2.8559
18998TIP3    H278486   4.675   5.012  15.105 -1.2168  0.1734 -1.2166
18999TIP3   OH278487   0.592   0.563   2.778 -0.2482 -0.1384 -0.2907
18999TIP3    H178488   0.613   0.531   2.866 -1.7046  0.1538  0.2122
18999TIP3    H278489   0.675   0.567   2.732  0.4045 -1.3342  0.7334
19000TIP3   OH278490   1.885   2.697  11.778 -0.1905  0.5819 -0.6206
19000TIP3    H178491   1.821   2.636  11.741  0.1590 -1.4204  1.8161
19000TIP3    H278492   1.833   2.771  11.809 -1.2287 -0.4759  0.2551
19001TIP3   OH278493   3.464   6.292   3.719 -0.0626  0.2958 -0.4840
19001TIP3    H178494   3.477   6.297   3.625  1.9090 -1.4757 -0.3947
19001TIP3    H278495   3.411   6.213   3.732 -2.4390  1.8464 -0.1846
19002TIP3   OH278496   6.221   4.769   1.751 -0.6933  0.2624 -0.0961
19002TIP3    H178497   6.128   4.757   1.770 -1.2544  2.4392 -1.1489
19002TIP3    H278498   6.247   4.687   1.709 -2.4572  0.0278 -0.8457
19003TIP3   OH278499   2.734   0.508   3.034 -0.4465 -0.2165 -0.2480
19003TIP3    H178500   2.825   0.537   3.020  0.0512  0.0038  2.7330
19003TIP3    H278501   2.692   0.583   3.076 -1.3073 -1.1534  0.6092
19004TIP3   OH278502   1.261   2.537   6.982 -0.1430  0.3582  0.2177
19004TIP3    H178503   1.196   2.568   6.920 -0.1758  0.0679  0.1058
19004TIP3    H278504   1.222   2.459   7.021 -0.4847  1.0037  1.2203
19005TIP3   OH278505   0.528   2.332  12.315  0.1751 -0.0387  0.5057
19005TIP3    H178506   0.519   2.330  12.220  0.3273 -1.1643  0.5026
19005TIP3    H278507   0.575   2.414  12.333  0.2340  0.1308 -0.3885
19006TIP3   OH278508   3.607   5.477   2.790  0.4378 -0.4580 -0.4188
19006TIP3    H178509   3.537   5.531   2.826  0.6500  0.4798 -1.3753
19006TIP3    H278510   3.681   5.493   2.848  0.7027  0.8525 -1.0769
19007TIP3   OH278511   3.701   1.403   5.585  0.4969 -0.2120 -0.2167
19007TIP3    H178512   3.748   1.449   5.516  1.6049 -1.5481 -0.3930
19007TIP3    H278513   3.725   1.311   5.573 -0.3694 -0.6362  1.1126
19008TIP3   OH278514   6.140   6.179   2.923 -0.2945 -0.1223  0.0847
19008TIP3    H178515   6.153   6.084   2.915 -0.3403 -0.0139 -1.7311
19008TIP3    H278516   6.054   6.194   2.885  0.9287  0.9601 -2.4486
19009TIP3   OH278517   6.450   4.923   1.562  0.5132  0.0008 -0.0543
19009TIP3    H178518   6.437   5.017   1.571  0.3647 -0.0407  0.1663
19009TIP3    H278519   6.407   4.885   1.638 -0.8466 -0.3741 -0.9845
19010TIP3   OH278520   1.276   0.255  12.522 -0.1218  0.6484  0.3472
19010TIP3    H178521   1.296   0.342  12.555 -0.0829  0.1275  1.7550
19010TIP3    H278522   1.183   0.242  12.541 -0.2370  0.5400 -0.2559
19011TIP3   OH278523   1.848   2.789  13.446  0.3310  0.3509  0.3178
19011TIP3    H178524   1.885   2.702  13.460  1.3380  0.8860  1.1130
19011TIP3    H278525   1.756   2.780  13.473  0.6143 -0.2896  1.1283
19012TIP3   OH278526   5.118   4.439   1.352 -0.3600  0.2477  0.3820
19012TIP3    H178527   5.198   4.492   1.361  0.0717 -0.2729 -0.3497
19012TIP3    H278528   5.123   4.376   1.423 -0.0098  0.0762  0.2060
19013TIP3   OH278529   0.008   0.180   3.448 -0.1230  0.4177 -0.4767
19013TIP3    H178530   0.074   0.167   3.516 -0.8328 -1.5243 -0.0695
19013TIP3    H278531   0.058   0.181   3.367  0.4072 -3.3754 -0.4142
19014TIP3   OH278532   3.060   0.004  11.356 -0.6208  0.0146  0.2499
19014TIP3    H178533   3.017   0.015  11.442  0.8760  1.2401  0.8897
19014TIP3    H278534   3.025  -0.078  11.323 -1.1435 -0.5776  2.1092
19015TIP3   OH278535   3.213   6.470   3.572  0.8040 -0.1581  0.3470
19015TIP3    H178536   3.252   6.462   3.659  2.7571 -0.9718 -0.5402
19015TIP3    H278537   3.203   6.565   3.559  0.5978 -0.0266  1.3994
19016TIP3   OH278538   1.268   2.243  16.926 -0.1189  0.1187  0.1806
19016TIP3    H178539   1.266   2.330  16.966 -2.3586  0.0284  0.3949
19016TIP3    H278540   1.275   2.183  17.001 -1.8664  0.0356  0.3113
19017TIP3   OH278541   3.827   4.521   6.177  0.2220  0.1908  0.1428
19017TIP3    H178542   3.920   4.510   6.197  0.2627  1.8223  1.0265
19017TIP3    H278543   3.782   4.495   6.258  0.0141  0.8295  0.2398
19018TIP3   OH278544   6.085   1.638   2.425  0.1973 -0.2191 -0.7876
19018TIP3    H178545   6.108   1.580   2.497  0.6314 -0.3403 -1.0231
19018TIP3    H278546   5.991   1.654   2.436  0.6283  1.4440  1.0147
19019TIP3   OH278547   0.655   0.869  13.123  0.3289  0.3157  0.0327
19019TIP3    H178548   0.609   0.949  13.101  1.5819  1.9373  2.7430
19019TIP3    H278549   0.748   0.893  13.120  0.7710 -1.2117  0.3592
19020TIP3   OH278550   3.069   5.944  10.404  0.1270 -0.0109  0.0361
19020TIP3    H178551   3.026   5.885  10.341 -0.7457  2.0680 -1.4225
19020TIP3    H278552   2.997   5.974  10.460 -0.0316  1.8766 -1.1005
19021TIP3   OH278553   2.366   4.676  15.178 -0.2377  0.1826  0.3177
19021TIP3    H178554   2.373   4.581  15.175 -0.5499  0.1559  0.5063
19021TIP3    H278555   2.379   4.699  15.270  0.7473  0.3948  0.1402
19022TIP3   OH278556   5.610   2.743   1.373 -0.1402 -0.2322 -0.2345
19022TIP3    H178557   5.523   2.777   1.357  0.1127  0.1239 -0.9087
19022TIP3    H278558   5.597   2.668   1.431 -0.7350  0.7651  0.9511
19023TIP3   OH278559   2.568   1.106  15.171 -0.0753 -1.1258 -0.1198
19023TIP3    H178560   2.648   1.062  15.199 -0.9287 -1.0024  2.7547
19023TIP3    H278561   2.535   1.050  15.100  1.7774 -1.9494 -0.4088
19024TIP3   OH278562   6.175   1.903  11.657  0.4694  0.0488 -0.2625
19024TIP3    H178563   6.215   1.926  11.741 -1.3705 -0.0637  0.7185
19024TIP3    H278564   6.163   1.808  11.661 -0.2650  0.1310 -0.3245
19025TIP3   OH278565   4.770   5.954  13.953 -0.2976 -0.1598 -0.7099
19025TIP3    H178566   4.842   6.018  13.952 -0.8803  0.4988 -1.6005
19025TIP3    H278567   4.767   5.920  13.864 -0.0795 -1.3629 -0.2770
19026TIP3   OH278568   1.479   0.889  15.166  0.2084 -0.2541  0.2539
19026TIP3    H178569   1.575   0.883  15.164  0.4282  2.2329 -1.0512
19026TIP3    H278570   1.459   0.920  15.254  0.4907 -1.5912  0.8171
19027TIP3   OH278571   1.652   3.603   0.203  0.4881  0.1850 -0.9262
19027TIP3    H178572   1.639   3.547   0.279 -0.4056  0.0826 -1.1378
19027TIP3    H278573   1.653   3.543   0.129  1.0024  0.3190 -1.0344
19028TIP3   OH278574   3.196   1.930  13.669 -0.4719 -0.6709  0.6295
19028TIP3    H178575   3.152   1.898  13.590 -1.5557  0.1351  0.8777
19028TIP3    H278576   3.141   1.899  13.741  0.9744 -2.1517  1.1572
19029TIP3   OH278577   2.764   5.423   2.274 -0.4462 -0.3413  0.3251
19029TIP3    H178578   2.831   5.384   2.217  0.9306  0.9234  0.9977
19029TIP3    H278579   2.708   5.472   2.214 -1.1796 -1.9122 -0.3228
19030TIP3   OH278580   6.080   3.797  17.147  0.4953 -0.2654  0.6640
19030TIP3    H178581   6.066   3.891  17.146 -0.6465 -0.4219  0.7771
19030TIP3    H278582   6.070   3.770  17.056 -2.1735 -0.6495  0.9774
19031TIP3   OH278583   0.091   3.973  14.690  0.6065  0.3403  0.2871
19031TIP3    H178584   0.056   3.978  14.779  2.0083 -1.0169  0.9595
19031TIP3    H278585   0.186   3.970  14.702  0.7961 -0.4217 -1.2262
19032TIP3   OH278586   1.553   0.660   6.563 -0.0806 -0.0619  0.9279
19032TIP3    H178587   1.607   0.718   6.509  1.6221 -1.5013  0.9853
19032TIP3    H278588   1.547   0.704   6.648 -1.2970  1.3742  0.1564
19033TIP3   OH278589   2.054   5.452   3.628 -0.7613 -0.0323 -0.1664
19033TIP3    H178590   2.135   5.403   3.612 -0.5630 -0.3127  1.4739
19033TIP3    H278591   2.082   5.543   3.636 -1.0176  0.2816 -2.3877
19034TIP3   OH278592   6.375   5.268  13.842  0.0620 -0.4542  0.3229
19034TIP3    H178593   6.350   5.304  13.927  1.7688 -2.2716  1.6790
19034TIP3    H278594   6.462   5.303  13.825  0.0872 -0.7760 -0.2551
19035TIP3   OH278595   3.224   4.736  12.687 -0.3793  0.4019  0.3882
19035TIP3    H178596   3.183   4.782  12.760 -0.4466  0.9607  0.0087
19035TIP3    H278597   3.233   4.803  12.619  1.0537  0.2620  0.4077
19036TIP3   OH278598   1.323   5.247  15.688  0.4626 -0.2492  0.1667
19036TIP3    H178599   1.386   5.313  15.718 -0.2180  0.9508 -0.9822
19036TIP3    H278600   1.286   5.212  15.769  1.1561  0.4534  0.8074
19037TIP3   OH278601   3.960   2.950  13.967 -0.1796 -0.0568 -0.4547
19037TIP3    H178602   3.942   3.019  13.902 -0.0816 -0.8548 -1.3497
19037TIP3    H278603   3.888   2.889  13.958 -0.9243  0.5128  1.2082
19038TIP3   OH278604   5.926   4.429   3.234 -0.3136 -0.5148  0.1666
19038TIP3    H178605   5.992   4.487   3.271 -1.2222  1.5093 -1.2140
19038TIP3    H278606   5.960   4.407   3.147 -0.1342 -1.8372  0.5477
19039TIP3   OH278607   2.273   0.746   0.806  0.1937 -0.0590  0.2812
19039TIP3    H178608   2.215   0.783   0.872  0.0084  0.7513 -0.3134
19039TIP3    H278609   2.286   0.818   0.743  1.3507 -0.4198  0.0862
19040TIP3   OH278610   0.537   3.496  12.552 -0.2677 -0.1741 -0.0168
19040TIP3    H178611   0.517   3.582  12.515 -2.1822 -0.0073  1.2737
19040TIP3    H278612   0.529   3.436  12.477 -0.1146  0.6231 -0.6845
19041TIP3   OH278613   2.396   3.086  14.121  0.2665  0.1757  0.2353
19041TIP3    H178614   2.438   3.102  14.206  1.7595  0.5812 -0.5509
19041TIP3    H278615   2.377   2.992  14.121  3.5996 -0.6084 -0.3896
19042TIP3   OH278616   3.092   3.502  11.814  0.0013 -0.5464  0.2946
19042TIP3    H178617   3.102   3.597  11.824 -0.0324 -0.5289  0.1630
19042TIP3    H278618   3.053   3.491  11.727 -3.3745 -0.4610  1.6319
19043TIP3   OH278619   3.472   4.977   4.155 -0.3465  0.2075  0.3555
19043TIP3    H178620   3.522   4.949   4.078 -1.0393  1.5706 -0.6149
19043TIP3    H278621   3.447   4.895   4.198  2.6262 -0.5658  0.8662
19044TIP3   OH278622   0.374   3.009   0.223 -0.1014 -1.0222 -0.1073
19044TIP3    H178623   0.337   2.959   0.150  1.1918 -0.4254 -1.2024
19044TIP3    H278624   0.430   2.947   0.269  1.3814 -0.6820 -1.3764
19045TIP3   OH278625   3.132   1.312  11.431 -0.5112  0.1220 -0.3470
19045TIP3    H178626   3.082   1.390  11.457 -0.7072 -0.1527  0.1252
19045TIP3    H278627   3.068   1.241  11.431 -0.2914 -0.0792 -0.5644
19046TIP3   OH278628   4.972   4.090   2.957  0.0098 -0.3374 -0.4040
19046TIP3    H178629   4.925   4.007   2.965  0.1987 -0.2550  2.7765
19046TIP3    H278630   4.943   4.127   2.874 -4.8604 -0.7480  0.8479
19047TIP3   OH278631   4.278   1.287   4.578  0.1679 -0.1357  0.2228
19047TIP3    H178632   4.244   1.208   4.618  2.4504 -1.7221 -0.7680
19047TIP3    H278633   4.367   1.264   4.549  0.3649  2.3123 -1.4785
19048TIP3   OH278634   3.566   6.480   2.127 -0.8539  0.0846  0.0691
19048TIP3    H178635   3.526   6.450   2.045 -2.7504 -2.9297  1.8965
19048TIP3    H278636   3.493   6.481   2.190  1.0268 -0.8372  2.4315
19049TIP3   OH278637   5.619   1.516   2.875  0.2208  0.5717 -0.2762
19049TIP3    H178638   5.645   1.464   2.799  3.4105  1.0352  0.3427
19049TIP3    H278639   5.619   1.607   2.844  0.1877  0.6518 -0.0473
19050TIP3   OH278640   3.578   2.156   1.039 -0.4921  0.3079  0.6979
19050TIP3    H178641   3.556   2.139   0.948  3.5366  0.1965 -0.4590
19050TIP3    H278642   3.504   2.123   1.089 -2.1160 -1.1689 -2.4342
19051TIP3   OH278643   3.691   4.931  13.933  0.2380 -0.3200 -0.4879
19051TIP3    H178644   3.773   4.919  13.980  0.4024  1.5957 -0.2117
19051TIP3    H278645   3.697   4.872  13.858  2.4006  0.6294 -1.1378
19052TIP3   OH278646   3.509   1.361  12.722 -0.1702 -0.3556 -0.2263
19052TIP3    H178647   3.456   1.318  12.790  0.2962 -0.6592 -0.0488
19052TIP3    H278648   3.500   1.303  12.646 -0.9213  0.1307 -0.5217
19053TIP3   OH278649   0.658   5.311  16.358  0.1330  0.5060  0.1483
19053TIP3    H178650   0.680   5.352  16.275 -2.1190 -0.6396 -1.1004
19053TIP3    H278651   0.724   5.242  16.368 -0.1357  0.0112 -1.2249
19054TIP3   OH278652   6.516   0.356   3.405  0.0309  0.3990  0.0955
19054TIP3    H178653   6.591   0.401   3.444 -0.4890 -0.0897  1.7462
19054TIP3    H278654   6.450   0.425   3.392 -0.7332  0.2037  2.5364
19055TIP3   OH278655   0.187   3.082  12.454  0.8603  0.2857  0.0002
19055TIP3    H178656   0.167   2.990  12.470 -0.1024  0.2987 -1.0700
19055TIP3    H278657   0.253   3.103  12.521  0.6316 -0.9920  0.6693
19056TIP3   OH278658   2.027   5.696   5.407  0.1939  0.0833 -0.2039
19056TIP3    H178659   2.018   5.778   5.359 -1.4387  0.5422  0.8162
19056TIP3    H278660   2.023   5.720   5.499 -0.9845 -1.1829  0.1084
19057TIP3   OH278661   1.084   3.673   2.410 -0.7015  0.3352 -0.3310
19057TIP3    H178662   1.026   3.749   2.420  0.2490  0.7657  3.1670
19057TIP3    H278663   1.172   3.709   2.419 -0.1966 -1.0464  0.4996
19058TIP3   OH278664   0.156   0.444  12.443 -0.1852  0.5557 -0.1430
19058TIP3    H178665   0.196   0.439  12.356  0.2779  2.7748 -0.1178
19058TIP3    H278666   0.065   0.466  12.426 -0.1750  0.6442 -0.0845
19059TIP3   OH278667   5.277   5.515  15.262  0.2803  0.4094 -0.2712
19059TIP3    H178668   5.250   5.595  15.217  2.2673  0.8362 -0.8147
19059TIP3    H278669   5.224   5.513  15.342 -1.5760  0.9235 -1.4321
19060TIP3   OH278670   5.104   0.359   5.272  0.0433 -0.0349 -0.3479
19060TIP3    H178671   5.172   0.302   5.237  0.3277  0.1993 -0.1768
19060TIP3    H278672   5.117   0.357   5.367  1.2074  1.7221 -0.4250
19061TIP3   OH278673   3.257   6.829   1.474 -0.4550 -0.4474 -0.4817
19061TIP3    H178674   3.226   6.837   1.564  0.4344 -0.3502 -0.1688
19061TIP3    H278675   3.181   6.851   1.420 -2.2819 -4.3523  0.0914
19062TIP3   OH278676   1.587   2.504   1.105  0.6170 -0.0704 -0.1137
19062TIP3    H178677   1.503   2.462   1.123  0.9501 -0.8268 -0.2854
19062TIP3    H278678   1.644   2.476   1.177  1.2316 -1.0388 -0.9565
19063TIP3   OH278679   5.250   5.813  11.681 -0.6040  0.2362 -0.8139
19063TIP3    H178680   5.259   5.719  11.661  1.4119  0.3394 -0.5976
19063TIP3    H278681   5.326   5.853  11.638  1.2707  1.0997  2.9247
19064TIP3   OH278682   4.160   6.060   2.689  0.5332  0.2571 -0.2986
19064TIP3    H178683   4.216   5.986   2.666  0.3839  0.1751 -0.3996
19064TIP3    H278684   4.188   6.131   2.631  0.1336  0.0405 -0.7553
19065TIP3   OH278685   1.304   1.055   3.766  0.2701  0.4102  0.3449
19065TIP3    H178686   1.218   1.092   3.746  0.5936  2.2689  2.0763
19065TIP3    H278687   1.303   0.968   3.726 -1.4461  1.3457 -1.8768
19066TIP3   OH278688   3.563   4.601  11.766 -0.8183  0.0157  0.3832
19066TIP3    H178689   3.604   4.554  11.693  1.2726  1.7854  0.3304
19066TIP3    H278690   3.548   4.534  11.833  0.6311 -0.9992 -0.2630
19067TIP3   OH278691   0.327   3.501   3.670 -0.3794 -0.1828 -0.1675
19067TIP3    H178692   0.333   3.426   3.728 -1.6649 -2.9775 -3.3235
19067TIP3    H278693   0.243   3.542   3.690 -1.3906 -1.8720 -0.7973
19068TIP3   OH278694   4.872   3.685   4.534  0.3425 -0.1252 -0.1176
19068TIP3    H178695   4.803   3.649   4.589  0.4627 -0.7316 -0.3519
19068TIP3    H278696   4.948   3.691   4.592  0.7275 -1.6312 -0.4254
19069TIP3   OH278697   0.783   4.698  16.956 -0.1722 -0.1078 -0.4231
19069TIP3    H178698   0.819   4.702  17.045 -0.7354 -2.0048 -0.0670
19069TIP3    H278699   0.841   4.752  16.904  2.5819 -2.1211  0.3285
19070TIP3   OH278700   4.162   3.895   2.088 -0.7995  0.2802 -0.9066
19070TIP3    H178701   4.224   3.933   2.150  0.4115 -2.1510 -0.4880
19070TIP3    H278702   4.090   3.862   2.143  0.6764 -2.6582 -0.4893
19071TIP3   OH278703   6.479   0.063  13.049  0.4311 -0.2508  0.1127
19071TIP3    H178704   6.517  -0.019  13.019 -0.9336 -2.0204  2.7710
19071TIP3    H278705   6.413   0.085  12.984  0.7561 -1.3183 -0.5952
19072TIP3   OH278706   2.410   1.365  11.434  0.5522  0.2692 -0.1061
19072TIP3    H178707   2.457   1.282  11.435  0.4280  0.2000  0.2773
19072TIP3    H278708   2.435   1.406  11.351  0.9942  0.0698 -0.0756
19073TIP3   OH278709   1.346   0.601   3.100 -0.3677 -0.4004  0.0882
19073TIP3    H178710   1.388   0.686   3.114 -1.1707  0.1831 -0.8952
19073TIP3    H278711   1.269   0.621   3.048  0.8878 -2.0322 -2.6462
19074TIP3   OH278712   6.519   3.896   2.120  0.3722 -0.2570  0.2350
19074TIP3    H178713   6.553   3.878   2.208 -0.3120 -0.7679  0.4034
19074TIP3    H278714   6.428   3.920   2.134 -0.2225 -1.9717 -0.4546
19075TIP3   OH278715   2.074   6.825   1.945 -0.7670  0.4094 -0.4206
19075TIP3    H178716   2.026   6.748   1.976  0.9160 -0.0803  1.1668
19075TIP3    H278717   2.011   6.873   1.892 -2.4398 -1.0882  0.1060
19076TIP3   OH278718   6.318   6.356  14.593 -0.1184  0.0299 -0.4873
19076TIP3    H178719   6.277   6.295  14.653 -2.0018  1.4905 -0.2185
19076TIP3    H278720   6.335   6.304  14.514 -0.9200 -1.0205  0.0153
19077TIP3   OH278721   5.183   6.118  16.446  0.0688 -0.2134 -0.3422
19077TIP3    H178722   5.089   6.105  16.458  0.1675  0.4688  1.4574
19077TIP3    H278723   5.209   6.051  16.383 -1.4097 -1.1629  0.0257
19078TIP3   OH278724   4.005   2.351  12.880 -0.1374  0.3672 -0.0257
19078TIP3    H178725   3.939   2.419  12.870 -0.4490  0.0510 -0.1572
19078TIP3    H278726   4.006   2.332  12.974  0.3498  0.9425  0.0878
19079TIP3   OH278727   4.954   0.770  12.142 -0.2576 -0.0307 -0.2135
19079TIP3    H178728   4.941   0.696  12.083  0.0312 -2.7137  2.8539
19079TIP3    H278729   4.867   0.806  12.156 -0.6478 -0.9028 -0.3875
19080TIP3   OH278730   1.482   6.523   3.731 -0.3565 -0.4740 -0.4051
19080TIP3    H178731   1.476   6.482   3.644 -0.8328 -0.1646 -0.5241
19080TIP3    H278732   1.394   6.514   3.767  0.2210 -2.0265  0.7183
19081TIP3   OH278733   0.786   4.240   4.697  0.1047 -0.0332  0.0239
19081TIP3    H178734   0.858   4.285   4.741 -0.5447  1.5015 -0.4367
19081TIP3    H278735   0.768   4.293   4.620  0.0325 -1.7076 -1.1641
19082TIP3   OH278736   3.688   4.436  17.011  1.0604 -0.0792  0.5104
19082TIP3    H178737   3.649   4.423  16.925  0.6724 -1.1405  0.8330
19082TIP3    H278738   3.755   4.368  17.017  0.3987 -0.6624  1.4410
19083TIP3   OH278739   5.876   6.800  14.269 -0.2437  0.1369  0.8418
19083TIP3    H178740   5.813   6.765  14.332 -1.4428 -1.0045 -0.9030
19083TIP3    H278741   5.841   6.774  14.183  1.2416  1.7393 -0.3204
19084TIP3   OH278742   5.042   2.012  15.215 -1.1296 -0.3010 -0.0940
19084TIP3    H178743   4.949   2.027  15.201 -1.2639 -0.0507  0.9999
19084TIP3    H278744   5.086   2.078  15.162 -1.6005  0.2748  0.2267
19085TIP3   OH278745   4.525   6.764  11.877 -0.1880 -0.4091 -0.0567
19085TIP3    H178746   4.492   6.804  11.796  1.1554 -0.2132 -0.5408
19085TIP3    H278747   4.606   6.720  11.850  2.1355  2.4010  1.6890
19086TIP3   OH278748   2.973   5.518   0.271 -1.0585  0.4004  0.2357
19086TIP3    H178749   2.880   5.495   0.271 -0.8659 -0.4413  0.9118
19086TIP3    H278750   2.994   5.530   0.364 -0.7550  1.7305  0.0124
19087TIP3   OH278751   1.554   6.158   0.995  0.2795 -0.1245 -0.0413
19087TIP3    H178752   1.553   6.124   0.906 -0.1578 -1.2054  0.3605
19087TIP3    H278753   1.521   6.086   1.049 -1.4083  1.1825  0.7608
19088TIP3   OH278754   5.430   6.330  10.280 -0.0007  0.2300 -0.0788
19088TIP3    H178755   5.348   6.361  10.319 -0.2973  1.7550 -1.7622
19088TIP3    H278756   5.496   6.343  10.348 -1.2452 -1.9753  1.6928
19089TIP3   OH278757   0.850   6.622   0.252 -0.7404 -0.0880 -0.0927
19089TIP3    H178758   0.814   6.562   0.317 -0.4334  0.7983  0.9265
19089TIP3    H278759   0.874   6.700   0.302 -0.9298  0.8056 -1.3540
19090TIP3   OH278760   0.652   0.823   0.059  0.3990  0.1766  0.0876
19090TIP3    H178761   0.716   0.759   0.088  0.5010  0.2087 -0.0644
19090TIP3    H278762   0.684   0.852  -0.026 -0.2835 -0.4501 -0.3943
19091TIP3   OH278763   2.760   2.228  12.202 -0.4295  0.3204 -0.4168
19091TIP3    H178764   2.854   2.246  12.192 -0.5028  0.5221 -0.7596
19091TIP3    H278765   2.746   2.227  12.297 -0.2397  1.1508 -0.3684
19092TIP3   OH278766   2.318   3.555   0.709  0.9204  0.7145  0.3759
19092TIP3    H178767   2.334   3.483   0.770  0.1521 -0.2656 -0.5295
19092TIP3    H278768   2.297   3.630   0.764  2.1632  0.3704  1.3563
19093TIP3   OH278769   5.821   0.346   0.615 -0.2787  0.2917  0.5276
19093TIP3    H178770   5.847   0.340   0.523 -1.4991 -0.1425  0.1926
19093TIP3    H278771   5.900   0.323   0.664  0.9696  2.4375 -0.3310
19094TIP3   OH278772   2.505   4.471   3.083  0.5458  0.2368 -0.1724
19094TIP3    H178773   2.567   4.536   3.049  0.0305  2.0067  1.9887
19094TIP3    H278774   2.536   4.453   3.172  0.1950 -1.9375 -0.4323
19095TIP3   OH278775   4.912   5.294   2.582  0.0767  0.6670 -0.0529
19095TIP3    H178776   4.989   5.296   2.525 -0.2343 -1.7198 -0.6756
19095TIP3    H278777   4.864   5.216   2.554 -1.2040  0.6074  2.0816
19096TIP3   OH278778   4.195   4.777  16.206 -0.2717  0.2406  0.2895
19096TIP3    H178779   4.164   4.782  16.115  1.4843 -1.8348 -0.5092
19096TIP3    H278780   4.282   4.815  16.203 -0.0807 -0.1315  1.0367
19097TIP3   OH278781   2.393   0.194   2.064  0.0485 -0.1841 -0.0893
19097TIP3    H178782   2.301   0.173   2.077  0.4129 -1.1113  1.1489
19097TIP3    H278783   2.410   0.173   1.972 -1.1429  0.7352 -0.5411
19098TIP3   OH278784   6.128   6.795   4.142  0.5774  0.2662  0.1816
19098TIP3    H178785   6.153   6.709   4.109 -0.0028 -0.4735  1.5897
19098TIP3    H278786   6.186   6.811   4.216 -1.1812 -0.2621  1.7719
19099TIP3   OH278787   2.102   5.493  13.461 -0.5334  0.4450 -0.0160
19099TIP3    H178788   2.097   5.412  13.511  0.6116 -1.7293 -3.1280
19099TIP3    H278789   2.179   5.538  13.497  0.3243 -1.0938  0.1659
19100TIP3   OH278790   2.468   2.189  16.266  0.8704  0.7121  0.0852
19100TIP3    H178791   2.440   2.260  16.322 -1.7894 -1.3955  1.6501
19100TIP3    H278792   2.388   2.144  16.240  2.3100 -0.9256 -1.9863
19101TIP3   OH278793   6.489   5.133   6.034  0.1829  0.2164  0.0451
19101TIP3    H178794   6.457   5.059   5.981 -1.6276  1.3322 -0.4855
19101TIP3    H278795   6.478   5.104   6.124 -3.8610  1.0230 -0.0209
19102TIP3   OH278796   6.419   2.482  14.077  0.0471 -0.1652  0.1005
19102TIP3    H178797   6.328   2.511  14.065 -0.1079 -1.3004 -1.9655
19102TIP3    H278798   6.471   2.561  14.062 -0.5483  0.1224 -0.5214
19103TIP3   OH278799   3.534   1.942   5.332  0.0593 -0.0199  0.0906
19103TIP3    H178800   3.488   1.861   5.309  0.1583 -0.4095  1.2308
19103TIP3    H278801   3.590   1.959   5.256 -0.2937 -0.7709 -0.3546
19104TIP3   OH278802   1.643   0.123  10.860 -0.8957 -0.1164 -0.0279
19104TIP3    H178803   1.713   0.060  10.879 -0.5436  0.1645 -0.3985
19104TIP3    H278804   1.605   0.142  10.946 -0.2111  0.0902  0.2379
19105TIP3   OH278805   2.122   6.226  12.252  0.2523 -0.0712 -0.6213
19105TIP3    H178806   2.075   6.260  12.176 -1.3383 -1.2871 -0.2411
19105TIP3    H278807   2.147   6.304  12.301 -2.4168  0.6664 -0.2814
19106TIP3   OH278808   1.133   5.495  12.288 -0.4289  0.2652  0.1604
19106TIP3    H178809   1.113   5.419  12.233  0.0802  0.9662 -1.0264
19106TIP3    H278810   1.052   5.513  12.334 -1.9258  1.5837 -2.7205
19107TIP3   OH278811   1.368   2.658   5.618  0.2740 -0.4041 -0.6542
19107TIP3    H178812   1.430   2.647   5.691  0.2119  0.5011 -0.4603
19107TIP3    H278813   1.366   2.752   5.602 -1.8571 -0.2792  0.0342
19108TIP3   OH278814   3.672   5.438   0.435 -0.3401  0.0535 -0.3117
19108TIP3    H178815   3.594   5.432   0.490 -0.0671 -2.7270 -0.0709
19108TIP3    H278816   3.686   5.532   0.423 -1.9222  0.7000  2.1671
19109TIP3   OH278817   3.689   5.302  13.563  0.3566 -0.5557 -0.0999
19109TIP3    H178818   3.762   5.279  13.506  1.4950  0.1133  1.0431
19109TIP3    H278819   3.720   5.284  13.652 -1.4660 -1.8323  0.3445
19110TIP3   OH278820   1.042   1.649   4.273  0.7300 -0.4541 -0.3648
19110TIP3    H178821   1.016   1.642   4.364  1.1875  1.4889 -0.0324
19110TIP3    H278822   1.072   1.740   4.264  4.7344 -1.7092 -1.3773
19111TIP3   OH278823   6.329   5.820  15.466  0.1477  0.3141  0.7141
19111TIP3    H178824   6.278   5.898  15.485 -1.1343 -0.4182  0.3790
19111TIP3    H278825   6.316   5.763  15.541 -0.3193 -0.2602  0.2114
19112TIP3   OH278826   2.141   3.903   4.567 -0.8899 -0.1196  0.0945
19112TIP3    H178827   2.082   3.975   4.543  1.0637  0.9421 -1.9007
19112TIP3    H278828   2.151   3.910   4.662  0.0666  3.0094 -0.1300
19113TIP3   OH278829   2.949   1.346   1.826 -0.3534  0.2605 -0.1196
19113TIP3    H178830   2.938   1.413   1.758 -0.7570 -1.4145 -1.8092
19113TIP3    H278831   3.039   1.314   1.815 -0.6467 -0.5153 -0.3886
19114TIP3   OH278832   2.309   2.438  12.720 -0.1833 -0.2161  0.1541
19114TIP3    H178833   2.272   2.396  12.798  0.0885  1.3924  1.2077
19114TIP3    H278834   2.234   2.484  12.681  0.1901  1.2264  1.0496
19115TIP3   OH278835   4.535   2.366   3.823  0.4153 -0.2195  0.7730
19115TIP3    H178836   4.465   2.324   3.771 -0.8504  1.9891  0.5789
19115TIP3    H278837   4.593   2.404   3.757 -0.4172  1.3566  0.9005
19116TIP3   OH278838   1.283   6.698  12.261  0.0737 -0.2869  0.3200
19116TIP3    H178839   1.194   6.728  12.280 -0.0590 -0.4130 -0.0970
19116TIP3    H278840   1.317   6.761  12.197  0.0631 -0.5939  0.0108
19117TIP3   OH278841   2.716   6.799   5.307 -0.5101  0.1595  0.1563
19117TIP3    H178842   2.708   6.788   5.402 -0.9351 -1.1534 -0.0107
19117TIP3    H278843   2.628   6.823   5.279 -0.9051 -1.5809 -0.1509
19118TIP3   OH278844   1.828   0.560  16.449  0.1050 -0.4960  0.1780
19118TIP3    H178845   1.812   0.620  16.522  0.4617  0.6355 -0.6494
19118TIP3    H278846   1.875   0.487  16.488 -1.3374 -0.8146  1.4271
19119TIP3   OH278847   3.327   4.050  14.346  0.3268  0.0093  0.6395
19119TIP3    H178848   3.309   4.126  14.292  0.9986  1.0370  1.8051
19119TIP3    H278849   3.291   3.976  14.297 -1.2460  1.1775 -0.0508
19120TIP3   OH278850   5.206   2.790  15.925  0.5090 -0.1066 -0.3234
19120TIP3    H178851   5.252   2.767  15.845 -1.6378 -3.4272 -0.8341
19120TIP3    H278852   5.237   2.726  15.989  0.2497  0.7937  0.7305
19121TIP3   OH278853   2.553   1.750  17.141  0.0887  0.2370 -0.2263
19121TIP3    H178854   2.498   1.720  17.214 -1.0345  0.1908 -1.0754
19121TIP3    H278855   2.504   1.726  17.063 -0.0656  2.7919 -0.9774
19122TIP3   OH278856   5.358   3.762  13.377 -0.3612  0.4827 -0.4803
19122TIP3    H178857   5.416   3.693  13.348 -1.0043  0.1146 -0.9115
19122TIP3    H278858   5.359   3.756  13.473 -0.3494 -0.0642 -0.5156
19123TIP3   OH278859   4.209   2.386   4.235 -0.2336 -0.0328  0.0245
19123TIP3    H178860   4.286   2.363   4.185  0.0084  0.1997  0.2849
19123TIP3    H278861   4.168   2.302   4.256 -0.5353 -0.1120 -0.8602
19124TIP3   OH278862   5.939   1.932  17.119  0.2211 -0.4646  0.0386
19124TIP3    H178863   6.030   1.908  17.135 -0.0302 -1.3516  0.1803
19124TIP3    H278864   5.890   1.888  17.189 -0.2157  0.8283  0.5741
19125TIP3   OH278865   1.994   5.963   4.988  0.3237  0.1552  0.3361
19125TIP3    H178866   2.085   5.974   4.961 -0.2924 -0.2122 -2.1954
19125TIP3    H278867   1.951   6.044   4.960 -0.5443 -0.6305 -0.6616
19126TIP3   OH278868   2.226   3.068   1.175 -0.0406  0.7551 -0.0569
19126TIP3    H178869   2.148   3.090   1.125 -0.1330  0.0358 -0.2414
19126TIP3    H278870   2.229   2.972   1.174  0.6863  0.7690  0.1915
19127TIP3   OH278871   1.469   5.529  16.700 -0.4508  0.8384 -0.2368
19127TIP3    H178872   1.402   5.530  16.769  1.3013  0.8821  1.5338
19127TIP3    H278873   1.452   5.449  16.651  0.2030 -0.9462  2.2792
19128TIP3   OH278874   4.648   4.838   2.146 -0.4206 -0.2750 -0.3938
19128TIP3    H178875   4.680   4.902   2.082 -0.8797  1.5514  1.1096
19128TIP3    H278876   4.605   4.771   2.093  0.0400  0.6784 -2.0496
19129TIP3   OH278877   5.902   6.669   2.434  0.1395  0.2682  1.0479
19129TIP3    H178878   5.855   6.678   2.351 -0.1127  0.6718  1.2358
19129TIP3    H278879   5.952   6.588   2.424 -0.4138 -0.0422  0.7583
19130TIP3   OH278880   0.190   2.013   3.519  0.4130 -0.4319  0.3166
19130TIP3    H178881   0.149   1.944   3.572 -1.1513 -0.4295 -0.8270
19130TIP3    H278882   0.211   1.969   3.437  1.3871 -0.0489  0.3519
19131TIP3   OH278883   4.047   6.435  13.869  0.4272 -0.6693 -0.0793
19131TIP3    H178884   4.102   6.488  13.813  0.0482  0.2407  0.3869
19131TIP3    H278885   4.085   6.444  13.956  0.3382 -1.1389  0.0136
19132TIP3   OH278886   5.841   4.483   5.758 -0.6555 -0.4739 -0.5243
19132TIP3    H178887   5.912   4.479   5.822  0.7014  0.8264 -1.8630
19132TIP3    H278888   5.872   4.430   5.685  0.4195  2.4830 -2.3915
19133TIP3   OH278889   1.787   5.223  11.732 -0.1678 -0.1727 -0.0649
19133TIP3    H178890   1.812   5.192  11.645  1.8399  0.3029  0.2901
19133TIP3    H278891   1.833   5.306  11.742  0.6713 -0.8242  1.9301
19134TIP3   OH278892   3.516   1.110  16.022  0.2023  0.0236  0.0750
19134TIP3    H178893   3.425   1.088  16.046 -0.1475  0.9410 -0.3784
19134TIP3    H278894   3.562   1.114  16.106 -0.0381 -1.0276  0.2686
19135TIP3   OH278895   1.138   6.581   2.990 -0.1117  0.2950 -0.7760
19135TIP3    H178896   1.050   6.601   3.020  0.0537  0.1902 -0.2144
19135TIP3    H278897   1.178   6.667   2.973  0.6394  0.5226  1.7472
19136TIP3   OH278898   3.936   5.395   4.900 -1.1020 -0.0927  0.1622
19136TIP3    H178899   3.857   5.446   4.884  0.0244  1.8160  0.4557
19136TIP3    H278900   3.979   5.389   4.814 -0.5334  0.6980  0.3797
19137TIP3   OH278901   3.495   4.391   4.654 -0.1351 -0.3777 -0.1809
19137TIP3    H178902   3.503   4.298   4.631 -0.4698 -0.6667  0.8257
19137TIP3    H278903   3.462   4.391   4.743  0.4706  0.7099  0.0663
19138TIP3   OH278904   6.053   0.695   5.783 -0.3608 -0.2765 -0.0644
19138TIP3    H178905   5.991   0.665   5.850  0.0734  0.8034  0.8569
19138TIP3    H278906   6.037   0.638   5.708 -0.6849 -1.6826  1.0387
19139TIP3   OH278907   1.746   3.236  15.785 -0.4485  0.4088  0.1210
19139TIP3    H178908   1.717   3.198  15.702 -2.0120  0.1075  0.7623
19139TIP3    H278909   1.718   3.327  15.780 -0.0074  0.5432  0.0811
19140TIP3   OH278910   1.428   1.170  16.493 -0.5455 -0.0869  0.1134
19140TIP3    H178911   1.393   1.240  16.548 -0.0201  0.4745 -0.2567
19140TIP3    H278912   1.441   1.097  16.553  0.2215  0.5874  0.7894
19141TIP3   OH278913   4.476   1.633  16.201 -0.0646  0.8623 -0.2313
19141TIP3    H178914   4.412   1.666  16.138  0.8227  0.1427 -1.5599
19141TIP3    H278915   4.423   1.608  16.277 -1.2641  1.1057 -0.9470
19142TIP3   OH278916   0.118   3.662  14.679  0.1896  0.0616  0.3024
19142TIP3    H178917   0.073   3.745  14.696  0.9058  0.7077 -0.9133
19142TIP3    H278918   0.210   3.680  14.695  0.6777  0.2132 -2.3577
19143TIP3   OH278919   0.264   3.574  16.522  0.2207 -0.2431  0.1726
19143TIP3    H178920   0.226   3.492  16.554 -1.5669  0.7241  0.6367
19143TIP3    H278921   0.291   3.554  16.432 -1.8434 -0.8959 -0.3709
19144TIP3   OH278922   5.555   3.576  10.839 -0.3448 -0.5571 -0.0153
19144TIP3    H178923   5.602   3.659  10.849 -1.0998 -0.1081 -0.1021
19144TIP3    H278924   5.467   3.601  10.810 -0.2357 -1.4536 -1.2166
19145TIP3   OH278925   0.507   1.569   4.881 -0.1663  0.1898 -0.0911
19145TIP3    H178926   0.456   1.488   4.885  1.1459 -0.6253  2.4026
19145TIP3    H278927   0.598   1.540   4.890  0.4889  1.8554 -0.9178
19146TIP3   OH278928   0.862   2.909  12.726 -0.0912  0.2447  0.2909
19146TIP3    H178929   0.846   2.990  12.677  2.9303 -0.1754 -1.7176
19146TIP3    H278930   0.939   2.929  12.779  2.3438 -1.8359 -2.1471
19147TIP3   OH278931   3.731   4.753  11.101  0.3710 -0.0468  0.1395
19147TIP3    H178932   3.678   4.782  11.027  1.7407 -0.6596 -1.1347
19147TIP3    H278933   3.676   4.768  11.178 -1.3591 -0.0313 -1.0619
19148TIP3   OH278934   0.908   1.256   2.939  0.2871 -0.2336  0.2143
19148TIP3    H178935   0.934   1.347   2.947  0.0883 -0.1979  0.4739
19148TIP3    H278936   0.875   1.233   3.026  0.3357 -0.5510  0.1498
19149TIP3   OH278937   6.528   1.332  12.909 -0.0170  0.4865 -0.6174
19149TIP3    H178938   6.507   1.380  12.990  1.2562  0.4965 -0.2689
19149TIP3    H278939   6.448   1.338  12.857 -0.9166  0.3699  0.6902
19150TIP3   OH278940   1.745   0.467   0.406 -0.0491 -0.8832 -0.7224
19150TIP3    H178941   1.816   0.517   0.366 -0.8276  1.8252  1.0146
19150TIP3    H278942   1.789   0.393   0.449  1.7307  0.5949  0.1270
19151TIP3   OH278943   3.727   0.808  15.583 -0.6723 -0.4866  0.2590
19151TIP3    H178944   3.750   0.740  15.520 -1.3700 -0.0654 -0.4628
19151TIP3    H278945   3.633   0.821  15.571 -0.6580  0.1758  0.8182
19152TIP3   OH278946   3.996   0.037  12.645  0.0650  0.0447  0.1570
19152TIP3    H178947   4.004   0.005  12.555  1.1139 -0.3323  0.3610
19152TIP3    H278948   3.906   0.068  12.652  0.0629  0.3967 -1.1231
19153TIP3   OH278949   4.654   0.899  13.027  0.8451  0.3063  0.0848
19153TIP3    H178950   4.692   0.861  12.948  0.8945  0.5942 -0.0340
19153TIP3    H278951   4.639   0.825  13.085 -0.5121 -0.0951 -0.7388
19154TIP3   OH278952   1.890   2.702   4.259  0.0123  0.0758  0.2591
19154TIP3    H178953   1.926   2.616   4.281 -0.4708 -1.0458 -2.8670
19154TIP3    H278954   1.797   2.695   4.283  0.5124  0.8126  2.6429
19155TIP3   OH278955   2.984   3.525   4.812 -0.0673  0.4040 -0.7124
19155TIP3    H178956   3.064   3.572   4.788 -0.1288  1.4840  0.9711
19155TIP3    H278957   3.007   3.481   4.894 -0.8860 -0.1491 -0.7744
19156TIP3   OH278958   5.092   4.457   5.647 -0.0662 -0.7937 -0.2702
19156TIP3    H178959   5.068   4.504   5.727  0.7880 -3.1587  1.5105
19156TIP3    H278960   5.154   4.514   5.603  0.0924  0.2372  1.2217
19157TIP3   OH278961   0.475   1.673   2.165 -0.1579 -0.2520  0.2621
19157TIP3    H178962   0.425   1.693   2.086  2.0035  0.2720 -1.0822
19157TIP3    H278963   0.533   1.748   2.176  2.4520 -2.0504 -0.1184
19158TIP3   OH278964   0.756   2.099  11.061  0.4309 -0.4626 -0.1824
19158TIP3    H178965   0.831   2.148  11.027  1.0535 -1.6768 -0.6152
19158TIP3    H278966   0.791   2.013  11.084 -0.7647 -0.9497 -0.0802
19159TIP3   OH278967   1.987   4.746  11.532 -0.1256 -1.2910 -0.0464
19159TIP3    H178968   1.944   4.735  11.448  1.5969  1.3076 -1.3989
19159TIP3    H278969   2.073   4.704  11.520  0.5104 -0.0488  0.0219
19160TIP3   OH278970   0.759   6.349   4.343 -0.2172  0.2875  0.0741
19160TIP3    H178971   0.705   6.277   4.374  0.7533 -0.9989 -1.0765
19160TIP3    H278972   0.753   6.416   4.412 -1.6710 -0.6084  0.8555
19161TIP3   OH278973   4.785   3.900   3.696  0.3942  0.5133  0.3477
19161TIP3    H178974   4.768   3.985   3.655  0.0983 -0.4177 -1.5991
19161TIP3    H278975   4.831   3.850   3.628  0.1679 -1.0303  1.2875
19162TIP3   OH278976   6.440   0.792   4.590  0.4712 -0.5648  0.0776
19162TIP3    H178977   6.527   0.825   4.611  0.0134 -0.2395  1.5651
19162TIP3    H278978   6.389   0.803   4.670 -0.4741 -2.3265 -0.2036
19163TIP3   OH278979   1.757   6.612   6.113 -0.2348 -0.3123 -0.0644
19163TIP3    H178980   1.842   6.648   6.088 -0.2569  0.1986  0.5690
19163TIP3    H278981   1.729   6.562   6.037  0.2927  0.1281 -0.5580
19164TIP3   OH278982   1.724   1.211   6.426  0.2639  0.4799 -0.1922
19164TIP3    H178983   1.680   1.217   6.341 -2.8393 -1.6611  1.0907
19164TIP3    H278984   1.762   1.124   6.428  1.6196  1.0492  0.1130
19165TIP3   OH278985   1.101   6.366   2.791 -0.3322 -0.0449 -0.2694
19165TIP3    H178986   1.148   6.283   2.798 -1.4197 -0.5463  1.9782
19165TIP3    H278987   1.150   6.427   2.846 -1.3372 -0.1323  0.7579
19166TIP3   OH278988   3.545   4.775   0.564  0.2739 -0.1832  0.0812
19166TIP3    H178989   3.594   4.774   0.482 -0.0507 -0.8030 -0.1087
19166TIP3    H278990   3.550   4.685   0.596  1.1124  0.2352  1.1817
19167TIP3   OH278991   6.305   4.940   4.187  0.2306 -0.0256  0.1745
19167TIP3    H178992   6.336   4.852   4.169  0.5727  0.6462 -3.0517
19167TIP3    H278993   6.210   4.931   4.193  0.4115 -1.0022  3.0950
19168TIP3   OH278994   0.475   1.613   1.160 -0.1030  0.6211 -0.4346
19168TIP3    H178995   0.456   1.628   1.068 -0.6116  2.5402 -0.0544
19168TIP3    H278996   0.556   1.660   1.177 -1.4534  2.6852  0.6800
19169TIP3   OH278997   1.345   1.703   5.023  0.4118  0.6856  0.5544
19169TIP3    H178998   1.395   1.784   5.017 -0.7573  1.3177 -1.2374
19169TIP3    H278999   1.388   1.643   4.962  0.4755  0.3758  0.8939
19170TIP3   OH279000   6.322   1.826   0.569 -0.5280  0.0269  0.0952
19170TIP3    H179001   6.227   1.825   0.583 -0.8250 -0.4687 -1.6824
19170TIP3    H279002   6.358   1.791   0.650 -1.8407  0.5851  0.9502
19171TIP3   OH279003   3.222   4.107   0.705  0.3460 -0.0481 -0.1365
19171TIP3    H179004   3.211   4.023   0.661 -0.9683 -1.1071  2.0260
19171TIP3    H279005   3.136   4.148   0.698 -0.2903 -0.8019  2.3903
19172TIP3   OH279006   1.704   5.464  15.607  0.2064 -0.1419  0.0910
19172TIP3    H179007   1.629   5.450  15.665 -0.5062  0.5606 -0.6315
19172TIP3    H279008   1.781   5.456  15.663 -0.4505  0.0903  1.0321
19173TIP3   OH279009   0.368   3.724   4.734 -0.0374  0.1352 -0.2687
19173TIP3    H179010   0.445   3.673   4.759 -0.2469  0.2757  0.7053
19173TIP3    H279011   0.403   3.807   4.702  0.2297  0.0987 -0.0744
19174TIP3   OH279012   1.226   5.218   4.960 -0.0267 -0.3279 -0.9200
19174TIP3    H179013   1.255   5.297   5.004  4.3301 -2.1592  0.0354
19174TIP3    H279014   1.163   5.178   5.020  1.7605 -0.1205  1.1793
19175TIP3   OH279015   1.558   5.640   3.049  0.0529 -0.2113 -0.4109
19175TIP3    H179016   1.562   5.616   2.957 -2.1387 -0.9392 -0.3788
19175TIP3    H279017   1.481   5.595   3.082 -0.2680  1.4787  1.3509
19176TIP3   OH279018   1.848   2.193   0.146  0.1698 -0.0246  0.3647
19176TIP3    H179019   1.908   2.155   0.210 -0.3794 -0.2550  0.7476
19176TIP3    H279020   1.905   2.224   0.076  0.6109 -1.9078 -0.1598
19177TIP3   OH279021   5.188   4.404   5.156  0.3504 -1.4484 -0.2559
19177TIP3    H179022   5.146   4.400   5.242  0.9319 -1.5504  0.0298
19177TIP3    H279023   5.152   4.329   5.108 -0.2806 -1.1543 -0.2418
19178TIP3   OH279024   6.483   0.959  12.932  0.7941  0.4198 -0.4720
19178TIP3    H179025   6.532   0.901  12.991 -0.2027 -0.7663 -0.7634
19178TIP3    H279026   6.544   0.977  12.860  1.8120  1.3982  0.5985
19179TIP3   OH279027   6.473   6.151   3.485 -0.5339  0.3558 -0.3491
19179TIP3    H179028   6.489   6.072   3.433 -0.0120 -0.6802  1.2970
19179TIP3    H279029   6.525   6.137   3.565 -0.3206  2.4426 -0.0850
19180TIP3   OH279030   4.080   2.239   2.513 -0.5343  0.0285  0.0709
19180TIP3    H179031   4.000   2.269   2.470 -1.1658  1.2152  1.9551
19180TIP3    H279032   4.061   2.246   2.607  1.2328 -1.1951  0.5702
19181TIP3   OH279033   2.163   0.314  12.385  0.0797  0.4204 -0.5610
19181TIP3    H179034   2.216   0.300  12.307 -0.5569 -1.7507 -0.6810
19181TIP3    H279035   2.111   0.392  12.365  0.3718  0.2603 -2.0704
19182TIP3   OH279036   3.502   5.327  14.963 -0.3288  0.2477 -0.0607
19182TIP3    H179037   3.563   5.261  14.996 -0.7383  0.1649  0.5550
19182TIP3    H279038   3.557   5.404  14.946 -0.1212  0.3553  1.0137
19183TIP3   OH279039   1.113   2.186  14.052 -0.3438 -0.2083  0.2888
19183TIP3    H179040   1.178   2.130  14.009  0.0047  1.0176 -0.8590
19183TIP3    H279041   1.044   2.197  13.986 -0.3455  0.7897  0.4495
19184TIP3   OH279042   1.497   6.429   4.047 -0.0141  0.2716 -0.0596
19184TIP3    H179043   1.479   6.421   3.953  0.0702  1.6317 -0.2137
19184TIP3    H279044   1.528   6.342   4.073  2.5057  0.5420 -1.8522
19185TIP3   OH279045   0.794   3.551   3.579 -0.0136 -0.3978  0.3485
19185TIP3    H179046   0.708   3.560   3.538  0.6040 -0.6133 -1.0286
19185TIP3    H279047   0.856   3.585   3.515  0.8702  0.8200  1.7691
19186TIP3   OH279048   4.312   0.297   4.476 -0.0637 -0.4686 -0.3633
19186TIP3    H179049   4.390   0.269   4.523 -0.8123  0.8000  1.7838
19186TIP3    H279050   4.262   0.347   4.540  0.0526  3.7205 -3.1275
19187TIP3   OH279051   1.562   3.567  16.515  0.1021  0.2224  0.5876
19187TIP3    H179052   1.487   3.530  16.561 -0.6333 -0.0371 -0.7677
19187TIP3    H279053   1.630   3.575  16.582 -0.7982 -0.4915  1.6147
19188TIP3   OH279054   6.376   4.029   0.199  0.4670  0.1258 -0.0342
19188TIP3    H179055   6.445   4.068   0.254  0.1480  0.7135 -0.0501
19188TIP3    H279056   6.330   3.970   0.258  1.4383 -0.8336 -0.2045
19189TIP3   OH279057   5.059   4.011  11.529 -0.0377 -0.1735 -0.1246
19189TIP3    H179058   5.030   4.098  11.504  0.9834  0.3700  0.5320
19189TIP3    H279059   5.147   4.003  11.492  0.9682  0.1301  2.0199
19190TIP3   OH279060   3.338   2.003  13.986  0.2556  0.3212 -0.8840
19190TIP3    H179061   3.427   2.037  13.993  0.0255  0.5943  1.7918
19190TIP3    H279062   3.349   1.913  13.957  1.6503 -0.4505  1.7589
19191TIP3   OH279063   3.585   0.360  15.480 -0.2177  0.7490 -0.3008
19191TIP3    H179064   3.535   0.380  15.559  1.1933 -0.1541  0.8929
19191TIP3    H279065   3.598   0.444  15.438 -1.5644  1.1684  0.0618
19192TIP3   OH279066   1.884   4.670  11.927 -0.0630  0.4162  0.1539
19192TIP3    H179067   1.794   4.640  11.943  0.3844 -2.1567 -1.5682
19192TIP3    H279068   1.879   4.765  11.935 -2.3312  0.2110  2.7966
19193TIP3   OH279069   0.963   2.487  17.182 -0.1934 -0.2087 -0.0808
19193TIP3    H179070   0.937   2.480  17.273  0.3246 -0.1210  0.0768
19193TIP3    H279071   0.981   2.397  17.155  2.1570 -0.0414  0.6656
19194TIP3   OH279072   0.512   4.538  16.683 -0.0320  0.3057 -0.5625
19194TIP3    H179073   0.425   4.556  16.649  0.3125  1.2261 -1.0010
19194TIP3    H279074   0.516   4.443  16.691 -1.0595  0.2517 -0.5573
19195TIP3   OH279075   3.544   6.051   4.480  0.4842 -0.9425 -0.1657
19195TIP3    H179076   3.572   6.125   4.534 -1.2939 -0.8846  0.7673
19195TIP3    H279077   3.573   6.073   4.392  0.4029  0.6507  0.1716
19196TIP3   OH279078   0.605   3.983  16.431 -0.2927  0.0662  0.1872
19196TIP3    H179079   0.592   4.061  16.485  0.2509 -0.1660  0.6689
19196TIP3    H279080   0.573   3.911  16.485  0.0758 -0.1466  0.1276
19197TIP3   OH279081   1.105   3.416   2.259  0.5529 -0.1539 -0.1421
19197TIP3    H179082   1.059   3.458   2.186 -0.1786 -1.4230 -0.4270
19197TIP3    H279083   1.112   3.485   2.326 -1.2429  0.2332 -0.3283
19198TIP3   OH279084   0.714   0.959   6.100  0.4651 -0.0630 -0.2367
19198TIP3    H179085   0.772   0.899   6.145 -0.8900 -0.4201  1.1013
19198TIP3    H279086   0.628   0.918   6.105 -0.7547  2.4394  1.7538
19199TIP3   OH279087   3.993   4.779   2.219  0.2855 -0.1286  0.2440
19199TIP3    H179088   4.034   4.693   2.202  0.1696 -0.3184  0.9014
19199TIP3    H279089   4.001   4.826   2.136  1.1063 -0.4689  0.1181
19200TIP3   OH279090   3.384   0.062   0.219  0.4202  0.3095  0.1574
19200TIP3    H179091   3.432   0.041   0.139  2.6269  0.2800  1.4191
19200TIP3    H279092   3.348  -0.022   0.248 -0.7432  0.3848 -0.9568
19201TIP3   OH279093   6.308   5.729  11.514 -0.1334  0.8938  0.5825
19201TIP3    H179094   6.342   5.640  11.508 -2.1625  0.1401 -1.2137
19201TIP3    H279095   6.370   5.782  11.464 -0.7154 -0.1765 -1.3654
19202TIP3   OH279096   3.700   4.024  16.409  0.0903 -0.0228  0.7300
19202TIP3    H179097   3.755   4.008  16.485  1.3544 -1.8979 -0.4784
19202TIP3    H279098   3.750   4.085  16.355  0.9040 -1.4633 -0.2080
19203TIP3   OH279099   5.254   6.675  10.647  0.1167  0.2629 -0.3662
19203TIP3    H179100   5.270   6.643  10.558 -0.8670  0.5781 -0.6656
19203TIP3    H279101   5.198   6.608  10.687  2.0697 -0.8404  0.6796
19204TIP3   OH279102   3.573   1.885   2.797 -0.1120  0.3419 -0.0711
19204TIP3    H179103   3.610   1.847   2.718  2.4514 -2.8279  2.3753
19204TIP3    H279104   3.479   1.873   2.788  0.2186 -1.3057 -2.0055
19205TIP3   OH279105   5.409   2.556   1.036  0.4879 -0.3668 -0.0641
19205TIP3    H179106   5.393   2.626   1.099  1.1900 -0.0164 -0.2636
19205TIP3    H279107   5.470   2.595   0.973  1.2123 -1.2984  0.0559
19206TIP3   OH279108   6.803   5.542  14.893  0.2491 -0.9423 -0.4021
19206TIP3    H179109   6.738   5.475  14.873 -2.1811  0.8457  0.9369
19206TIP3    H279110   6.753   5.613  14.933  2.3907  2.3685 -3.0118
19207TIP3   OH279111   1.965   2.307   3.653 -0.1825 -0.4093 -0.1590
19207TIP3    H179112   1.961   2.350   3.738  0.3871 -0.3092 -0.1808
19207TIP3    H279113   2.031   2.357   3.604 -1.9410  0.8340 -1.3942
19208TIP3   OH279114   3.658   5.614   1.050  0.1074 -0.1640 -0.6286
19208TIP3    H179115   3.655   5.604   1.145 -1.2824  0.9807 -0.5249
19208TIP3    H279116   3.657   5.708   1.035 -0.0066 -0.3262 -1.7855
19209TIP3   OH279117   0.849   1.678  12.043  0.6228  0.0194 -0.0489
19209TIP3    H179118   0.792   1.656  11.970  1.1178 -1.8990  0.0935
19209TIP3    H279119   0.927   1.717  12.002  0.3373  0.1859 -0.4353
19210TIP3   OH279120   3.967   3.281   6.759  0.2831 -0.0675  0.0185
19210TIP3    H179121   3.903   3.348   6.735  1.0979  0.8973  0.4598
19210TIP3    H279122   3.916   3.213   6.803 -0.7665 -0.3942 -1.6142
19211TIP3   OH279123   4.183   1.776   4.451 -0.5282 -0.5072  0.8403
19211TIP3    H179124   4.114   1.813   4.505 -0.4258  1.6330 -0.3895
19211TIP3    H279125   4.265   1.808   4.489 -0.3264 -1.1548  0.9594
19212TIP3   OH279126   1.639   2.354   6.550 -0.0687 -0.2891 -0.1554
19212TIP3    H179127   1.662   2.443   6.576  0.2416 -1.2182  3.2524
19212TIP3    H279128   1.715   2.301   6.575 -1.6891 -1.9738  1.5216
19213TIP3   OH279129   0.499   2.508   4.021  0.0962 -0.2337 -0.5501
19213TIP3    H179130   0.407   2.532   4.015 -0.1434 -1.4736 -3.5179
19213TIP3    H279131   0.506   2.427   3.970  2.7443 -0.4693  0.0422
19214TIP3   OH279132   0.847   6.553   3.071 -0.5007 -0.3485  0.2225
19214TIP3    H179133   0.905   6.512   3.135 -0.8298 -0.9794  0.1233
19214TIP3    H279134   0.762   6.513   3.087 -0.6768 -0.2088 -0.3418
19215TIP3   OH279135   2.747   2.495   0.105  0.3641  0.3236  0.3659
19215TIP3    H179136   2.769   2.580   0.144 -0.0641  0.4891  0.2485
19215TIP3    H279137   2.686   2.455   0.167 -1.4280  1.1822 -0.7727
19216TIP3   OH279138   6.715   4.993   2.081 -0.5374 -0.0099 -0.3454
19216TIP3    H179139   6.671   5.025   2.159 -0.9528 -0.4468 -0.3942
19216TIP3    H279140   6.644   4.966   2.023 -0.2106 -0.3641 -0.5847
19217TIP3   OH279141   3.354   1.681   2.822  0.8425 -0.2290 -0.2158
19217TIP3    H179142   3.271   1.636   2.834  1.1453 -0.5699  0.6024
19217TIP3    H279143   3.399   1.631   2.754  1.2479 -1.2814  0.7989
19218TIP3   OH279144   0.760   1.964  13.525  0.2547  0.1098  0.2379
19218TIP3    H179145   0.852   1.970  13.497  0.2597  1.8691  0.5599
19218TIP3    H279146   0.712   2.014  13.459 -0.3966 -0.2347  0.4488
19219TIP3   OH279147   1.156   3.394  13.051 -0.2031 -0.0290 -0.1036
19219TIP3    H179148   1.115   3.368  13.133  0.9072  0.0359  0.4959
19219TIP3    H279149   1.132   3.325  12.989  1.2241 -1.6090  0.9922
19220TIP3   OH279150   5.526   3.782  12.405 -0.1420  0.2111 -0.0091
19220TIP3    H179151   5.556   3.811  12.492 -0.1513  1.9878 -0.5589
19220TIP3    H279152   5.607   3.768  12.356 -0.1440  0.5950 -0.1274
19221TIP3   OH279153   1.369   6.168   5.261  0.0702  0.2983  0.3948
19221TIP3    H179154   1.318   6.104   5.212  0.3353  1.1419 -1.0437
19221TIP3    H279155   1.451   6.124   5.281 -0.2419 -0.2266  0.5251
19222TIP3   OH279156   4.482   0.534  11.506 -0.2478 -0.1051 -0.0034
19222TIP3    H179157   4.399   0.561  11.546  1.1800  3.4886  0.8802
19222TIP3    H279158   4.519   0.471  11.569 -1.2263  0.0476  0.7479
19223TIP3   OH279159   3.927   2.299   4.056  0.1650 -0.0456  0.2005
19223TIP3    H179160   3.976   2.304   4.138 -1.2592 -1.7385  1.2384
19223TIP3    H279161   3.961   2.221   4.013  0.4435  0.4677 -0.5246
19224TIP3   OH279162   4.769   2.640  12.933  0.0572 -0.0209  0.0389
19224TIP3    H179163   4.743   2.714  12.878 -1.6614 -0.7525 -0.1813
19224TIP3    H279164   4.810   2.681  13.009 -0.5870  1.1530 -0.2200
19225TIP3   OH279165   0.283   0.925  14.700 -0.0540  0.5012 -0.1905
19225TIP3    H179166   0.250   0.896  14.614 -0.0582  0.3530 -0.1402
19225TIP3    H279167   0.274   1.020  14.699  1.8014  0.7238 -1.1606
19226TIP3   OH279168   3.872   0.896   4.948  0.0928 -0.0099  0.2718
19226TIP3    H179169   3.911   0.954   5.013 -2.1192  1.1887  0.6097
19226TIP3    H279170   3.789   0.868   4.987 -0.4636 -0.6682 -1.3064
19227TIP3   OH279171   0.432   3.951  13.424 -0.1916 -0.1408 -0.9086
19227TIP3    H179172   0.440   3.871  13.476 -0.2084  0.1838 -0.3941
19227TIP3    H279173   0.346   3.946  13.384 -0.4133 -0.1241 -0.4364
19228TIP3   OH279174   1.377   2.057   5.883 -0.3585 -0.2396  0.5593
19228TIP3    H179175   1.311   1.991   5.899  0.1356 -1.0739 -0.6908
19228TIP3    H279176   1.460   2.010   5.886  0.1520  0.6846  1.5492
19229TIP3   OH279177   0.526   4.724   1.796  0.1229  0.4631  0.5294
19229TIP3    H179178   0.600   4.668   1.818  1.5800  1.9520 -0.4280
19229TIP3    H279179   0.506   4.771   1.877  0.3103  0.1668  0.7495
19230TIP3   OH279180   6.080   0.306   3.582  0.0769  0.3178 -0.4310
19230TIP3    H179181   6.146   0.263   3.638 -0.6719  0.1417  0.3366
19230TIP3    H279182   6.083   0.398   3.608 -0.3170  0.2249 -0.0348
19231TIP3   OH279183   4.975   1.678   1.348 -0.4832 -0.2195  0.5957
19231TIP3    H179184   5.045   1.698   1.410 -0.4463 -0.1164  0.5210
19231TIP3    H279185   4.899   1.728   1.381  0.3743  2.4906 -1.2279
19232TIP3   OH279186   1.340   2.267   3.895 -0.1120  0.0841 -0.1634
19232TIP3    H179187   1.425   2.309   3.906  0.8123 -1.6657 -0.4706
19232TIP3    H279188   1.314   2.287   3.805  0.7130 -0.6866 -0.5785
19233TIP3   OH279189   0.781   5.865   5.247  0.0018  0.4061  0.0373
19233TIP3    H179190   0.862   5.909   5.274 -0.5791  1.0898  0.7100
19233TIP3    H279191   0.773   5.885   5.154  0.3045  0.8274  0.0993
19234TIP3   OH279192   4.370   5.028  11.767  0.4540 -0.2147  0.1816
19234TIP3    H179193   4.346   5.001  11.855 -0.7025 -1.3671 -0.4618
19234TIP3    H279194   4.457   5.067  11.777  0.1168  0.1812  1.9033
19235TIP3   OH279195   6.698   1.188   5.470  0.4401  0.8524 -0.0723
19235TIP3    H179196   6.731   1.195   5.560  1.6233  0.8222 -0.4827
19235TIP3    H279197   6.765   1.138   5.424  1.3720  3.3832 -1.6870
19236TIP3   OH279198   3.062   2.614   1.415  0.0979  0.3035 -0.2825
19236TIP3    H179199   3.051   2.705   1.389  0.2309  0.5898  0.6267
19236TIP3    H279200   3.146   2.612   1.461  0.8977 -0.6069 -1.6981
19237TIP3   OH279201   3.569   0.212  12.061 -0.8827 -0.2585 -0.0196
19237TIP3    H179202   3.549   0.196  11.969  1.0467 -1.2471 -0.3277
19237TIP3    H279203   3.494   0.179  12.109 -1.9686  0.3652 -1.2325
19238TIP3   OH279204   1.112   6.139   0.035 -0.0060 -0.0373 -0.7472
19238TIP3    H179205   1.019   6.120   0.048  0.1015 -0.6419 -0.8282
19238TIP3    H279206   1.116   6.235   0.030 -0.7229 -0.0388 -1.5306
19239TIP3   OH279207   6.340   2.441   2.547  0.0901  0.3177  0.3375
19239TIP3    H179208   6.292   2.457   2.467  0.9139 -1.5458 -0.5965
19239TIP3    H279209   6.294   2.368   2.589  0.5626  0.2452  0.7487
19240TIP3   OH279210   1.822   0.793  14.306 -0.2352 -0.6862 -0.0493
19240TIP3    H179211   1.908   0.832  14.298 -0.7170  0.5017  0.3149
19240TIP3    H279212   1.761   0.866  14.295 -1.1687 -1.3424  0.5495
19241TIP3   OH279213   3.717   4.628  14.478 -0.5370 -0.5172  0.2249
19241TIP3    H179214   3.708   4.555  14.540 -0.8376 -2.6718 -2.1822
19241TIP3    H279215   3.633   4.631  14.433  0.5730 -1.0005 -2.0258
19242TIP3   OH279216   2.008   6.681   0.923 -0.1839  0.1040 -0.5427
19242TIP3    H179217   2.085   6.681   0.979  0.8473 -2.2363 -1.7845
19242TIP3    H279218   2.040   6.714   0.839 -0.9321  0.6141 -0.6353
19243TIP3   OH279219   3.479   2.845   1.104 -0.7457 -0.2414  0.0281
19243TIP3    H179220   3.546   2.877   1.044 -1.5127  0.7533 -0.3240
19243TIP3    H279221   3.407   2.818   1.047 -1.5860  0.9414  0.4735
19244TIP3   OH279222   0.446   4.845  12.368 -0.1328 -0.1207 -0.0456
19244TIP3    H179223   0.484   4.846  12.456  0.6494 -2.1577 -0.3065
19244TIP3    H279224   0.482   4.765  12.327 -0.5538  0.7132 -2.1780
19245TIP3   OH279225   2.958   4.390   3.220  0.2381 -0.2203  0.0144
19245TIP3    H179226   3.025   4.369   3.154  0.7692  0.6259  0.2598
19245TIP3    H279227   2.890   4.325   3.206 -0.4229  0.8785 -2.4762
19246TIP3   OH279228   6.374   2.211  15.527 -0.8401  0.1671  0.6396
19246TIP3    H179229   6.366   2.116  15.540  1.5524 -0.0712  0.7840
19246TIP3    H279230   6.289   2.238  15.492 -1.6522 -1.9880  0.8300
19247TIP3   OH279231   2.632   3.454   0.849  0.3154 -0.1371 -0.4588
19247TIP3    H179232   2.647   3.513   0.775 -2.0926 -0.6690 -1.4647
19247TIP3    H279233   2.559   3.493   0.897  1.8292  0.2011  1.7453
19248TIP3   OH279234   5.677   4.900  17.195 -0.5409  0.1812  0.1399
19248TIP3    H179235   5.588   4.878  17.166 -0.8591  2.3092 -0.6567
19248TIP3    H279236   5.727   4.909  17.114 -0.3078  1.7243  0.4238
19249TIP3   OH279237   0.857   2.641  13.303  0.3200 -0.6076  0.2251
19249TIP3    H179238   0.952   2.633  13.317  0.2708 -2.5239 -0.2846
19249TIP3    H279239   0.849   2.687  13.220  0.8604 -2.2586 -0.7669
19250TIP3   OH279240   0.228   3.670  15.245  0.2510 -0.4493  0.7654
19250TIP3    H179241   0.208   3.758  15.215 -0.0376 -0.2522  1.5160
19250TIP3    H279242   0.195   3.667  15.335  0.4575 -1.2480  0.8240
19251TIP3   OH279243   4.173   4.541  16.029  0.7248 -0.0641 -0.4662
19251TIP3    H179244   4.211   4.533  15.942  1.0040  0.7966 -0.4264
19251TIP3    H279245   4.122   4.622  16.027  1.0270  0.1561  0.2703
19252TIP3   OH279246   1.822   5.278  13.738  0.4389 -0.1499  0.3310
19252TIP3    H179247   1.757   5.294  13.669  0.4541 -0.0433  0.3403
19252TIP3    H279248   1.779   5.309  13.818  0.5833  0.1197  0.3047
19253TIP3   OH279249   2.398   2.122  13.554 -0.0079  0.0208  0.0056
19253TIP3    H179250   2.411   2.208  13.595 -1.4165 -0.4500  1.5370
19253TIP3    H279251   2.321   2.134  13.498 -1.0872 -0.5496  1.3072
19254TIP3   OH279252   3.734   6.626  16.584  0.1044  0.1577  0.4074
19254TIP3    H179253   3.668   6.573  16.539  1.0147  0.2775 -1.1392
19254TIP3    H279254   3.701   6.633  16.674 -3.5243  2.6448 -0.8654
19255TIP3   OH279255   5.253   4.754  10.889 -0.1924  0.4201  0.1781
19255TIP3    H179256   5.233   4.847  10.889 -0.9556  0.2623  0.2301
19255TIP3    H279257   5.313   4.742  10.816 -0.1817  0.9354  0.1026
19256TIP3   OH279258   0.532   3.031  12.769  0.1229 -0.6482  0.0232
19256TIP3    H179259   0.578   3.042  12.852  2.0799  1.2492 -1.2026
19256TIP3    H279260   0.597   3.053  12.703 -2.0449  0.2903 -1.9348
19257TIP3   OH279261   5.404   6.722   5.872 -0.1253 -0.5620  0.3481
19257TIP3    H179262   5.427   6.815   5.872 -1.2758 -0.2256 -1.7509
19257TIP3    H279263   5.317   6.719   5.832 -1.0866 -2.3657  2.3551
19258TIP3   OH279264   4.550   3.533  12.395  0.1671 -0.2076  0.3474
19258TIP3    H179265   4.461   3.514  12.366 -0.9162  3.8504  0.4486
19258TIP3    H279266   4.596   3.563  12.317 -0.1769  2.4800  1.0679
19259TIP3   OH279267   5.087   1.384   5.198  0.1356 -0.3969 -0.2082
19259TIP3    H179268   5.144   1.365   5.272 -0.2829  1.1138  0.5374
19259TIP3    H279269   5.060   1.298   5.166  4.0182 -1.3106 -1.6061
19260TIP3   OH279270   5.807   1.245   3.773 -0.7554  0.1613 -0.3076
19260TIP3    H179271   5.837   1.323   3.727  0.2253  0.9460  1.5385
19260TIP3    H279272   5.887   1.202   3.803 -1.3229  0.3712  1.6796
19261TIP3   OH279273   0.101   1.720  13.618 -0.7099  0.3316 -0.0728
19261TIP3    H179274   0.165   1.653  13.595  0.0510  0.9632  0.1487
19261TIP3    H279275   0.152   1.787  13.664 -1.0814  1.9318 -1.8892
19262TIP3   OH279276   4.652   0.743   3.225  0.0652  0.2643 -0.7654
19262TIP3    H179277   4.609   0.737   3.139 -0.1821 -1.8932 -0.5586
19262TIP3    H279278   4.711   0.667   3.227  0.2433  0.4103  0.8667
19263TIP3   OH279279   2.379   4.956  10.143  0.2382  0.3833  0.1321
19263TIP3    H179280   2.311   4.919  10.086 -1.2853  1.1822  1.3386
19263TIP3    H279281   2.396   5.043  10.107  0.5737  0.2098 -0.1300
19264TIP3   OH279282   6.478   1.488   2.605 -0.1084  0.2208 -0.5625
19264TIP3    H179283   6.565   1.464   2.574  1.4330  2.6169  1.4752
19264TIP3    H279284   6.455   1.566   2.556 -0.4442  0.4479 -0.0611
19265TIP3   OH279285   0.374   4.420   5.005 -0.4373  0.1311 -0.2329
19265TIP3    H179286   0.463   4.389   4.988 -0.8316 -0.4535 -1.3234
19265TIP3    H279287   0.345   4.368   5.080  0.2637  0.5939  0.3743
19266TIP3   OH279288   0.705   5.078  14.026  0.2623  0.3866  0.9136
19266TIP3    H179289   0.788   5.124  14.011  0.1214  1.0189  1.9943
19266TIP3    H279290   0.657   5.090  13.944 -0.0071  2.7028  1.3350
19267TIP3   OH279291   2.230   6.176   3.568  0.2933  0.3130 -0.2697
19267TIP3    H179292   2.270   6.240   3.508  1.0607 -1.3968 -1.6748
19267TIP3    H279293   2.293   6.104   3.572 -0.6121 -0.4455  1.1347
19268TIP3   OH279294   6.340   0.595   2.573 -0.1434  0.6362 -0.5101
19268TIP3    H179295   6.303   0.589   2.485  0.0925 -0.1604 -0.5546
19268TIP3    H279296   6.351   0.505   2.601 -2.3141  0.8259  1.2221
19269TIP3   OH279297   2.897   1.516   2.047  0.6635  0.6498 -0.5815
19269TIP3    H179298   2.924   1.464   2.123 -1.0939  1.1393  0.4331
19269TIP3    H279299   2.886   1.451   1.977  2.6242  0.2342 -0.5571
19270TIP3   OH279300   1.252   2.205   6.080 -0.6066 -0.1304 -0.3448
19270TIP3    H179301   1.319   2.205   6.011 -2.2975  1.2206 -2.1021
19270TIP3    H279302   1.290   2.153   6.151  1.4573 -1.1031 -2.0615
19271TIP3   OH279303   3.220   0.873   5.147  0.9018 -0.8483 -0.1709
19271TIP3    H179304   3.202   0.870   5.241 -0.6060  1.7309 -0.2770
19271TIP3    H279305   3.209   0.783   5.118 -1.1517 -1.2963  1.7289
19272TIP3   OH279306   6.297   1.460  11.797 -0.4996 -0.4913 -0.6623
19272TIP3    H179307   6.331   1.467  11.887 -0.2753 -1.1298 -0.6913
19272TIP3    H279308   6.273   1.549  11.774  0.7952 -0.0696 -0.4862
19273TIP3   OH279309   3.915   6.452   2.023 -0.3104  0.4040  0.4009
19273TIP3    H179310   3.900   6.403   1.942  1.2567 -1.2940  1.0683
19273TIP3    H279311   3.858   6.409   2.088  1.5170 -1.0470  1.1327
19274TIP3   OH279312   1.920   3.522   3.238  0.0573  0.7048 -1.0974
19274TIP3    H179313   1.836   3.530   3.192 -0.5987 -0.0925 -0.0867
19274TIP3    H279314   1.896   3.523   3.331  0.8159 -2.5399 -0.7661
19275TIP3   OH279315   2.300   0.193   6.533 -0.1143  0.3697 -0.3369
19275TIP3    H179316   2.206   0.177   6.523  0.1336 -0.2074 -2.2129
19275TIP3    H279317   2.307   0.285   6.558 -1.2081  0.1196  0.9671
19276TIP3   OH279318   6.433   1.736   2.524 -0.2702  0.1682  0.1918
19276TIP3    H179319   6.465   1.800   2.587  1.2475 -0.1747 -0.1687
19276TIP3    H279320   6.367   1.782   2.473 -1.7968  0.3605  2.2067
19277TIP3   OH279321   4.749   2.845   6.332  0.0401  0.4176  0.1191
19277TIP3    H179322   4.750   2.935   6.298 -0.1288  0.3080 -0.1860
19277TIP3    H279323   4.666   2.809   6.300  0.1649  0.1141  0.1377
19278TIP3   OH279324   1.450   1.913   1.064 -0.2569  1.0030  0.1642
19278TIP3    H179325   1.492   2.000   1.064 -0.0165  0.9240  2.0456
19278TIP3    H279326   1.421   1.901   1.154  0.8260 -1.4072  0.2562
19279TIP3   OH279327   0.473   3.394  12.294 -0.1844  0.4394  0.1219
19279TIP3    H179328   0.459   3.406  12.200  0.7404 -1.4282 -0.2950
19279TIP3    H279329   0.412   3.325  12.319 -0.4319  0.9299  0.9039
19280TIP3   OH279330   3.197   0.436  15.939 -0.0333 -0.3815 -0.6865
19280TIP3    H179331   3.260   0.372  15.908  0.1414  0.1177 -1.3750
19280TIP3    H279332   3.193   0.502  15.870  1.0760  1.2615  0.7539
19281TIP3   OH279333   2.037   5.981   3.890  0.6288  0.0219  0.2986
19281TIP3    H179334   2.062   5.889   3.885  2.4410  0.5540 -3.0175
19281TIP3    H279335   2.119   6.028   3.903 -0.0692  1.2670  0.3694
19282TIP3   OH279336   5.343   2.006  15.752  0.1052 -0.0993  0.0377
19282TIP3    H179337   5.342   2.003  15.848 -0.5839  0.2735  0.0504
19282TIP3    H279338   5.265   1.957  15.726 -0.3099  0.7221 -0.2933
19283TIP3   OH279339   2.492   0.576  12.643  0.2107  0.1372  0.4041
19283TIP3    H179340   2.542   0.605  12.567 -0.0601 -2.1708 -0.7653
19283TIP3    H279341   2.460   0.489  12.618 -1.3414  0.0274  2.5143
19284TIP3   OH279342   5.614   1.461   4.378 -0.1990 -0.1842  0.2322
19284TIP3    H179343   5.707   1.464   4.399 -0.0890 -0.2375 -0.2414
19284TIP3    H279344   5.604   1.384   4.322 -0.9250 -1.5955  2.1522
19285TIP3   OH279345   3.219   6.231  11.626  0.4540  0.2600 -0.2240
19285TIP3    H179346   3.274   6.294  11.580  0.8832 -0.4643 -0.7132
19285TIP3    H279347   3.132   6.273  11.628  0.5481  0.5430 -1.2245
19286TIP3   OH279348   6.227   0.804  13.086 -0.4087  0.0222  0.6825
19286TIP3    H179349   6.242   0.718  13.125  0.8105  0.8905  2.2439
19286TIP3    H279350   6.292   0.811  13.016  0.9162  0.4392  1.9051
19287TIP3   OH279351   2.435   3.885   5.977 -0.2695  0.5343  0.0252
19287TIP3    H179352   2.370   3.837   5.926 -1.1939  1.7893  0.0060
19287TIP3    H279353   2.431   3.845   6.064  1.5819 -1.8768 -0.8808
19288TIP3   OH279354   4.669   6.388   3.956  0.7248  0.6663  0.1684
19288TIP3    H179355   4.573   6.395   3.947  0.8727  0.7085 -1.7720
19288TIP3    H279356   4.683   6.299   3.988  0.0321  0.7682  0.8051
19289TIP3   OH279357   6.235   6.564   2.387 -0.7539 -0.0640 -0.2801
19289TIP3    H179358   6.165   6.509   2.352 -1.1471  1.0252 -1.2650
19289TIP3    H279359   6.242   6.538   2.479 -3.7849  1.0877  0.3885
19290TIP3   OH279360   0.233   4.733  13.927  0.0710 -0.4227 -0.9473
19290TIP3    H179361   0.230   4.822  13.894 -1.2330 -0.6588 -1.5230
19290TIP3    H279362   0.240   4.742  14.022  3.2544  0.2655 -1.1501
19291TIP3   OH279363   6.723   2.292   1.770 -0.1830 -0.1510 -0.4530
19291TIP3    H179364   6.639   2.252   1.750 -0.3317 -0.1726  0.2000
19291TIP3    H279365   6.762   2.309   1.684 -1.2680  0.7546 -0.7999
19292TIP3   OH279366   2.583   1.233  10.896  0.1560  0.3929  0.0627
19292TIP3    H179367   2.656   1.257  10.952 -0.5616 -0.5107  1.4565
19292TIP3    H279368   2.558   1.315  10.852  1.6135  0.8231 -0.0034
19293TIP3   OH279369   2.237   2.375   2.172 -0.1125 -0.1429  0.4075
19293TIP3    H179370   2.159   2.425   2.194 -1.8737 -1.9282 -1.3052
19293TIP3    H279371   2.273   2.420   2.095  2.2373  2.2438  2.7049
19294TIP3   OH279372   0.993   5.499   5.259  0.2059  0.0733  0.3402
19294TIP3    H179373   0.931   5.515   5.330  1.5535  1.2213  1.3188
19294TIP3    H279374   0.947   5.529   5.180 -0.9504 -0.3177  0.8437
19295TIP3   OH279375   1.622   4.470  15.579  0.2414  0.0649  0.2598
19295TIP3    H179376   1.576   4.417  15.644 -0.9917  1.1323  0.3204
19295TIP3    H279377   1.696   4.417  15.552 -1.2389 -1.9246 -0.1233
19296TIP3   OH279378   6.792   3.096   2.788  0.6599 -0.4884 -0.4240
19296TIP3    H179379   6.763   3.057   2.706 -0.3951  0.1711 -0.3742
19296TIP3    H279380   6.736   3.057   2.855 -0.1340  0.7710 -0.3223
19297TIP3   OH279381   5.949   0.086  16.555 -0.1493  0.2875 -0.4172
19297TIP3    H179382   5.968   0.062  16.464 -1.8973  0.6579 -0.9380
19297TIP3    H279383   6.034   0.092  16.597  0.6319 -1.9207 -1.4898
19298TIP3   OH279384   0.011   4.933   0.785  0.5582  0.4151 -0.0551
19298TIP3    H179385  -0.066   4.894   0.744  2.2575 -0.3315 -2.7878
19298TIP3    H279386  -0.011   5.026   0.792 -0.5439  0.2465 -0.9246
19299TIP3   OH279387   4.311   1.510  14.471  0.2660 -0.3133 -0.7390
19299TIP3    H179388   4.265   1.593  14.458  0.0090 -0.1842  0.7890
19299TIP3    H279389   4.249   1.455  14.517  0.7746 -1.0216 -0.8883
19300TIP3   OH279390   5.296   3.992  11.372 -0.0437 -0.6759 -0.5761
19300TIP3    H179391   5.252   4.018  11.291 -0.1820 -1.6800 -0.8295
19300TIP3    H279392   5.364   3.931  11.343  0.0981 -0.8128  0.0364
19301TIP3   OH279393   1.467   3.603   6.469 -0.0539  0.2706  0.1294
19301TIP3    H179394   1.378   3.630   6.495 -1.0797 -3.0497  0.5736
19301TIP3    H279395   1.459   3.582   6.376 -0.2272 -1.4702  0.4942
19302TIP3   OH279396   2.037   1.126  12.861 -0.2523  0.3070 -0.2996
19302TIP3    H179397   2.105   1.148  12.925 -0.6373 -2.4545  1.2304
19302TIP3    H279398   1.955   1.131  12.911 -0.7503 -0.1349 -1.0517
19303TIP3   OH279399   3.021   0.642  14.443 -0.4023 -0.4153  0.2559
19303TIP3    H179400   2.972   0.638  14.526 -0.0251 -1.5299  0.4474
19303TIP3    H279401   2.977   0.710  14.393 -0.6180  0.3112  1.3869
19304TIP3   OH279402   0.531   5.491   2.303 -0.4898 -0.7081 -0.3039
19304TIP3    H179403   0.443   5.529   2.301 -0.4278 -0.1854  2.8139
19304TIP3    H279404   0.518   5.401   2.273 -2.0414 -0.5427 -0.2289
19305TIP3   OH279405   6.114   0.930   2.548  0.5427  0.4795 -0.0804
19305TIP3    H179406   6.167   1.003   2.516 -0.9291  1.6660  0.0768
19305TIP3    H279407   6.163   0.897   2.623  1.7904  0.5676 -0.8294
19306TIP3   OH279408   0.847   6.788   0.955 -0.1234  0.2053  0.3742
19306TIP3    H179409   0.903   6.712   0.974 -0.4437 -0.0329  0.3710
19306TIP3    H279410   0.907   6.862   0.958  0.0802  0.0269  1.0119
19307TIP3   OH279411   0.777   1.526  14.306  0.4837 -0.7353  0.0627
19307TIP3    H179412   0.703   1.483  14.264  0.1264 -0.1521  0.0780
19307TIP3    H279413   0.783   1.611  14.263  1.3427 -0.8887 -0.1532
19308TIP3   OH279414   3.869   2.222   3.665  0.3494 -0.1248  0.4219
19308TIP3    H179415   3.839   2.150   3.610 -0.5825  0.3567  0.2862
19308TIP3    H279416   3.821   2.211   3.747  1.4561 -0.6217  1.0373
19309TIP3   OH279417   0.843   4.236  11.934 -0.0939  0.3327 -0.1351
19309TIP3    H179418   0.829   4.322  11.972  0.3699  0.3047  0.1074
19309TIP3    H279419   0.874   4.182  12.007 -3.2116 -0.8512  0.4586
19310TIP3   OH279420   1.290   5.576   3.094  0.3355 -0.0637  0.1737
19310TIP3    H179421   1.266   5.616   3.178 -0.3290  1.3783 -0.6587
19310TIP3    H279422   1.325   5.490   3.117  0.5798  0.4794  1.9549
19311TIP3   OH279423   4.600   6.122  16.414  0.5119  0.2242  0.0403
19311TIP3    H179424   4.534   6.061  16.381  0.2255  1.3073 -1.5381
19311TIP3    H279425   4.566   6.151  16.498 -0.9384  0.5506 -0.6191
19312TIP3   OH279426   4.037   4.334  12.845  0.2737  0.1041  0.2086
19312TIP3    H179427   4.052   4.420  12.805  0.1776 -0.1361 -0.3675
19312TIP3    H279428   4.084   4.273  12.788 -0.1621 -0.2872  0.2614
19313TIP3   OH279429   2.545   1.907  16.363  0.4605 -0.3987  0.1766
19313TIP3    H179430   2.540   1.857  16.281  2.5866 -0.7372  0.1903
19313TIP3    H279431   2.634   1.943  16.363 -0.3056  1.6572  1.1881
19314TIP3   OH279432   1.313   3.245   2.242 -0.3178 -0.6761 -0.6742
19314TIP3    H179433   1.345   3.286   2.162 -0.2885  0.8525  0.0851
19314TIP3    H279434   1.229   3.286   2.259 -0.1240 -0.6459  0.3062
19315TIP3   OH279435   2.619   2.024  17.077  0.0243  0.4021 -0.1470
19315TIP3    H179436   2.632   1.931  17.061  1.9113 -0.0362  3.1909
19315TIP3    H279437   2.544   2.028  17.137 -0.0066  1.0266 -0.2191
19316TIP3   OH279438   1.289   1.915   2.197  0.1771  0.5291 -0.7653
19316TIP3    H179439   1.282   2.010   2.187  1.2526  0.8079  0.7584
19316TIP3    H279440   1.205   1.889   2.235 -1.4042  0.3323 -4.0050
19317TIP3   OH279441   5.665   0.349  12.619  0.2210 -0.0375  0.0403
19317TIP3    H179442   5.687   0.408  12.547  2.9947 -0.3327  0.5520
19317TIP3    H279443   5.597   0.396  12.668 -0.1028  1.1618 -1.4822
19318TIP3   OH279444   3.073   4.306   5.115  0.3094 -0.3881 -0.0566
19318TIP3    H179445   3.127   4.377   5.078  2.0984 -1.6515  0.0016
19318TIP3    H279446   3.047   4.338   5.201 -0.0330  0.7134 -0.5429
19319TIP3   OH279447   0.672   1.501  13.834  0.2525  0.3889  0.0267
19319TIP3    H179448   0.737   1.544  13.778  0.9224 -0.3898  0.1922
19319TIP3    H279449   0.636   1.572  13.887  2.5025  0.5618  1.4655
19320TIP3   OH279450   0.107   3.066  13.132 -0.2155 -0.1003  0.5217
19320TIP3    H179451   0.128   3.158  13.147 -2.3759  0.6256 -0.4383
19320TIP3    H279452   0.110   3.025  13.219  1.7200  0.6138  0.8313
19321TIP3   OH279453   5.732   4.081   4.969 -0.0600  0.0319  0.1049
19321TIP3    H179454   5.765   4.002   5.013 -0.2205 -0.1766 -0.1429
19321TIP3    H279455   5.680   4.125   5.035  0.2571  0.0724  0.3290
19322TIP3   OH279456   3.722   2.171  10.372 -0.0369  0.3459 -0.3404
19322TIP3    H179457   3.815   2.191  10.358  0.2318 -0.7877 -0.3054
19322TIP3    H279458   3.677   2.211  10.298  0.9276 -2.2595 -2.5040
19323TIP3   OH279459   3.036   6.261  12.848 -0.1891 -0.8624  0.2484
19323TIP3    H179460   3.000   6.256  12.760  0.9733  0.4210 -0.3319
19323TIP3    H279461   3.043   6.170  12.877 -2.3506 -1.2372 -0.2101
19324TIP3   OH279462   2.214   5.158  12.584 -0.2825 -0.3902 -0.0346
19324TIP3    H179463   2.155   5.226  12.550 -1.3004 -1.3103 -0.1655
19324TIP3    H279464   2.238   5.107  12.507 -0.4883 -0.8921  0.2318
19325TIP3   OH279465   3.389   1.307   2.917 -0.4370  0.3181 -0.0550
19325TIP3    H179466   3.447   1.380   2.938 -0.7519  0.1519  1.5705
19325TIP3    H279467   3.312   1.348   2.878  0.4401  0.6013 -1.5465
19326TIP3   OH279468   3.972   4.775  11.428 -0.2234  0.4309 -0.4315
19326TIP3    H179469   3.914   4.819  11.490  1.8319  0.0747  1.9066
19326TIP3    H279470   3.948   4.683  11.433  0.4376  0.2930  0.4812
19327TIP3   OH279471   6.073   6.710  15.011  0.3995 -0.2237  0.1413
19327TIP3    H179472   6.039   6.713  14.922 -0.3588 -0.1117  0.4246
19327TIP3    H279473   6.168   6.701  15.001  0.4872  1.4025 -0.6683
19328TIP3   OH279474   3.110   4.706  12.247  0.0823 -0.5071 -0.0874
19328TIP3    H179475   3.023   4.676  12.270 -0.7886  1.2682 -0.8587
19328TIP3    H279476   3.140   4.755  12.324  0.6145 -1.4766  0.3450
19329TIP3   OH279477   2.009   3.475  11.524  0.1590  0.1137  0.0487
19329TIP3    H179478   2.083   3.487  11.464 -0.2920  0.5464 -0.4361
19329TIP3    H279479   2.030   3.396  11.573  1.1639  0.4991  0.2457
19330TIP3   OH279480   2.642   6.253  15.587 -0.2543 -0.0285 -0.2588
19330TIP3    H179481   2.610   6.272  15.499  0.6151  1.7887 -0.2430
19330TIP3    H279482   2.606   6.324  15.641  1.6364  0.6411  0.2206
19331TIP3   OH279483   2.918   3.221   4.061 -0.2758  0.1502 -0.4668
19331TIP3    H179484   2.896   3.129   4.077 -0.7234  0.2303 -0.6006
19331TIP3    H279485   2.892   3.266   4.142  0.1461  0.1254 -0.3181
19332TIP3   OH279486   2.018   5.176  12.289  0.2265  0.5601 -0.0910
19332TIP3    H179487   2.100   5.190  12.242  0.5254 -2.8036 -0.8207
19332TIP3    H279488   1.969   5.257  12.277  3.3598  2.6858  0.3349
19333TIP3   OH279489   5.119   4.714  12.305  0.3245 -0.3267  0.1214
19333TIP3    H179490   5.125   4.781  12.237  0.7705  0.1330  0.6032
19333TIP3    H279491   5.163   4.638  12.268 -0.0660 -0.3144 -0.3761
19334TIP3   OH279492   6.676   4.183  14.266 -0.6319 -0.1848  1.0499
19334TIP3    H179493   6.624   4.256  14.300  1.0403  1.4967  0.2003
19334TIP3    H279494   6.747   4.173  14.329  0.4491  0.5227 -0.0221
19335TIP3   OH279495   3.361   1.801   1.817  0.3831  0.2930  0.0406
19335TIP3    H179496   3.456   1.808   1.821  0.9324 -4.5524  0.7513
19335TIP3    H279497   3.341   1.787   1.725  0.1377  2.1557 -0.2389
19336TIP3   OH279498   0.103   1.098  14.850 -0.1837  0.0784  0.5747
19336TIP3    H179499   0.095   1.003  14.854  0.4924  0.0145  0.4251
19336TIP3    H279500   0.023   1.130  14.892 -1.0725 -0.5457 -0.5746
19337TIP3   OH279501   6.802   1.677   4.519 -0.1568  0.3834 -0.1861
19337TIP3    H179502   6.876   1.734   4.543  1.0055 -1.7676  1.7491
19337TIP3    H279503   6.744   1.680   4.595 -0.6108 -0.2171 -0.4987
19338TIP3   OH279504   5.137   5.930   2.559  0.4941 -0.2502  0.3885
19338TIP3    H179505   5.156   6.022   2.545 -1.7962 -0.0588 -2.2542
19338TIP3    H279506   5.219   5.893   2.590  1.6677  2.5169  0.8269
19339TIP3   OH279507   2.344   1.617  13.066  0.1254 -0.0106 -0.2382
19339TIP3    H179508   2.255   1.639  13.095 -0.3461  0.6266 -2.0685
19339TIP3    H279509   2.399   1.643  13.140 -0.8565  3.0512 -0.4126
19340TIP3   OH279510   2.117   4.923  11.013 -0.7390 -0.0956 -0.3513
19340TIP3    H179511   2.085   4.954  11.098 -2.0941 -0.7639 -0.5845
19340TIP3    H279512   2.112   4.999  10.955 -0.0584  0.2938  0.0865
19341TIP3   OH279513   0.034   0.126  13.445 -0.2482  0.5083 -0.4103
19341TIP3    H179514  -0.030   0.059  13.468  1.0533 -0.6157  0.1045
19341TIP3    H279515   0.096   0.127  13.518  0.8344  0.8828 -1.2903
19342TIP3   OH279516   0.480   1.814  12.184  0.8694  0.2833  0.3441
19342TIP3    H179517   0.417   1.743  12.176 -0.8711  1.7425  0.3625
19342TIP3    H279518   0.553   1.788  12.128  0.3380 -1.5334  0.4238
19343TIP3   OH279519   0.420   0.843  10.580 -0.5206 -0.4424 -0.0022
19343TIP3    H179520   0.453   0.932  10.597  3.2158 -0.5539 -4.6637
19343TIP3    H279521   0.480   0.786  10.629  0.3480 -0.4169 -0.9974
19344TIP3   OH279522   3.547   3.779  12.875  0.0818 -0.0619 -0.4438
19344TIP3    H179523   3.552   3.844  12.945  2.0933 -0.8811  0.2401
19344TIP3    H279524   3.520   3.829  12.797  1.0961  1.5007  0.1670
19345TIP3   OH279525   4.397   1.373   0.701 -0.0271 -0.0956  0.0018
19345TIP3    H179526   4.354   1.389   0.617 -1.3192  1.0911  0.8507
19345TIP3    H279527   4.435   1.457   0.725  0.8570 -0.5780  0.3355
19346TIP3   OH279528   3.109   1.346   4.829  0.2964 -0.3086 -0.9072
19346TIP3    H179529   3.019   1.353   4.862  0.6587 -2.1840  0.7253
19346TIP3    H279530   3.100   1.343   4.734 -1.2958  0.3583 -0.8021
19347TIP3   OH279531   4.080   5.305  13.766 -0.1712 -0.0283  0.0112
19347TIP3    H179532   4.103   5.391  13.801 -2.2709  0.5479  0.1480
19347TIP3    H279533   4.163   5.264  13.743  0.8641  2.0971 -0.1995
19348TIP3   OH279534   5.110   0.579   2.705  0.3646 -0.2439 -0.4474
19348TIP3    H179535   5.114   0.571   2.800  0.2166  2.1581 -0.1697
19348TIP3    H279536   5.024   0.543   2.682  0.7841 -1.7202  0.1808
19349TIP3   OH279537   6.660   6.523  16.872 -0.1145 -0.1869  0.1043
19349TIP3    H179538   6.736   6.482  16.832  1.0031  2.6753 -0.9894
19349TIP3    H279539   6.589   6.510  16.809  0.4277  0.2404 -0.6041
19350TIP3   OH279540   2.173   1.461  12.846  0.0443  0.2134  0.1238
19350TIP3    H179541   2.097   1.519  12.848  0.7607  1.2523 -1.4462
19350TIP3    H279542   2.203   1.464  12.756  1.0167 -1.4423  0.3559
19351TIP3   OH279543   5.870   0.481  16.177 -0.1233  0.2491 -0.5865
19351TIP3    H179544   5.838   0.391  16.182 -1.7118  0.7910 -0.2257
19351TIP3    H279545   5.820   0.521  16.106 -1.2290  1.4664  0.7967
19352TIP3   OH279546   3.274   4.492   0.648  0.0844 -0.0723 -0.6175
19352TIP3    H179547   3.196   4.547   0.635  0.3632  1.0130  1.7394
19352TIP3    H279548   3.242   4.417   0.697  0.5250  0.5758  0.7230
19353TIP3   OH279549   4.397   6.324   1.866  0.0259 -0.0226  0.3964
19353TIP3    H179550   4.399   6.230   1.884 -0.0434  0.0268  0.6803
19353TIP3    H279551   4.357   6.362   1.945  1.1439  0.3660  0.7978
19354TIP3   OH279552   4.451   6.065  11.664  0.0898 -0.2694  0.1780
19354TIP3    H179553   4.361   6.070  11.631 -0.3044 -1.1100  1.0815
19354TIP3    H279554   4.505   6.076  11.586 -0.8162 -1.1691 -0.6155
19355TIP3   OH279555   6.109   0.103  12.244 -0.6185  0.3346  0.1250
19355TIP3    H179556   6.020   0.108  12.278 -0.7454 -0.5485 -0.0623
19355TIP3    H279557   6.101   0.127  12.152 -0.7274 -0.1632  0.0051
19356TIP3   OH279558   5.809   5.428  15.385 -0.0910 -0.4109  0.6243
19356TIP3    H179559   5.846   5.369  15.319 -0.1410 -1.0056  1.1173
19356TIP3    H279560   5.722   5.391  15.404  0.2142 -0.6770  1.5581
19357TIP3   OH279561   1.646   3.166  15.516 -0.1033  0.5980 -0.1481
19357TIP3    H179562   1.618   3.151  15.425 -0.0493  2.4593 -0.5063
19357TIP3    H279563   1.732   3.207  15.508  0.9106 -1.1991  0.8416
19358TIP3   OH279564   2.260   4.081   3.086  0.2982  0.1492 -0.2395
19358TIP3    H179565   2.228   4.125   3.007  0.7680 -0.8197 -0.9970
19358TIP3    H279566   2.224   3.993   3.080  0.2855  0.0891  0.6790
19359TIP3   OH279567   1.817   5.385  11.975  0.1418 -0.3120 -0.2338
19359TIP3    H179568   1.884   5.443  11.940 -0.5821  0.9964  0.4419
19359TIP3    H279569   1.738   5.408  11.926  0.2547 -2.2505 -1.4502
19360TIP3   OH279570   4.336   4.790  16.694 -0.6425  0.5831 -0.0335
19360TIP3    H179571   4.284   4.818  16.769 -1.9271  0.1949 -0.7291
19360TIP3    H279572   4.271   4.777  16.624  0.5814  1.6613 -1.4379
19361TIP3   OH279573   1.241   3.545  14.198 -0.0797  0.3866  0.1123
19361TIP3    H179574   1.310   3.486  14.230 -0.3892 -0.4134 -0.6390
19361TIP3    H279575   1.175   3.486  14.163 -0.5384  1.1925 -0.3986
19362TIP3   OH279576   4.315   0.834  10.757  0.4665  0.2075 -0.2389
19362TIP3    H179577   4.392   0.793  10.716  0.1966 -0.8711  0.3198
19362TIP3    H279578   4.347   0.920  10.785  0.8850  0.6447 -1.9305
19363TIP3   OH279579   0.416   5.446  15.761 -0.8609 -0.3465 -0.0346
19363TIP3    H179580   0.360   5.523  15.753 -1.4876 -0.6330  1.3664
19363TIP3    H279581   0.506   5.480  15.752 -1.1603  0.4311 -0.1470
19364TIP3   OH279582   3.451   3.193   5.934  0.2117  0.1950  0.1296
19364TIP3    H179583   3.386   3.125   5.914  0.2232  0.3842 -0.5689
19364TIP3    H279584   3.410   3.274   5.904  0.3338  0.4536  0.6690
19365TIP3   OH279585   5.234   1.111   1.042 -0.3050 -0.3560  0.1816
19365TIP3    H179586   5.315   1.102   1.092  0.5475 -0.3713 -1.1468
19365TIP3    H279587   5.225   1.206   1.029  0.6059 -0.4409 -1.3458
19366TIP3   OH279588   0.243   4.553  16.239 -0.4045  0.0694  0.5110
19366TIP3    H179589   0.288   4.636  16.222 -1.0318 -0.1171 -2.7924
19366TIP3    H279590   0.171   4.577  16.298 -0.1668  1.7533  0.1837
19367TIP3   OH279591   2.803   4.749   5.562 -0.5745 -0.3587  0.2088
19367TIP3    H179592   2.784   4.751   5.656 -2.0109  0.3206 -0.0573
19367TIP3    H279593   2.718   4.729   5.521 -0.1090 -0.0258 -0.9643
19368TIP3   OH279594   3.469   5.843  13.357 -0.0010 -0.2175  0.2430
19368TIP3    H179595   3.501   5.761  13.320  1.6386  0.4638  0.0495
19368TIP3    H279596   3.528   5.861  13.430 -1.6749 -0.2822  1.6922
19369TIP3   OH279597   5.294   2.537   5.958 -0.1192  0.0272 -0.0156
19369TIP3    H179598   5.356   2.546   6.031 -0.2267 -0.9518  0.1992
19369TIP3    H279599   5.335   2.473   5.900 -0.9548 -0.6666  0.1511
19370TIP3   OH279600   6.481   5.291   3.438 -0.4510 -1.0665  0.4871
19370TIP3    H179601   6.511   5.296   3.529 -0.6899 -1.8580  0.6199
19370TIP3    H279602   6.418   5.363   3.430 -1.3427 -1.7157  1.3138
19371TIP3   OH279603   4.546   0.384   0.980 -1.0752  0.4364  0.3187
19371TIP3    H179604   4.579   0.360   0.893 -1.5472  0.4665  0.1334
19371TIP3    H279605   4.626   0.403   1.030 -0.5072 -2.7576  0.8905
19372TIP3   OH279606   6.169   2.577  13.943  0.0377  0.0758 -0.4427
19372TIP3    H179607   6.103   2.599  13.878 -1.0788 -0.8421  0.3582
19372TIP3    H279608   6.120   2.553  14.022  1.3352  0.1998  0.4472
19373TIP3   OH279609   2.827   2.830  14.127 -0.5662  0.1566  0.2371
19373TIP3    H179610   2.742   2.872  14.108  1.2440  3.6835 -1.0219
19373TIP3    H279611   2.835   2.835  14.222 -1.4254  0.5805  0.3038
19374TIP3   OH279612   1.239   1.228  17.119  0.6581 -0.4391  0.2136
19374TIP3    H179613   1.265   1.310  17.078  0.3654  0.4748  1.7881
19374TIP3    H279614   1.161   1.250  17.171 -0.1086 -1.9652 -0.2341
19375TIP3   OH279615   3.392   0.256   0.729  0.2384 -0.1858 -0.1854
19375TIP3    H179616   3.378   0.282   0.820 -0.1301  1.9514 -0.7971
19375TIP3    H279617   3.382   0.337   0.679 -0.1984 -1.4134 -2.2071
19376TIP3   OH279618   0.340   3.388  13.726  0.0629  0.2285 -0.7445
19376TIP3    H179619   0.357   3.456  13.659  0.9781  1.0251  0.2532
19376TIP3    H279620   0.248   3.401  13.750 -0.3279 -0.1687 -1.9378
19377TIP3   OH279621   3.085   0.655  12.734 -0.1881  0.2270  0.1648
19377TIP3    H179622   3.107   0.604  12.656  0.3200  1.0503 -0.2420
19377TIP3    H279623   3.164   0.707  12.751 -0.6575  0.7865  0.6485
19378TIP3   OH279624   0.893   1.070  12.117 -0.4935  0.3157  0.1354
19378TIP3    H179625   0.821   1.130  12.101  0.0094  1.2122  1.1470
19378TIP3    H279626   0.960   1.096  12.053  0.1006  1.5070  1.1963
19379TIP3   OH279627   2.478   0.499   4.390  0.3333 -0.1861 -0.2987
19379TIP3    H179628   2.501   0.528   4.302  1.4297  0.1856  0.0853
19379TIP3    H279629   2.533   0.421   4.404  0.7451  0.2095  0.3317
19380TIP3   OH279630   3.761   1.832  14.622  0.3242  0.2975  0.2333
19380TIP3    H179631   3.822   1.760  14.639  0.4649  0.4229  0.2630
19380TIP3    H279632   3.769   1.848  14.528 -0.3677 -0.3194  0.0585
19381TIP3   OH279633   5.781   5.223  12.318 -0.0550 -0.8012 -0.4285
19381TIP3    H179634   5.710   5.255  12.374 -0.8912 -0.9844 -1.3439
19381TIP3    H279635   5.736   5.179  12.245  1.0169 -2.3836 -0.1925
19382TIP3   OH279636   3.238   1.974  11.457 -0.4819 -0.3809  0.0609
19382TIP3    H179637   3.326   1.938  11.448 -1.1235 -1.8736 -0.5199
19382TIP3    H279638   3.248   2.066  11.433  0.3527 -1.2386 -3.5740
19383TIP3   OH279639   0.611   0.498  13.394  0.1354  0.0337  0.1254
19383TIP3    H179640   0.632   0.530  13.306  0.2770  0.9015  0.4687
19383TIP3    H279641   0.674   0.541  13.451  1.3081 -2.0169  0.4471
19384TIP3   OH279642   1.046   4.306  10.918  0.1056 -0.6400 -0.6238
19384TIP3    H179643   1.110   4.284  10.850  0.3115 -0.3381 -0.5280
19384TIP3    H279644   1.049   4.401  10.924  1.0217 -0.7287  0.7063
19385TIP3   OH279645   6.452   3.609  14.332  0.7964  0.2218  0.4572
19385TIP3    H179646   6.522   3.574  14.389  1.9511  1.0267 -0.4181
19385TIP3    H279647   6.462   3.704  14.338  1.2508  0.3347 -1.4007
19386TIP3   OH279648   1.909   5.249   4.290 -0.0626  0.1120 -0.0175
19386TIP3    H179649   2.002   5.233   4.308  0.0695  0.2261 -0.5645
19386TIP3    H279650   1.909   5.326   4.234 -0.6152  1.3386  1.6016
19387TIP3   OH279651   0.629   2.327  11.302  0.4446  0.5602 -0.5629
19387TIP3    H179652   0.668   2.263  11.361  0.3058  0.3070 -0.7447
19387TIP3    H279653   0.613   2.404  11.358 -0.1177  0.1607 -0.1524
19388TIP3   OH279654   6.563   1.128  16.732 -0.0043 -0.3482 -0.7256
19388TIP3    H179655   6.488   1.159  16.783  0.4907  1.1272 -0.8664
19388TIP3    H279656   6.601   1.059  16.786  0.6047  1.2720  1.0240
19389TIP3   OH279657   2.330   2.686   0.451 -0.5697  0.4068 -0.3290
19389TIP3    H179658   2.347   2.749   0.380 -1.1525  0.2927 -0.5710
19389TIP3    H279659   2.344   2.601   0.410 -0.9420  0.3401 -0.3126
19390TIP3   OH279660   4.895   1.929  16.891 -0.6753 -0.3480  0.1279
19390TIP3    H179661   4.857   1.953  16.976  1.3706 -2.1010  1.6388
19390TIP3    H279662   4.949   2.005  16.867 -2.3007  0.7187 -0.3496
19391TIP3   OH279663   3.736   2.511   3.988  0.6335  0.3920  0.5339
19391TIP3    H179664   3.787   2.431   4.002  0.2342  0.1896  0.8589
19391TIP3    H279665   3.742   2.558   4.072  1.9567  1.3466 -0.0607
19392TIP3   OH279666   5.686   1.758   2.563 -0.5168 -0.3794  0.4012
19392TIP3    H179667   5.600   1.765   2.521 -0.2356  0.1069 -0.0948
19392TIP3    H279668   5.732   1.690   2.514 -0.1925  0.1806 -0.0678
19393TIP3   OH279669   5.468   5.207  16.525 -0.0502  0.0901  0.2947
19393TIP3    H179670   5.519   5.220  16.445 -0.5741  1.0730  0.1127
19393TIP3    H279671   5.408   5.134  16.503 -1.6838  1.7143 -0.9904
19394TIP3   OH279672   5.467   2.661   5.532 -0.5261 -0.3697 -0.2537
19394TIP3    H179673   5.395   2.615   5.575 -0.5621  1.8245  2.3078
19394TIP3    H279674   5.431   2.747   5.512  0.7257 -0.0177 -1.0587
19395TIP3   OH279675   4.622   0.266  13.461  0.3427  0.0014 -0.1433
19395TIP3    H179676   4.533   0.296  13.479 -0.2729  0.1413 -2.9610
19395TIP3    H279677   4.620   0.172  13.478 -0.4596 -0.0519 -0.5156
19396TIP3   OH279678   5.498   6.363   3.654 -0.9107 -0.3924  0.1798
19396TIP3    H179679   5.417   6.318   3.678 -0.7909 -1.2440 -0.9762
19396TIP3    H279680   5.471   6.432   3.594 -0.8030 -0.4948  0.0147
19397TIP3   OH279681   3.966   5.039   1.091  0.2331  0.1181  0.2189
19397TIP3    H179682   3.962   4.996   1.177 -0.7481  2.0089  1.1934
19397TIP3    H279683   3.905   4.988   1.037 -0.8068  0.1504  1.2974
19398TIP3   OH279684   1.081   0.511  11.526  0.2214  0.0952  0.7059
19398TIP3    H179685   1.090   0.439  11.465  1.1669  1.6321 -1.0670
19398TIP3    H279686   1.092   0.590  11.473 -1.0460  1.5781  2.5019
19399TIP3   OH279687   5.334   4.214  15.896 -0.0932  0.4428 -0.2608
19399TIP3    H179688   5.363   4.295  15.937  0.6830 -0.5470  1.2162
19399TIP3    H279689   5.407   4.189  15.840  0.6259 -0.3725  0.9993
19400TIP3   OH279690   0.631   4.994   1.669 -0.5243  0.5372  1.0337
19400TIP3    H179691   0.603   4.908   1.637  2.6972 -0.5067  0.6576
19400TIP3    H279692   0.596   4.999   1.758 -0.0800 -1.6192  1.3943
19401TIP3   OH279693   6.355   5.500  14.750  0.3284 -0.4016 -0.3184
19401TIP3    H179694   6.372   5.481  14.658 -1.0514  0.2673 -0.7449
19401TIP3    H279695   6.328   5.591  14.751  0.4910 -0.3529  0.7799
19402TIP3   OH279696   0.633   4.234   5.282 -0.6139 -0.3734 -0.0830
19402TIP3    H179697   0.702   4.286   5.242 -2.0057  2.0268  0.4424
19402TIP3    H279698   0.571   4.218   5.211 -0.3836 -1.0486 -0.1469
19403TIP3   OH279699   4.018   2.461  11.835 -0.1784  0.1606  0.1765
19403TIP3    H179700   3.988   2.416  11.914 -0.5422  0.6264  0.3074
19403TIP3    H279701   3.972   2.416  11.764 -0.3678  0.1722  0.2886
19404TIP3   OH279702   6.491   6.241  13.133 -0.2511  0.1931 -0.1479
19404TIP3    H179703   6.465   6.326  13.169  1.4528  0.3631  0.7866
19404TIP3    H279704   6.430   6.179  13.173 -0.2085  0.7404  0.8134
19405TIP3   OH279705   5.939   5.345   5.487 -0.5015  0.1003  0.6018
19405TIP3    H179706   5.852   5.346   5.447 -1.5833 -2.4182  2.6511
19405TIP3    H279707   5.994   5.301   5.422 -1.4659 -1.0260  0.5303
19406TIP3   OH279708   5.753   3.542   3.752  0.2338 -0.3708  0.7013
19406TIP3    H179709   5.827   3.484   3.733  1.3516  1.1611  0.1105
19406TIP3    H279710   5.725   3.574   3.666  0.4263  0.8395  1.0620
19407TIP3   OH279711   2.757   6.782  13.748 -0.1404  0.1242  0.2252
19407TIP3    H179712   2.765   6.848  13.817 -0.4556 -1.0214  1.4054
19407TIP3    H279713   2.698   6.821  13.684 -2.5003  0.0133  2.1790
19408TIP3   OH279714   0.118   5.735  11.136  0.7311 -0.7117  0.0040
19408TIP3    H179715   0.126   5.764  11.045 -1.3266  0.0336  0.0037
19408TIP3    H279716   0.029   5.700  11.142 -0.8594  3.0743  2.6528
19409TIP3   OH279717   1.218   6.536  11.757  0.3129  0.2969 -0.5478
19409TIP3    H179718   1.292   6.518  11.814  0.9220  1.7521 -0.8146
19409TIP3    H279719   1.175   6.611  11.797  1.0709  1.7082 -2.2005
19410TIP3   OH279720   3.715   0.751  12.769  0.1980  0.6115 -0.0817
19410TIP3    H179721   3.629   0.720  12.741  0.5689 -1.4302  0.8397
19410TIP3    H279722   3.775   0.713  12.704  0.6779 -0.8722  1.1727
19411TIP3   OH279723   6.597   2.494   5.998  0.4859  0.2057 -0.1355
19411TIP3    H179724   6.678   2.455   6.032 -0.2197 -0.9574  0.2347
19411TIP3    H279725   6.601   2.478   5.903  1.3295  1.3829 -0.3278
19412TIP3   OH279726   5.372   0.578  16.689 -0.8417 -0.2094 -0.7888
19412TIP3    H179727   5.454   0.558  16.733 -0.9460  1.3912  0.2232
19412TIP3    H279728   5.397   0.594  16.597 -0.1448 -0.5088 -0.6557
19413TIP3   OH279729   1.366   5.511  12.624 -0.2712  0.3908 -0.4502
19413TIP3    H179730   1.407   5.494  12.538 -1.1377 -2.2347 -0.4311
19413TIP3    H279731   1.278   5.542  12.603 -0.7788 -1.0500 -0.5734
19414TIP3   OH279732   1.220   4.851   5.419 -0.3753 -0.8495  0.0969
19414TIP3    H179733   1.292   4.864   5.358 -0.9034  1.9317 -0.0432
19414TIP3    H279734   1.252   4.884   5.503 -0.8357 -1.4003  0.5035
19415TIP3   OH279735   6.353   2.346  11.516  0.0657  0.0534  0.4127
19415TIP3    H179736   6.444   2.315  11.517  0.7324  1.9012  1.6425
19415TIP3    H279737   6.360   2.440  11.498 -1.6895  0.0295 -0.5607
19416TIP3   OH279738   6.645   1.388   0.269 -0.2437 -0.0943 -0.1057
19416TIP3    H179739   6.740   1.388   0.276 -0.3114 -0.5304  0.9222
19416TIP3    H279740   6.618   1.300   0.297 -0.9088 -0.2313 -1.0913
19417TIP3   OH279741   5.837   0.018  12.212  0.4840 -0.5028 -0.2837
19417TIP3    H179742   5.827   0.018  12.307  0.5469 -0.3912 -0.2778
19417TIP3    H279743   5.751  -0.011  12.179  0.5960 -0.9608 -0.1800
19418TIP3   OH279744   6.474   2.608  15.360  0.3936  0.3705 -0.5012
19418TIP3    H179745   6.505   2.589  15.271  0.5267 -0.8592 -0.2045
19418TIP3    H279746   6.461   2.522  15.400 -2.3583  0.8155 -0.2298
19419TIP3   OH279747   6.218   4.593   4.914 -0.3733 -0.5446  0.5048
19419TIP3    H179748   6.209   4.682   4.947  1.1878 -1.2209  3.0574
19419TIP3    H279749   6.263   4.603   4.830 -2.0842  1.1315 -0.2728
19420TIP3   OH279750   2.417   1.120  12.337  0.3008  0.2814  0.3118
19420TIP3    H179751   2.458   1.178  12.273  0.7985  0.2056  0.5566
19420TIP3    H279752   2.489   1.066  12.369  0.4234  1.5206  2.2562
19421TIP3   OH279753   3.953   3.159   0.603 -0.2335 -0.3861  0.1779
19421TIP3    H179754   3.962   3.254   0.596 -1.5042 -0.2129  0.5473
19421TIP3    H279755   4.021   3.133   0.665  1.7339 -0.0762 -1.7207
19422TIP3   OH279756   0.669   6.758   1.160 -0.0673  0.2915  0.6462
19422TIP3    H179757   0.653   6.846   1.195  0.6636  0.6932 -0.0242
19422TIP3    H279758   0.721   6.772   1.081 -1.0717 -0.6622 -0.2166
19423TIP3   OH279759   3.994   2.816   3.313 -0.1905 -0.2655  0.5945
19423TIP3    H179760   3.926   2.749   3.323  0.5327 -1.1830 -0.3254
19423TIP3    H279761   3.947   2.895   3.287 -0.9270 -0.8654  0.0643
19424TIP3   OH279762   4.782   1.349  16.751  0.3407 -0.2416 -0.8029
19424TIP3    H179763   4.819   1.428  16.712 -0.8669  1.3281  0.9820
19424TIP3    H279764   4.751   1.297  16.677 -0.9016  2.0716 -2.0264
19425TIP3   OH279765   2.817   6.449   0.506  0.6958  0.0385 -0.6017
19425TIP3    H179766   2.819   6.529   0.454 -0.0894  2.5500  2.8729
19425TIP3    H279767   2.723   6.433   0.521  0.8892 -0.8918 -0.3056
19426TIP3   OH279768   6.219   5.708   4.515  0.2366  0.3202 -0.3872
19426TIP3    H179769   6.193   5.787   4.562 -0.7343  0.0397 -0.4282
19426TIP3    H279770   6.312   5.719   4.499  0.3896  0.8589  0.7617
19427TIP3   OH279771   2.003   5.724   0.656 -0.5287  0.6715 -0.1707
19427TIP3    H179772   2.028   5.814   0.675 -1.7934  1.1268 -0.5648
19427TIP3    H279773   1.907   5.726   0.652 -0.7071 -1.0253  1.5383
19428TIP3   OH279774   0.985   0.329   2.301  0.0865 -0.9589 -0.3131
19428TIP3    H179775   0.924   0.354   2.232  0.5603  1.2845  0.0030
19428TIP3    H279776   0.957   0.241   2.328 -1.8313 -0.7331 -1.4268
19429TIP3   OH279777   0.050   0.165  15.745 -0.2376  0.1924 -0.1751
19429TIP3    H179778  -0.015   0.228  15.775  0.8392  1.2480  0.0115
19429TIP3    H279779   0.029   0.085  15.792 -2.5177 -0.0649 -1.4725
19430TIP3   OH279780   6.362   1.336   2.812  0.1412 -0.2688 -0.0583
19430TIP3    H179781   6.398   1.390   2.742  1.2324 -1.1143 -0.1753
19430TIP3    H279782   6.294   1.390   2.852  0.9260  1.0191 -0.4223
19431TIP3   OH279783   2.254   3.755   1.554  0.6569  0.0161 -0.9631
19431TIP3    H179784   2.198   3.681   1.529 -1.0163  0.3328  1.5437
19431TIP3    H279785   2.277   3.738   1.645 -0.1873  2.7639 -0.1357
19432TIP3   OH279786   6.378   0.355  13.597 -0.6484  0.0255  0.8405
19432TIP3    H179787   6.336   0.409  13.530 -0.2294  0.4066  0.8854
19432TIP3    H279788   6.350   0.392  13.680 -0.3882  0.1557  0.8721
19433TIP3   OH279789   0.467   1.465  14.364 -0.0299  0.0715 -0.1866
19433TIP3    H179790   0.468   1.371  14.347 -0.8262  0.2808 -1.5262
19433TIP3    H279791   0.387   1.479  14.415  0.3722 -0.0378  0.4870
19434TIP3   OH279792   4.580   0.940  13.552  0.4380  0.4518  0.1446
19434TIP3    H179793   4.581   0.855  13.509  0.5488  0.7768 -0.4965
19434TIP3    H279794   4.494   0.977  13.533  0.6251  0.7572 -0.1230
19435TIP3   OH279795   3.076   0.832  14.779 -0.5211 -0.0211 -0.1526
19435TIP3    H179796   3.124   0.765  14.730  0.0055  1.3555 -1.6321
19435TIP3    H279797   3.101   0.818  14.870 -0.4548 -1.8289 -0.4249
19436TIP3   OH279798   2.216   4.817  14.270  0.0841 -0.6585 -0.0628
19436TIP3    H179799   2.153   4.844  14.203  1.8593  0.2343 -1.4640
19436TIP3    H279800   2.272   4.894  14.283  1.6775 -1.7996  0.1664
19437TIP3   OH279801   5.509   3.149  15.526 -0.6731  0.0898  0.0317
19437TIP3    H179802   5.571   3.132  15.456  0.0934  1.3740  0.3637
19437TIP3    H279803   5.537   3.092  15.598  0.2252  0.7614  0.2271
19438TIP3   OH279804   1.303   2.190  12.626 -0.0837  0.1660 -0.3516
19438TIP3    H179805   1.260   2.230  12.550 -1.4487  0.0969  0.3518
19438TIP3    H279806   1.395   2.185  12.601 -0.3061  1.2745 -1.5121
19439TIP3   OH279807   6.494   3.619  16.337 -0.1624  0.0600 -0.4985
19439TIP3    H179808   6.564   3.558  16.364 -0.8087 -0.8488 -0.8367
19439TIP3    H279809   6.523   3.652  16.252 -0.5864 -1.0610 -1.0985
19440TIP3   OH279810   5.634   3.558  16.391 -0.0713  0.1339 -0.1355
19440TIP3    H179811   5.717   3.605  16.392  0.9298 -1.5435  0.0266
19440TIP3    H279812   5.603   3.563  16.481  1.1623 -1.3334  0.4246
19441TIP3   OH279813   4.608   2.862   3.539  0.7067  0.2729 -0.2757
19441TIP3    H179814   4.569   2.946   3.566 -1.1386 -0.5806 -0.2008
19441TIP3    H279815   4.699   2.885   3.518 -0.2884  2.7478 -2.4916
19442TIP3   OH279816   0.179   1.282  16.261 -0.0720 -0.1522 -0.0020
19442TIP3    H179817   0.272   1.286  16.235 -0.3757 -0.1960 -1.1700
19442TIP3    H279818   0.145   1.369  16.242 -0.5664 -0.5126 -0.8302
19443TIP3   OH279819   5.006   4.562  16.803 -0.3574 -0.2425 -0.3225
19443TIP3    H179820   5.043   4.529  16.722 -1.7341  1.2180 -1.6173
19443TIP3    H279821   4.918   4.593  16.779 -0.1508  1.8599  1.3085
19444TIP3   OH279822   4.764   1.742   3.929 -0.3828  0.3385  0.3686
19444TIP3    H179823   4.847   1.715   3.969 -0.8901 -0.4641  0.9263
19444TIP3    H279824   4.745   1.674   3.864 -0.2954  0.8609 -0.2166
19445TIP3   OH279825   6.394   4.835  12.844 -0.0314  0.3464  0.3985
19445TIP3    H179826   6.415   4.829  12.751 -0.2725 -0.3146  0.3842
19445TIP3    H279827   6.311   4.788  12.853  0.6810 -0.7896  1.1817
19446TIP3   OH279828   0.957   0.617  14.437 -0.2190  0.7958  0.4489
19446TIP3    H179829   0.881   0.648  14.388  0.0353  0.2929 -0.2863
19446TIP3    H279830   0.938   0.639  14.528 -2.0897 -0.9041  0.5549
19447TIP3   OH279831   1.160   6.407   4.295 -0.3428 -0.0962  0.4710
19447TIP3    H179832   1.177   6.314   4.312 -0.0279  0.0170  0.7761
19447TIP3    H279833   1.245   6.442   4.268 -0.3495  0.2098  0.8377
19448TIP3   OH279834   3.310   4.801  11.912  0.6491  0.3426 -0.4157
19448TIP3    H179835   3.285   4.864  11.845 -2.4411 -0.0490  0.1744
19448TIP3    H279836   3.226   4.774  11.950  2.1903  0.4962  3.5464
19449TIP3   OH279837   4.490   3.030   3.756 -0.1911  0.4578 -0.1242
19449TIP3    H179838   4.434   3.077   3.817 -0.0919  1.1274 -0.5344
19449TIP3    H279839   4.577   3.031   3.797 -0.5900 -1.1804  0.8385
19450TIP3   OH279840   0.555   0.666   5.025 -0.4569  0.3358 -0.2680
19450TIP3    H179841   0.610   0.591   5.046 -1.5520 -1.5828 -3.5831
19450TIP3    H279842   0.590   0.699   4.942 -3.3057 -0.0714 -1.7571
19451TIP3   OH279843   5.954   0.740  11.237  0.3677 -0.2692 -0.8888
19451TIP3    H179844   5.996   0.747  11.323 -0.5230 -1.5605 -0.3177
19451TIP3    H279845   5.979   0.820  11.192  0.6397  0.5659  0.6734
19452TIP3   OH279846   5.119   5.972   1.661 -0.2977 -0.5153 -0.4266
19452TIP3    H179847   5.043   5.923   1.693 -0.3996 -1.2401 -1.7034
19452TIP3    H279848   5.120   6.052   1.713 -0.7462 -1.4077  0.9984
19453TIP3   OH279849   2.932   5.238   5.825  0.6504  0.4550  0.1515
19453TIP3    H179850   2.988   5.221   5.901  0.8308  2.2890  0.4845
19453TIP3    H279851   2.899   5.327   5.840 -0.7045  0.1879 -1.0717
19454TIP3   OH279852   4.738   5.538   1.449  0.3788 -0.0299  0.2501
19454TIP3    H179853   4.781   5.498   1.525 -3.9954 -1.4032  2.3039
19454TIP3    H279854   4.716   5.626   1.478 -1.8577 -0.7603  0.9683
19455TIP3   OH279855   1.010   3.389  12.343  0.0163 -0.0933 -0.1172
19455TIP3    H179856   0.955   3.437  12.405  0.1726  0.5243 -0.4522
19455TIP3    H279857   0.953   3.369  12.269  0.0797  0.0011 -0.1916
19456TIP3   OH279858   6.138   5.856  14.994  0.7606  0.0325  0.3471
19456TIP3    H179859   6.050   5.850  15.031  1.2208  0.8793  1.6599
19456TIP3    H279860   6.171   5.766  14.996 -0.1625 -0.3329 -0.4184
19457TIP3   OH279861   6.393   5.513  16.591  0.0690 -0.1490 -0.1046
19457TIP3    H179862   6.352   5.597  16.571  0.2922  0.1327  0.6285
19457TIP3    H279863   6.325   5.464  16.637  0.0705 -0.2296 -0.1875
19458TIP3   OH279864   5.455   1.368   4.604  0.2685  0.2808  0.6057
19458TIP3    H179865   5.520   1.390   4.537 -0.1326  0.4943  0.2795
19458TIP3    H279866   5.431   1.452   4.643  1.0935  0.0722  1.5819
19459TIP3   OH279867   1.415   3.787  13.420  0.3271  0.7980  0.4651
19459TIP3    H179868   1.406   3.708  13.367  3.0194 -0.3919  1.5803
19459TIP3    H279869   1.384   3.761  13.507 -0.3875  1.5160  0.4329
19460TIP3   OH279870   0.509   4.461  11.898  0.1216  0.1626 -0.4197
19460TIP3    H179871   0.425   4.498  11.870  0.5239  0.8172 -0.7829
19460TIP3    H279872   0.572   4.494  11.834  0.9676  1.1713  0.8912
19461TIP3   OH279873   2.471   2.998  15.950 -0.6036 -0.5754 -0.3326
19461TIP3    H179874   2.527   3.036  15.882  0.0017 -0.8234  0.0201
19461TIP3    H279875   2.530   2.943  16.002 -0.5442  1.2263  1.6749
19462TIP3   OH279876   4.068   0.074   4.552 -0.5825 -0.4611  0.2160
19462TIP3    H179877   4.132   0.004   4.565 -0.0522 -0.5134 -2.1239
19462TIP3    H279878   4.092   0.140   4.616 -0.6394 -2.0791  1.9881
19463TIP3   OH279879   4.785   0.881   4.007  0.1509  0.1823  0.3953
19463TIP3    H179880   4.717   0.886   3.940 -1.9798 -0.3798  2.4042
19463TIP3    H279881   4.822   0.793   3.996 -1.0091 -0.3616  0.6619
19464TIP3   OH279882   2.913   0.783  11.929  0.6601 -0.3800 -0.1043
19464TIP3    H179883   2.900   0.719  11.859 -0.5293 -0.4662  0.1719
19464TIP3    H279884   2.953   0.734  12.000  0.8629 -0.5337 -0.3204
19465TIP3   OH279885   4.819   5.320   4.145 -0.4591 -0.0197  0.6709
19465TIP3    H179886   4.866   5.402   4.130  1.9248 -0.8963  2.5750
19465TIP3    H279887   4.807   5.283   4.058  3.5202 -0.1995 -0.0036
19466TIP3   OH279888   5.444   1.256  13.567  0.2173  0.6018 -0.1089
19466TIP3    H179889   5.487   1.331  13.526  0.2973  0.2910 -0.6044
19466TIP3    H279890   5.379   1.227  13.502 -0.9343  1.2242  0.7279
19467TIP3   OH279891   0.057   3.124   1.473 -0.4370 -0.5669 -0.3900
19467TIP3    H179892   0.001   3.163   1.539  1.4887  0.6557  0.6157
19467TIP3    H279893   0.007   3.132   1.392 -2.4130 -1.1426  0.6913
19468TIP3   OH279894   4.190   1.862  15.096 -0.2111 -0.1322  0.1348
19468TIP3    H179895   4.100   1.858  15.064  0.5499  1.4257 -2.6075
19468TIP3    H279896   4.242   1.828  15.023  1.5193  0.8673  0.8371
19469TIP3   OH279897   3.864   2.098  14.914  0.5743 -0.3591 -0.1820
19469TIP3    H179898   3.885   2.005  14.924 -1.3511 -0.7643  0.4202
19469TIP3    H279899   3.769   2.102  14.916  0.6228  1.7258  0.7190
19470TIP3   OH279900   3.604   6.654   2.504 -0.8049  0.3613 -0.4709
19470TIP3    H179901   3.601   6.746   2.530  0.5542 -0.0818  1.4821
19470TIP3    H279902   3.614   6.606   2.587  3.6377 -1.2207 -1.6440
19471TIP3   OH279903   4.813   0.423  15.871  0.3443  0.2411  0.7429
19471TIP3    H179904   4.908   0.419  15.862  0.4432 -0.8693  1.9935
19471TIP3    H279905   4.791   0.351  15.931 -1.0354  2.0333  2.4969
19472TIP3   OH279906   5.912   6.303   0.871  0.3422 -0.6768  0.1437
19472TIP3    H179907   5.818   6.296   0.856  0.3189 -1.3510  0.5889
19472TIP3    H279908   5.935   6.223   0.917  1.1325 -0.5021  0.0633
19473TIP3   OH279909   0.054   1.505  13.866  0.2444  0.2944 -0.1664
19473TIP3    H179910   0.004   1.492  13.947  0.3203 -2.2725 -0.4255
19473TIP3    H279911  -0.001   1.562  13.812 -0.3252  1.1175  1.2348
19474TIP3   OH279912   5.051   6.609   5.374  0.2143 -0.5963  0.0958
19474TIP3    H179913   4.999   6.567   5.443  0.3743  0.2899  0.7818
19474TIP3    H279914   5.140   6.609   5.408  0.1423  0.7335  0.3574
19475TIP3   OH279915   5.704   6.323  10.636  0.0652  0.0201  0.8956
19475TIP3    H179916   5.626   6.352  10.589  1.4264  1.1076 -0.8112
19475TIP3    H279917   5.743   6.256  10.579  0.0555 -0.9749  2.0320
19476TIP3   OH279918   2.129   6.214   6.069 -0.4061  0.2323 -0.3440
19476TIP3    H179919   2.083   6.132   6.051  0.4338 -0.5973  1.1307
19476TIP3    H279920   2.099   6.240   6.156  0.6282  0.5518 -0.0633
19477TIP3   OH279921   0.406   5.740   0.996  0.0360  1.3270 -0.5037
19477TIP3    H179922   0.374   5.817   1.043  0.7109 -0.0037  2.3809
19477TIP3    H279923   0.332   5.679   0.997  0.3042  0.9947 -0.4098
19478TIP3   OH279924   6.628   6.671  13.004  0.4737  0.1864 -0.5838
19478TIP3    H179925   6.650   6.700  13.092  0.7398 -2.7052  0.4089
19478TIP3    H279926   6.627   6.575  13.010 -1.6857 -0.0679 -3.2031
19479TIP3   OH279927   4.500   2.858  14.495 -0.1257  0.0557  0.1522
19479TIP3    H179928   4.448   2.810  14.559  1.5057 -1.4170  0.4455
19479TIP3    H279929   4.532   2.934  14.542  1.7435 -1.4402  1.4170
19480TIP3   OH279930   6.485   0.460  11.296  0.2795  0.2834 -0.2863
19480TIP3    H179931   6.574   0.482  11.322  0.6456 -0.7222 -0.6450
19480TIP3    H279932   6.471   0.507  11.214  1.1528 -0.9894 -1.1935
19481TIP3   OH279933   2.689   6.204  10.444  0.1996  0.2961 -0.4538
19481TIP3    H179934   2.613   6.260  10.433 -0.1965  0.2974  1.7878
19481TIP3    H279935   2.762   6.254  10.409 -0.4882  1.2634 -0.5305
19482TIP3   OH279936   4.612   4.012   2.830  0.0816 -0.4500  0.4536
19482TIP3    H179937   4.689   3.977   2.875  0.5881 -0.1560 -0.1544
19482TIP3    H279938   4.546   3.944   2.838  1.0208 -1.5301 -0.6481
19483TIP3   OH279939   1.405   3.353  12.791  0.1226  0.3058 -0.1185
19483TIP3    H179940   1.322   3.400  12.786 -1.0745 -1.8275 -1.8176
19483TIP3    H279941   1.432   3.342  12.700  1.4144 -0.5180  0.3292
19484TIP3   OH279942   2.260   1.739   3.579  0.0087 -0.1369  0.2890
19484TIP3    H179943   2.260   1.825   3.536 -0.9666 -0.1407  0.2537
19484TIP3    H279944   2.333   1.743   3.641 -1.0546  1.3423  1.5050
19485TIP3   OH279945   2.786   2.352   3.411  0.2577 -0.4936 -0.0253
19485TIP3    H179946   2.759   2.391   3.328 -1.0590  0.7698  0.9512
19485TIP3    H279947   2.875   2.319   3.394  0.4579  0.7279 -1.6044
19486TIP3   OH279948   3.524   1.655   4.511 -0.1558  0.3871 -0.1137
19486TIP3    H179949   3.472   1.650   4.431 -1.4046  4.6795  0.1612
19486TIP3    H279950   3.460   1.666   4.582  0.9947  0.6132  0.9353
19487TIP3   OH279951   3.288   6.654   5.487 -0.7339  0.2601  0.6728
19487TIP3    H179952   3.289   6.565   5.450 -2.8036  0.2503  0.4825
19487TIP3    H279953   3.279   6.641   5.581  2.5608  0.3019  1.0874
19488TIP3   OH279954   0.317   2.484   4.634 -0.4318  0.2233  0.1899
19488TIP3    H179955   0.332   2.489   4.539 -1.3396  0.4990  0.0417
19488TIP3    H279956   0.402   2.503   4.673  0.3835 -1.6428 -0.5681
19489TIP3   OH279957   6.342   6.503  17.102  0.6283 -0.1938  0.2419
19489TIP3    H179958   6.362   6.428  17.045  1.1224  0.2893 -0.2271
19489TIP3    H279959   6.281   6.556  17.051 -1.5764 -1.4152  1.4652
19490TIP3   OH279960   2.271   4.738   1.345  0.3957  0.6088  0.0733
19490TIP3    H179961   2.344   4.754   1.405 -0.3856 -0.0758  1.2345
19490TIP3    H279962   2.235   4.654   1.373 -1.1481  1.1667 -0.1530
19491TIP3   OH279963   1.243   1.036   5.735 -0.2601 -0.0050  0.0466
19491TIP3    H179964   1.272   0.983   5.809  0.8616  0.7635  0.1772
19491TIP3    H279965   1.154   1.064   5.759 -0.5478 -1.1126  0.3429
19492TIP3   OH279966   5.718   4.033   4.712  0.1529 -0.1811 -0.5764
19492TIP3    H179967   5.722   4.059   4.804  2.2652 -1.5485 -0.2117
19492TIP3    H279968   5.741   4.112   4.663  1.4483 -0.0283  0.2247
19493TIP3   OH279969   1.809   1.167  13.018 -0.0466 -0.2139 -0.7575
19493TIP3    H179970   1.834   1.141  13.107  0.3187 -0.8250 -1.0383
19493TIP3    H279971   1.741   1.104  12.992 -0.0842 -0.0952 -0.9515
19494TIP3   OH279972   5.100   1.620   2.922 -0.0304  0.0592 -0.0192
19494TIP3    H179973   5.035   1.671   2.970 -1.2269  1.0978 -2.5313
19494TIP3    H279974   5.173   1.681   2.908 -0.9269  0.7881 -1.9235
19495TIP3   OH279975   1.083   2.564  13.875  0.3508 -0.4283 -0.4203
19495TIP3    H179976   1.008   2.585  13.821 -1.4422 -2.9894  0.8538
19495TIP3    H279977   1.124   2.489  13.831  1.5884  0.3175 -0.5758
19496TIP3   OH279978   2.908   4.313   5.600  0.4441  0.0018 -0.3358
19496TIP3    H179979   2.826   4.286   5.642 -1.0451  0.6104 -2.6573
19496TIP3    H279980   2.951   4.231   5.577 -1.1526 -0.4324 -2.0007
19497TIP3   OH279981   3.414   6.599  16.461  0.9353 -0.0506 -0.4393
19497TIP3    H179982   3.322   6.610  16.486  0.0454 -1.4633 -2.7392
19497TIP3    H279983   3.449   6.535  16.523  0.1709 -0.0182  0.0412
19498TIP3   OH279984   5.256   1.838   3.649 -0.1193 -0.0360 -0.7482
19498TIP3    H179985   5.181   1.877   3.694 -0.2373 -1.4740  0.3922
19498TIP3    H279986   5.241   1.858   3.557 -0.6097  1.7967 -0.3235
19499TIP3   OH279987   3.016   2.569  16.934 -0.3948  0.0746  0.0055
19499TIP3    H179988   3.070   2.648  16.934  0.0306 -0.2115  0.3561
19499TIP3    H279989   3.010   2.544  17.026 -1.3592  0.2543  0.0006
19500TIP3   OH279990   1.453   0.453  15.293  0.0443  0.4855 -0.6683
19500TIP3    H179991   1.508   0.488  15.364  0.2747 -0.6674 -0.2552
19500TIP3    H279992   1.461   0.517  15.223  3.0315 -0.2535 -1.1487
19501TIP3   OH279993   0.825   6.281   5.146 -0.6064  0.2279 -0.1945
19501TIP3    H179994   0.904   6.298   5.198 -1.7580  1.8227  1.1314
19501TIP3    H279995   0.760   6.252   5.210 -2.0212  2.1030 -0.7159
19502TIP3   OH279996   5.544   2.230   2.255  0.1240  0.7625  0.1961
19502TIP3    H179997   5.470   2.231   2.314  0.0165  0.1353  0.0812
19502TIP3    H279998   5.558   2.137   2.235  0.7642  0.8903  0.0035
19503TIP3   OH279999   1.422   2.864   5.283  0.3796 -0.3387 -0.2122
19503TIP3    H180000   1.480   2.888   5.356  1.1139  0.0798 -0.9179
19503TIP3    H280001   1.341   2.910   5.301  0.1944 -1.0614  0.8821
19504TIP3   OH280002   6.649   0.746  10.303  0.2133 -0.4027  0.2292
19504TIP3    H180003   6.597   0.698  10.240 -1.9333  3.0148 -0.9088
19504TIP3    H280004   6.586   0.778  10.367  1.9918 -1.6916  2.7917
19505TIP3   OH280005   6.656   0.031  14.614  0.3808 -0.1118  0.2301
19505TIP3    H180006   6.605   0.024  14.695  2.6437 -2.3057  1.6549
19505TIP3    H280007   6.660  -0.059  14.581 -0.7030  0.7792 -2.5489
19506TIP3   OH280008   6.372   5.769  16.519  0.3337 -0.1214 -0.2329
19506TIP3    H180009   6.419   5.821  16.584  0.4883 -1.3117  0.6303
19506TIP3    H280010   6.334   5.834  16.460  1.1598  0.9385  0.3714
19507TIP3   OH280011   2.509   4.743  15.493 -0.7047 -0.3594 -0.1392
19507TIP3    H180012   2.557   4.803  15.436 -0.2028 -0.7081 -0.0951
19507TIP3    H280013   2.421   4.780  15.499 -0.5627  0.0581 -0.5728
19508TIP3   OH280014   3.297   0.759   0.334 -0.3623  0.2267 -0.3800
19508TIP3    H180015   3.212   0.761   0.377 -0.0095 -1.5152  0.5236
19508TIP3    H280016   3.294   0.681   0.279  0.1341  0.9870 -1.5151
19509TIP3   OH280017   0.101   1.818  12.344 -0.0943 -0.2703 -0.7482
19509TIP3    H180018   0.046   1.781  12.275 -0.4562  1.9636 -1.7513
19509TIP3    H280019   0.038   1.858  12.405  0.3275  1.1788 -1.2279
19510TIP3   OH280020   4.076   0.194   5.402  0.2941  0.6370 -0.2051
19510TIP3    H180021   4.170   0.179   5.416 -0.3221 -1.5136  2.4292
19510TIP3    H280022   4.033   0.120   5.445 -2.6381  1.2387 -1.8329
19511TIP3   OH280023   5.467   4.870  11.166  0.1390 -0.6725 -0.1234
19511TIP3    H180024   5.537   4.896  11.226 -0.1953  0.0109 -0.0182
19511TIP3    H280025   5.397   4.933  11.183 -0.3046 -1.0342 -0.5932
19512TIP3   OH280026   2.558   3.638   0.188  0.4237  0.3042  0.1547
19512TIP3    H180027   2.517   3.714   0.230  0.1139  0.3092 -0.1471
19512TIP3    H280028   2.559   3.661   0.095  0.1400 -0.1491  0.0384
19513TIP3   OH280029   3.950   3.069  12.242  0.3463  0.2853 -0.4113
19513TIP3    H180030   3.934   2.979  12.216  0.9339 -0.0154  0.2388
19513TIP3    H280031   4.045   3.076  12.249  0.2496  0.5323  0.9440
19514TIP3   OH280032   4.178   3.854  16.998 -0.3938  0.4833 -0.3059
19514TIP3    H180033   4.082   3.860  17.002 -0.3112  3.2466 -0.5599
19514TIP3    H280034   4.208   3.891  17.081  0.4688  1.3512 -0.9856
19515TIP3   OH280035   5.710   5.267  11.785 -0.4517  0.4305 -0.4270
19515TIP3    H180036   5.739   5.229  11.868 -0.3587 -0.3381 -0.8089
19515TIP3    H280037   5.641   5.329  11.810 -1.4393 -0.8375  0.1097
19516TIP3   OH280038   1.112   5.645  13.076  0.2965  0.4612 -0.3322
19516TIP3    H180039   1.178   5.696  13.028  3.1214  0.0226  2.7435
19516TIP3    H280040   1.108   5.686  13.162 -2.2440 -0.6259  0.1580
19517TIP3   OH280041   0.840   4.881  10.930  0.7901 -0.2437  0.3992
19517TIP3    H180042   0.877   4.943  10.867 -1.2358  1.9517  1.2430
19517TIP3    H280043   0.847   4.925  11.014 -2.9537  0.0656  0.7124
19518TIP3   OH280044   0.021   6.016  12.603  0.1228 -0.8931 -0.4335
19518TIP3    H180045   0.074   5.948  12.561 -0.3313 -0.6120 -1.4796
19518TIP3    H280046   0.025   6.091  12.544 -1.9209 -1.0639 -0.8753
19519TIP3   OH280047   4.826   3.379   6.133 -0.2341  0.6406  0.0673
19519TIP3    H180048   4.812   3.320   6.059 -1.5495 -0.1890  0.9274
19519TIP3    H280049   4.774   3.456   6.112  1.4448  1.5207 -1.0345
19520TIP3   OH280050   5.990   5.466   4.270  0.3319  0.4682  0.0622
19520TIP3    H180051   5.898   5.460   4.245  0.0271 -1.0221  1.3614
19520TIP3    H280052   6.011   5.559   4.267 -1.1661  0.8088 -0.3657
19521TIP3   OH280053   5.030   4.479   4.498  1.0662 -0.1907  0.4062
19521TIP3    H180054   4.959   4.542   4.517  1.6350 -0.3672  3.6993
19521TIP3    H280055   5.109   4.524   4.527  1.7207 -1.6885  1.0136
19522TIP3   OH280056   1.362   1.917  13.166 -0.8428 -0.5063  0.0411
19522TIP3    H180057   1.405   1.997  13.138 -1.3579 -0.0596  0.5049
19522TIP3    H280058   1.291   1.903  13.103 -0.5375 -0.7838 -0.2395
19523TIP3   OH280059   5.668   3.956   6.202  0.1281  0.2112  0.2661
19523TIP3    H180060   5.718   3.890   6.250 -2.4367 -1.0152  1.4357
19523TIP3    H280061   5.586   3.965   6.251 -0.3857  2.9622 -0.8869
19524TIP3   OH280062   3.374   1.876   6.478 -0.1784 -0.7217  0.0427
19524TIP3    H180063   3.434   1.825   6.423  1.3946  1.6602 -0.5540
19524TIP3    H280064   3.430   1.929   6.534 -1.7714 -1.0189  2.0391
19525TIP3   OH280065   1.539   6.117   3.821 -0.3748 -0.2008 -0.3746
19525TIP3    H180066   1.618   6.085   3.864 -1.3791  1.2261  2.8103
19525TIP3    H280067   1.569   6.190   3.767  0.5811 -0.1094  0.2616
19526TIP3   OH280068   2.476   2.262  13.272  0.2767  0.2279 -0.5727
19526TIP3    H180069   2.403   2.313  13.236 -1.3551 -0.9292  0.8794
19526TIP3    H280070   2.461   2.173  13.240  0.8007 -0.0994  0.0700
19527TIP3   OH280071   0.688   4.604  12.614 -0.3277 -0.1409 -0.2163
19527TIP3    H180072   0.654   4.580  12.528  0.7505  0.5656 -0.8687
19527TIP3    H280073   0.614   4.593  12.673 -0.8799 -1.3910 -1.0983
19528TIP3   OH280074   1.075   6.270  12.543 -0.3101 -0.2870 -0.7094
19528TIP3    H180075   1.034   6.348  12.580 -0.9277 -1.1772  0.5586
19528TIP3    H280076   1.057   6.201  12.606  3.7008 -0.6527  0.2908
19529TIP3   OH280077   4.967   4.398   5.337  0.3842  0.4831 -0.2108
19529TIP3    H180078   4.947   4.366   5.425 -0.8665  1.9958  0.1059
19529TIP3    H280079   4.889   4.374   5.285  0.2154  1.3868 -0.3910
19530TIP3   OH280080   6.633   3.278   0.940  0.1670  0.6435  0.1624
19530TIP3    H180081   6.634   3.327   0.858 -0.6330  0.3482 -0.0394
19530TIP3    H280082   6.574   3.205   0.923 -1.5304  1.6099  1.5741
19531TIP3   OH280083   3.190   0.263  14.783 -0.2778 -0.0965  0.0232
19531TIP3    H180084   3.281   0.294  14.784 -0.9996  2.2176  1.6386
19531TIP3    H280085   3.164   0.262  14.875 -1.1605 -3.2498 -0.1544
19532TIP3   OH280086   3.669   2.156   3.855 -0.5948 -0.0916  0.1693
19532TIP3    H180087   3.585   2.148   3.810 -0.5907 -0.7783  0.2829
19532TIP3    H280088   3.696   2.066   3.873  1.7321 -0.1406 -2.7428
19533TIP3   OH280089   2.161   1.452  11.410 -0.3208 -0.1334  0.7226
19533TIP3    H180090   2.105   1.383  11.446  1.3458 -0.8452  2.1040
19533TIP3    H280091   2.250   1.423  11.428  0.5037  1.2599 -0.8392
19534TIP3   OH280092   2.737   5.551   0.834 -0.4409  0.2835 -0.6449
19534TIP3    H180093   2.758   5.615   0.766  1.1321  0.9798  0.4378
19534TIP3    H280094   2.712   5.603   0.910  0.6585 -0.3701  0.1856
19535TIP3   OH280095   0.729   2.980  13.305 -0.0388  0.9864 -0.0981
19535TIP3    H180096   0.720   3.033  13.384  0.0803  1.0735 -0.1432
19535TIP3    H280097   0.822   2.960  13.299 -0.3968 -1.5796  1.4473
19536TIP3   OH280098   3.615   0.588   2.854  0.1786  0.6671 -0.3173
19536TIP3    H180099   3.689   0.627   2.808 -0.0279  1.0136 -0.3597
19536TIP3    H280100   3.586   0.656   2.914  0.9114 -0.0309  0.8768
19537TIP3   OH280101   3.962   4.810  13.875  0.0061 -0.4420 -0.2998
19537TIP3    H180102   3.891   4.747  13.857  0.3914 -0.7224 -0.8491
19537TIP3    H280103   4.021   4.802  13.801  2.0364 -2.1568  1.3588
19538TIP3   OH280104   3.017   6.250  14.774  0.6134  0.0626 -0.3165
19538TIP3    H180105   2.982   6.186  14.835 -1.9752  2.0874  0.5094
19538TIP3    H280106   3.009   6.208  14.688  0.5176 -1.3252  0.3517
19539TIP3   OH280107   3.270   3.814  16.831  0.1553 -0.1255  0.2575
19539TIP3    H180108   3.360   3.840  16.850  0.3762 -0.4902 -0.2937
19539TIP3    H280109   3.248   3.860  16.750  0.3425 -1.1744 -0.3983
19540TIP3   OH280110   2.297   3.991  15.148  0.4490 -0.2363  0.2857
19540TIP3    H180111   2.256   4.078  15.144 -0.3509 -0.5889  0.4790
19540TIP3    H280112   2.311   3.967  15.057  0.0878 -0.1646  0.2069
19541TIP3   OH280113   5.926   6.264  13.978  0.1260  0.6531 -0.1742
19541TIP3    H180114   5.935   6.278  13.883  0.9992  0.8854 -0.0707
19541TIP3    H280115   6.008   6.297  14.014 -0.2302  0.6167  0.6756
19542TIP3   OH280116   2.475   2.084   0.965  0.1897 -0.4160  0.5395
19542TIP3    H180117   2.566   2.056   0.969  0.2007 -0.4328  0.1528
19542TIP3    H280118   2.478   2.179   0.972  0.1633 -0.4786  1.6838
19543TIP3   OH280119   6.160   5.848   2.885 -0.1080 -0.2317  0.8368
19543TIP3    H180120   6.225   5.833   2.954 -0.7830  1.9040  2.0470
19543TIP3    H280121   6.094   5.780   2.899  0.5752 -0.8252  1.2606
19544TIP3   OH280122   3.952   2.068  12.837  0.1330 -0.1251  0.0651
19544TIP3    H180123   3.982   2.030  12.919  0.2809  1.3175  0.7103
19544TIP3    H280124   3.965   2.162  12.848 -1.4816  0.2572 -0.9321
19545TIP3   OH280125   2.479   0.419  13.345 -0.2328  0.1802 -0.0598
19545TIP3    H180126   2.492   0.460  13.260 -0.3080  0.6656  0.1568
19545TIP3    H280127   2.565   0.388  13.371 -0.3275 -0.5719 -0.6112
19546TIP3   OH280128   0.244   4.127   5.981 -0.1995  0.1059 -0.0919
19546TIP3    H180129   0.269   4.142   5.890  2.4006  0.4215  0.5942
19546TIP3    H280130   0.226   4.214   6.015 -0.7745  0.0271 -0.1869
19547TIP3   OH280131   4.066   1.885   2.647 -0.1959 -0.6158 -0.2502
19547TIP3    H180132   3.987   1.938   2.632 -0.4078 -0.9766 -0.4170
19547TIP3    H280133   4.060   1.858   2.738  1.4021  2.0924  0.8021
19548TIP3   OH280134   0.931   5.881   4.172  0.0721  0.3375 -0.4080
19548TIP3    H180135   0.849   5.930   4.170  0.1619  0.4762 -0.8920
19548TIP3    H280136   0.976   5.907   4.092  0.7120  0.4632 -0.0119
19549TIP3   OH280137   5.030   6.622   1.037 -0.0370  0.2387 -0.8093
19549TIP3    H180138   5.055   6.588   0.951 -0.3371 -0.5885 -0.5713
19549TIP3    H280139   5.030   6.546   1.095  0.8716  0.9085  0.0936
19550TIP3   OH280140   3.742   5.166   0.385  0.0412  0.2712  0.3959
19550TIP3    H180141   3.720   5.258   0.400  1.1846  0.3123  2.0472
19550TIP3    H280142   3.702   5.119   0.458  0.0778 -0.4461 -0.0360
19551TIP3   OH280143   4.327   1.500   4.397 -0.3226  0.3833 -0.4632
19551TIP3    H180144   4.270   1.548   4.458 -0.4642  1.7004 -1.5744
19551TIP3    H280145   4.277   1.422   4.375 -0.1650 -0.2639  1.2626
19552TIP3   OH280146   3.363   6.177   0.221  0.2831 -0.1206 -0.1959
19552TIP3    H180147   3.303   6.226   0.165 -0.9345 -0.3688  0.8443
19552TIP3    H280148   3.349   6.085   0.198 -0.6672 -0.2716  0.8902
19553TIP3   OH280149   0.226   6.564   2.907  0.5153  0.0196  0.2262
19553TIP3    H180150   0.228   6.615   2.988 -0.0112  0.1393  0.1681
19553TIP3    H280151   0.253   6.476   2.933  0.8569  0.1834  0.4326
19554TIP3   OH280152   5.973   5.563  13.646 -0.0243  0.1675 -0.2665
19554TIP3    H180153   6.000   5.586  13.557  1.0379 -0.4725 -0.1241
19554TIP3    H280154   6.032   5.492  13.671  0.7780  1.4067  1.5355
19555TIP3   OH280155   5.678   1.455   1.168 -0.2127 -0.3243  0.3480
19555TIP3    H180156   5.696   1.373   1.122 -0.6834 -0.4836  0.4373
19555TIP3    H280157   5.763   1.485   1.200 -0.2235 -1.4434  1.4438
19556TIP3   OH280158   6.653   0.307  15.830  0.1800  0.1401  0.2704
19556TIP3    H180159   6.610   0.234  15.874 -0.8776  1.7684  2.1102
19556TIP3    H280160   6.696   0.355  15.900  2.6388  0.1894 -1.1743
19557TIP3   OH280161   2.412   3.142  13.572  0.7442 -0.4896  0.9497
19557TIP3    H180162   2.492   3.194  13.567  0.6616 -0.2488  1.8793
19557TIP3    H280163   2.438   3.054  13.545  1.1779 -0.2709  0.6451
19558TIP3   OH280164   0.508   2.721   5.040  0.3309  0.2988  0.0758
19558TIP3    H180165   0.435   2.765   5.085 -1.1001 -1.9634  0.1043
19558TIP3    H280166   0.558   2.679   5.109 -0.5296 -1.2290 -0.1747
19559TIP3   OH280167   6.049   2.332   6.488  0.0612 -0.4006  0.1831
19559TIP3    H180168   6.117   2.385   6.530 -1.1256 -0.2548  2.0281
19559TIP3    H280169   6.097   2.272   6.431  1.5213  1.9033 -1.1611
19560TIP3   OH280170   0.186   4.184   1.323  0.2117 -0.0771  0.0425
19560TIP3    H180171   0.122   4.154   1.258  0.0233 -0.0716  0.2235
19560TIP3    H280172   0.260   4.124   1.313 -0.0943 -0.5088  0.2863
19561TIP3   OH280173   5.462   5.107   4.852  0.0046  0.5237 -0.0706
19561TIP3    H180174   5.492   5.019   4.829 -0.3332  0.1858  0.7438
19561TIP3    H280175   5.537   5.147   4.896 -1.1752 -0.9996  3.7367
19562TIP3   OH280176   1.297   3.585  12.282 -0.1016  0.1267 -0.3259
19562TIP3    H180177   1.226   3.606  12.221 -0.7384  1.1981  0.7441
19562TIP3    H280178   1.262   3.607  12.368  1.1248 -0.4471  0.3485
19563TIP3   OH280179   1.299   0.423  15.567  0.0595  0.1395 -0.0845
19563TIP3    H180180   1.256   0.427  15.481 -0.4266  0.6465  0.1801
19563TIP3    H280181   1.323   0.513  15.587  0.2267  0.0155  0.2824
19564TIP3   OH280182   6.373   0.885  11.130 -0.3459 -0.6168 -0.7156
19564TIP3    H180183   6.320   0.927  11.062 -0.1983  0.2755 -0.2878
19564TIP3    H280184   6.462   0.913  11.111 -0.5293  1.4147  1.0782
19565TIP3   OH280185   1.639   4.980  15.407 -0.1213  0.1378  0.1007
19565TIP3    H180186   1.594   5.056  15.443 -0.7443 -0.3422  0.3619
19565TIP3    H280187   1.571   4.934  15.357  0.2715 -0.1980 -0.1272
19566TIP3   OH280188   4.331   4.808  11.075  0.2787 -0.1155  0.3166
19566TIP3    H180189   4.417   4.845  11.094  0.4072  0.0757 -0.5915
19566TIP3    H280190   4.278   4.828  11.153  1.3555 -1.2277  1.3681
19567TIP3   OH280191   0.559   2.689   0.860  0.2762 -0.0776 -0.2697
19567TIP3    H180192   0.652   2.697   0.840  0.1617  1.2917 -0.3290
19567TIP3    H280193   0.525   2.778   0.853 -1.6730 -0.9124 -3.1786
19568TIP3   OH280194   1.885   6.145   1.138  0.1327 -0.1248  0.2161
19568TIP3    H180195   1.896   6.200   1.060  0.4225  0.5404  0.7195
19568TIP3    H280196   1.922   6.060   1.113 -0.4335 -0.1472 -0.6093
19569TIP3   OH280197   6.700   1.080  13.390 -0.3279  0.4627  0.1916
19569TIP3    H180198   6.680   1.086  13.296  0.4828 -0.9998 -0.0956
19569TIP3    H280199   6.747   1.161  13.409 -0.0253  0.5258 -0.7907
19570TIP3   OH280200   5.902   3.503   3.168  0.1834  0.0213  0.7040
19570TIP3    H180201   5.981   3.450   3.159  0.5020 -0.3665  4.3678
19570TIP3    H280202   5.932   3.593   3.153 -0.0221 -0.4255 -3.7967
19571TIP3   OH280203   1.874   6.609  13.493  0.1396  0.1871 -0.1276
19571TIP3    H180204   1.882   6.705  13.494  0.3844  0.1690  0.9988
19571TIP3    H280205   1.781   6.593  13.503  0.0206  0.3041 -0.9696
19572TIP3   OH280206   3.956   1.896   2.286  0.8574  0.3076  0.1294
19572TIP3    H180207   3.906   1.962   2.334  1.2304  1.8215 -1.4431
19572TIP3    H280208   3.895   1.864   2.220  1.2264  0.4339 -0.2773
19573TIP3   OH280209   1.098   0.663  11.306  0.1393  0.0936  0.1847
19573TIP3    H180210   1.192   0.644  11.298  0.3904  1.5550 -0.8070
19573TIP3    H280211   1.087   0.746  11.261 -1.8328 -0.5543 -0.6316
19574TIP3   OH280212   0.236   1.776  14.955 -0.3817 -0.7283  0.1524
19574TIP3    H180213   0.186   1.723  15.017 -1.9809  0.1311 -0.3271
19574TIP3    H280214   0.306   1.815  15.007 -0.8479 -1.1378  1.1049
19575TIP3   OH280215   2.365   2.419   0.336  0.1104 -0.1006  0.0794
19575TIP3    H180216   2.454   2.403   0.365 -0.1805 -0.4545  0.8048
19575TIP3    H280217   2.316   2.342   0.364 -0.2510 -0.3491 -1.1368
19576TIP3   OH280218   0.696   6.189   5.839 -0.2871 -0.2710 -0.0410
19576TIP3    H180219   0.701   6.103   5.797 -2.4900 -0.3236 -0.3198
19576TIP3    H280220   0.644   6.242   5.778  0.2829  0.9966  0.5454
19577TIP3   OH280221   0.045   4.836  12.133 -0.2024  0.1397  0.0905
19577TIP3    H180222   0.106   4.851  12.204 -0.9517 -0.1023  0.7999
19577TIP3    H280223  -0.001   4.919  12.122  0.6965  0.5284 -0.8929
19578TIP3   OH280224   4.655   2.338  14.393  0.7670  0.2337  0.2247
19578TIP3    H180225   4.580   2.375  14.347 -0.3785 -2.3228 -0.1491
19578TIP3    H280226   4.720   2.409  14.396 -0.8873  1.8913 -1.2090
19579TIP3   OH280227   2.942   1.605  12.048  0.2311  0.3084  0.2562
19579TIP3    H180228   3.006   1.600  12.119  1.8131 -0.4458 -1.1549
19579TIP3    H280229   2.902   1.518  12.047  1.6446 -0.3642 -1.0065
19580TIP3   OH280230   2.980   1.382   3.132  0.2856  0.9301 -0.2260
19580TIP3    H180231   2.961   1.383   3.038  1.8798  1.2700 -0.5627
19580TIP3    H280232   3.042   1.454   3.145 -0.2995  1.2164  1.1845
19581TIP3   OH280233   5.577   0.207  13.779 -0.1200  0.3422  0.3171
19581TIP3    H180234   5.616   0.159  13.706 -0.7596  0.4560 -0.1067
19581TIP3    H280235   5.604   0.297  13.765  0.5008  0.2253  0.7251
19582TIP3   OH280236   5.820   6.554  11.055 -0.3722  0.2498  0.2119
19582TIP3    H180237   5.855   6.490  10.993  0.4742  0.4519  0.4630
19582TIP3    H280238   5.898   6.591  11.097 -0.8925  0.8264  0.6820
19583TIP3   OH280239   2.922   0.614   4.977  0.0618  0.7888 -0.3786
19583TIP3    H180240   2.840   0.635   5.022 -1.1595  0.0955 -2.1457
19583TIP3    H280241   2.939   0.691   4.923 -0.7023  0.0485 -1.7211
19584TIP3   OH280242   4.129   3.360  10.884 -0.1688 -0.3095 -0.3735
19584TIP3    H180243   4.094   3.316  10.806  0.9645  0.3444 -1.2952
19584TIP3    H280244   4.168   3.290  10.935 -1.2286 -0.7963 -0.2099
19585TIP3   OH280245   1.051   2.708  14.129 -0.3494  0.3142 -0.2857
19585TIP3    H180246   1.039   2.637  14.066 -1.2844  1.1028 -1.0488
19585TIP3    H280247   1.113   2.767  14.087 -0.1594  0.3179  0.0016
19586TIP3   OH280248   3.730   5.430   4.699  0.7214  0.2828  0.2873
19586TIP3    H180249   3.734   5.336   4.678  0.8707  0.0099  1.4846
19586TIP3    H280250   3.804   5.468   4.651  0.4028 -0.1263 -0.5565
19587TIP3   OH280251   5.918   4.506   5.367 -0.0688 -0.3221 -0.2904
19587TIP3    H180252   5.868   4.557   5.430  0.5490 -0.4107  0.2838
19587TIP3    H280253   5.956   4.434   5.418  0.5271 -0.3348 -0.7389
19588TIP3   OH280254   5.467   1.142  13.843  0.1953 -0.4272 -0.2064
19588TIP3    H180255   5.477   1.200  13.918 -0.6241 -0.7851  0.1990
19588TIP3    H280256   5.487   1.196  13.767  1.5285 -0.1973  0.2971
19589TIP3   OH280257   5.600   3.992  15.143 -0.1440  0.1156 -0.4600
19589TIP3    H180258   5.681   3.985  15.093  0.0695  0.8102 -0.2215
19589TIP3    H280259   5.603   4.080  15.182 -0.2308 -0.4676  0.9058
19590TIP3   OH280260   2.434   5.275   1.639  0.0597  0.3418  0.2246
19590TIP3    H180261   2.444   5.300   1.547 -0.8697  0.3357  0.1129
19590TIP3    H280262   2.494   5.202   1.651  0.2880  0.4338 -0.3430
19591TIP3   OH280263   4.658   0.620  15.185 -0.1882 -0.0968 -0.5822
19591TIP3    H180264   4.619   0.645  15.269 -1.3596 -0.8294 -0.8860
19591TIP3    H280265   4.638   0.693  15.126 -0.1038  0.0399 -0.4418
19592TIP3   OH280266   2.508   5.520  14.701 -0.4062  0.5871 -0.2776
19592TIP3    H180267   2.559   5.597  14.676 -1.0335  0.5155 -1.8711
19592TIP3    H280268   2.472   5.487  14.619 -0.1978 -1.3884  0.3875
19593TIP3   OH280269   1.246   1.815  13.801 -0.3628 -0.2090 -0.0761
19593TIP3    H180270   1.296   1.864  13.866 -0.0509 -1.0673  0.3512
19593TIP3    H280271   1.287   1.837  13.717  0.6417 -0.7624  0.2501
19594TIP3   OH280272   3.176   4.929  12.481 -0.4348 -0.1473  0.7347
19594TIP3    H180273   3.224   4.954  12.402  0.4301 -1.5300  0.7805
19594TIP3    H280274   3.107   4.995  12.489  1.2147  1.6998  0.4562
19595TIP3   OH280275   5.693   3.477   0.341  0.3801 -0.4678  0.7538
19595TIP3    H180276   5.767   3.508   0.288  1.4742  1.8481  3.4146
19595TIP3    H280277   5.716   3.387   0.365 -0.1545 -1.6275 -2.4499
19596TIP3   OH280278   1.455   3.856  14.166 -0.1335 -0.3257  0.2097
19596TIP3    H180279   1.379   3.897  14.208 -0.5488 -0.3170 -0.5465
19596TIP3    H280280   1.511   3.830  14.240 -0.8569 -0.3220  0.7746
19597TIP3   OH280281   2.491   4.132  12.958  0.5097  0.6659 -0.3797
19597TIP3    H180282   2.463   4.137  13.050 -0.2601 -0.2630 -0.5427
19597TIP3    H280283   2.583   4.156  12.960  0.2238  1.8481  0.4671
19598TIP3   OH280284   0.179   1.813   1.015  0.3196  0.2841  0.0843
19598TIP3    H180285   0.113   1.809   0.945  1.6709 -0.0962 -1.2124
19598TIP3    H280286   0.245   1.873   0.982  2.0782 -1.5662  0.0439
19599TIP3   OH280287   0.348   4.318  15.396 -0.0360 -0.0640  0.3463
19599TIP3    H180288   0.262   4.287  15.366  0.4845 -1.3513  0.0938
19599TIP3    H280289   0.348   4.412  15.379 -0.3390 -0.4830 -2.3135
19600TIP3   OH280290   1.044   1.186   3.939 -0.2200 -0.1430 -0.2084
19600TIP3    H180291   1.005   1.136   3.867 -0.8948  0.1231 -0.0307
19600TIP3    H280292   1.058   1.274   3.902  0.2304 -0.2341 -0.2714
19601TIP3   OH280293   4.229   5.771  16.788 -0.1831 -0.5161 -0.0841
19601TIP3    H180294   4.266   5.689  16.822 -0.2420 -0.5334 -0.0598
19601TIP3    H280295   4.302   5.832  16.788 -0.0235 -0.7059 -0.5605
19602TIP3   OH280296   4.732   5.525  12.938  0.2842 -0.4909 -0.4776
19602TIP3    H180297   4.782   5.578  13.001  0.8324 -1.3678 -0.1536
19602TIP3    H280298   4.641   5.546  12.956  0.5137  2.6309 -2.3695
19603TIP3   OH280299   2.927   4.973   4.776 -0.4287 -0.4789 -0.3650
19603TIP3    H180300   2.966   5.060   4.776 -2.2217  0.3985  1.1049
19603TIP3    H280301   2.976   4.926   4.844 -0.9513  0.1696  0.4926
19604TIP3   OH280302   6.766   2.705   6.659 -0.1962 -0.0333 -0.5947
19604TIP3    H180303   6.828   2.642   6.695  0.8842  1.0917 -0.4308
19604TIP3    H280304   6.801   2.791   6.684 -0.8367  0.6886 -2.0439
19605TIP3   OH280305   5.711   4.956   0.781 -0.8700 -0.2464  1.1559
19605TIP3    H180306   5.775   4.945   0.851  2.5161 -1.0237 -1.7603
19605TIP3    H280307   5.724   5.046   0.751 -1.7462 -0.1641  1.0010
19606TIP3   OH280308   1.348   0.801   1.091 -0.2309 -0.8728 -0.5389
19606TIP3    H180309   1.412   0.740   1.127  0.8353 -1.0181 -2.5358
19606TIP3    H280310   1.263   0.766   1.118  0.3984  0.3178  3.7377
19607TIP3   OH280311   2.619   4.092  15.716 -0.1028 -0.4267 -0.3305
19607TIP3    H180312   2.545   4.151  15.702 -1.8847 -2.4600 -0.0172
19607TIP3    H280313   2.637   4.097  15.810  0.4311  0.3110 -0.4562
19608TIP3   OH280314   5.003   4.079   2.565  0.1512 -0.6213  0.2141
19608TIP3    H180315   5.025   4.040   2.481  0.6311  0.1979 -0.0525
19608TIP3    H280316   5.007   4.006   2.627 -0.1513 -1.2149 -0.4557
19609TIP3   OH280317   0.296   3.114  11.569 -0.4634  0.1107 -0.1245
19609TIP3    H180318   0.306   3.189  11.509 -0.0074 -0.1785 -0.4133
19609TIP3    H280319   0.266   3.154  11.651  0.7492  0.7459  0.0421
19610TIP3   OH280320   0.513   2.599  13.997  0.6065  0.2430  0.1899
19610TIP3    H180321   0.593   2.555  14.027  0.8554 -1.0364 -2.0922
19610TIP3    H280322   0.519   2.598  13.901 -1.6411  1.0957 -0.0342
19611TIP3   OH280323   6.167   6.142  13.327  0.2401 -0.7053 -0.0514
19611TIP3    H180324   6.090   6.127  13.272  0.1300  1.1636 -0.4794
19611TIP3    H280325   6.239   6.102  13.278 -0.2869 -1.5402 -0.1629
19612TIP3   OH280326   0.336   2.105  12.729 -0.1654  0.4726  0.1170
19612TIP3    H180327   0.416   2.068  12.693 -1.2797 -0.5234 -1.4993
19612TIP3    H280328   0.279   2.029  12.745 -1.3468  1.2397 -0.2599
19613TIP3   OH280329   4.035   0.600  17.172  0.0940 -0.4082  0.3504
19613TIP3    H180330   4.085   0.601  17.253 -0.0666  0.1576  0.4457
19613TIP3    H280331   3.996   0.688  17.166 -3.1973 -1.6203  1.7134
19614TIP3   OH280332   3.072   6.594   0.552  0.4230 -0.3727 -0.5514
19614TIP3    H180333   3.069   6.613   0.645 -1.3779  0.5767 -0.7603
19614TIP3    H280334   3.004   6.527   0.539 -0.1459  0.3330 -1.3294
19615TIP3   OH280335   4.479   3.439  17.004 -0.2252  0.0645 -0.3845
19615TIP3    H180336   4.551   3.418  17.063 -0.9960  1.3799  1.0927
19615TIP3    H280337   4.461   3.532  17.019 -1.2480  0.1375 -1.8204
19616TIP3   OH280338   2.416   5.425   5.814 -0.1077 -0.0784 -0.9167
19616TIP3    H180339   2.361   5.499   5.789  0.3410  0.5437 -0.0970
19616TIP3    H280340   2.354   5.356   5.838 -0.5305  0.5638 -0.1509
19617TIP3   OH280341   6.785   2.350  10.750  0.1222  0.3545 -0.1923
19617TIP3    H180342   6.841   2.366  10.675 -1.1554 -2.7513 -2.0109
19617TIP3    H280343   6.699   2.384  10.724 -1.0647 -3.2016 -1.5746
19618TIP3   OH280344   1.425   4.474  12.701  0.3573 -0.4893 -0.0657
19618TIP3    H180345   1.404   4.565  12.680  0.2942 -0.5227 -0.1486
19618TIP3    H280346   1.519   4.474  12.718  0.4433 -0.4899 -0.5084
19619TIP3   OH280347   4.248   1.757  12.041 -0.1457  0.0000 -0.1143
19619TIP3    H180348   4.174   1.711  12.080 -1.7572  1.1489 -1.6339
19619TIP3    H280349   4.303   1.782  12.115 -1.7758 -0.0602  1.1738
19620TIP3   OH280350   1.672   3.249  16.059 -0.1771  0.2788 -0.0500
19620TIP3    H180351   1.591   3.200  16.045 -1.2803  2.1711 -0.6994
19620TIP3    H280352   1.707   3.263  15.971 -0.1063  0.9671  0.0780
19621TIP3   OH280353   4.608   1.399   3.389 -0.3577 -0.3659  0.1681
19621TIP3    H180354   4.631   1.347   3.466  2.6477  0.6734  0.1376
19621TIP3    H280355   4.604   1.336   3.317 -1.3865 -1.1032  0.8531
19622TIP3   OH280356   0.796   0.916   1.874  0.1289 -0.6697  0.1840
19622TIP3    H180357   0.816   0.919   1.967  1.8010 -1.1525 -0.1367
19622TIP3    H280358   0.812   0.825   1.848 -2.6206 -1.1554 -0.1298
19623TIP3   OH280359   6.032   2.153  11.807 -0.3247  0.7937 -0.0318
19623TIP3    H180360   6.081   2.076  11.778 -0.4701  0.3913  0.7682
19623TIP3    H280361   6.070   2.226  11.757 -0.6374  0.1168 -1.2990
19624TIP3   OH280362   2.196   0.745  13.698  0.4258  0.3799 -0.4111
19624TIP3    H180363   2.267   0.807  13.715  0.2179  0.2659  1.0034
19624TIP3    H280364   2.118   0.799  13.690  0.6181  0.4820 -1.6639
19625TIP3   OH280365   4.782   4.771  10.505  0.2897 -0.3552 -0.3578
19625TIP3    H180366   4.827   4.694  10.468 -2.2452 -0.7784 -2.9241
19625TIP3    H280367   4.725   4.734  10.572  0.6283 -0.4051 -0.0932
19626TIP3   OH280368   1.444   4.913   1.924 -0.0233 -0.3463  0.2615
19626TIP3    H180369   1.429   4.825   1.890 -2.0058 -0.3983  1.1694
19626TIP3    H280370   1.432   4.971   1.848  0.3084 -0.7789 -0.1236
19627TIP3   OH280371   4.973   0.038   0.460 -0.0926 -0.3119 -0.0464
19627TIP3    H180372   5.034   0.061   0.391 -0.5619  3.0761  0.5177
19627TIP3    H280373   4.924  -0.036   0.424  1.2773 -0.2155 -2.3327
19628TIP3   OH280374   5.292   6.410   1.428  1.2356 -0.3247 -0.1304
19628TIP3    H180375   5.366   6.464   1.454  0.7299  0.9302 -1.2047
19628TIP3    H280376   5.266   6.443   1.342  0.0036 -1.3405 -0.1931
19629TIP3   OH280377   0.563   3.267   4.579  0.2743  0.2696 -0.6306
19629TIP3    H180378   0.483   3.215   4.584  1.5967 -1.7510  1.6622
19629TIP3    H280379   0.534   3.358   4.592 -1.4416 -0.6535  3.4005
19630TIP3   OH280380   3.222   2.273  13.632  0.2556 -1.1341 -0.1208
19630TIP3    H180381   3.181   2.229  13.706 -0.1999 -1.4204 -0.5369
19630TIP3    H280382   3.165   2.346  13.613  1.7055  0.5097  1.4302
19631TIP3   OH280383   3.093   1.892   6.382 -0.0479  0.3277  0.6590
19631TIP3    H180384   3.186   1.870   6.382 -0.1522 -0.2383 -1.1561
19631TIP3    H280385   3.090   1.988   6.385  0.5449  0.3240  1.9256
19632TIP3   OH280386   4.394   3.074   2.347  0.1360 -0.3928 -0.4474
19632TIP3    H180387   4.370   3.046   2.258 -0.0413 -2.5671  0.2387
19632TIP3    H280388   4.487   3.050   2.355  0.6885  1.5249 -0.6479
19633TIP3   OH280389   4.617   0.059   5.630  0.0421 -0.8253  0.3970
19633TIP3    H180390   4.525   0.033   5.624  0.0564 -0.9433  0.6927
19633TIP3    H280391   4.621   0.115   5.708 -0.2621  1.2069 -0.9670
19634TIP3   OH280392   2.208   6.618  13.627 -0.0029 -0.3431 -0.3172
19634TIP3    H180393   2.203   6.683  13.557 -0.2418  0.5291  0.4954
19634TIP3    H280394   2.229   6.536  13.581  1.3907  0.4899 -1.2515
19635TIP3   OH280395   1.165   0.774  11.913  0.7186 -0.6232  0.2902
19635TIP3    H180396   1.102   0.739  11.976  1.4878 -0.5069  1.1369
19635TIP3    H280397   1.188   0.699  11.858 -2.1046 -0.1425 -1.7779
19636TIP3   OH280398   0.687   3.403   3.096 -0.6223 -0.3608  0.2479
19636TIP3    H180399   0.621   3.363   3.153  0.5048 -1.4690  0.7992
19636TIP3    H280400   0.733   3.465   3.152 -0.5339 -0.3173  0.1279
19637TIP3   OH280401   0.027   0.943  10.350 -0.0396 -0.3329 -0.6307
19637TIP3    H180402  -0.052   0.890  10.336 -0.0261 -0.0622 -1.8415
19637TIP3    H280403   0.018   1.016  10.288  2.2652 -1.5490 -2.5642
19638TIP3   OH280404   3.148   0.603  15.273 -0.4755 -0.7185 -0.0554
19638TIP3    H180405   3.230   0.615  15.320 -1.3000 -0.6133  1.3996
19638TIP3    H280406   3.123   0.512  15.290 -1.0310 -0.5370  0.1166
19639TIP3   OH280407   6.164   1.303  11.590 -0.0454 -0.0505  0.2898
19639TIP3    H180408   6.209   1.351  11.659 -2.5171  1.9159  0.6761
19639TIP3    H280409   6.158   1.214  11.623  0.0810  0.5290  1.9766
19640TIP3   OH280410   6.516   0.653  13.555  0.6325 -0.1038  0.1002
19640TIP3    H180411   6.477   0.619  13.636  2.8246 -1.4616  0.6522
19640TIP3    H280412   6.496   0.586  13.489  1.7416 -0.6708  0.3231
19641TIP3   OH280413   4.730   3.563   2.055  0.0558  0.4260  0.2250
19641TIP3    H180414   4.704   3.479   2.093 -0.5492  0.1298 -0.8025
19641TIP3    H280415   4.786   3.603   2.122  0.3205 -0.7687  0.7534
19642TIP3   OH280416   6.505   4.408   4.296 -0.3080  0.1597 -0.8626
19642TIP3    H180417   6.553   4.415   4.378  0.2349 -2.2891 -0.8945
19642TIP3    H280418   6.568   4.431   4.228 -0.6726  1.8865 -0.6575
19643TIP3   OH280419   2.775   4.618  17.163 -0.1297 -0.0840  0.8425
19643TIP3    H180420   2.813   4.541  17.120 -0.1963 -0.2764  1.1292
19643TIP3    H280421   2.817   4.621  17.249  1.9438  1.7587 -0.1191
19644TIP3   OH280422   3.538   4.446   5.815 -0.0958 -0.2057 -0.0684
19644TIP3    H180423   3.465   4.488   5.769 -0.9311 -1.2535  0.2640
19644TIP3    H280424   3.578   4.516   5.865 -1.4535  0.2168  0.4735
19645TIP3   OH280425   2.088   3.335   1.155  0.3374 -0.3532  0.0891
19645TIP3    H180426   2.140   3.343   1.235 -0.1389 -0.3039  0.4047
19645TIP3    H280427   2.103   3.416   1.107  1.8732 -1.0406 -0.6540
19646TIP3   OH280428   2.330   5.935   1.628 -0.0728  0.3306 -0.3264
19646TIP3    H180429   2.257   5.930   1.567 -1.1854 -0.3911  0.9852
19646TIP3    H280430   2.291   5.916   1.713  1.5509  0.5333  0.5118
19647TIP3   OH280431   4.435   4.364   4.527 -0.3342 -0.4185  0.2916
19647TIP3    H180432   4.493   4.320   4.464  0.9269  0.4678  0.8092
19647TIP3    H280433   4.486   4.438   4.560 -1.0361 -0.7491  2.2382
19648TIP3   OH280434   5.427   2.441  16.840  0.2728  0.5677  0.6662
19648TIP3    H180435   5.363   2.400  16.781  2.2795 -0.9528 -0.5763
19648TIP3    H280436   5.504   2.457  16.785  2.1272 -0.5945  2.7718
19649TIP3   OH280437   3.503   4.367  16.261  0.4563  0.2979  0.3824
19649TIP3    H180438   3.425   4.390  16.210 -0.9694 -1.2010  1.7785
19649TIP3    H280439   3.541   4.294  16.213  1.8728  1.8895 -1.0583
19650TIP3   OH280440   0.854   1.377   1.031  0.1952 -0.1590 -0.1175
19650TIP3    H180441   0.884   1.457   1.075 -0.8182 -0.1632  0.6290
19650TIP3    H280442   0.790   1.407   0.967  0.7556 -0.2736 -0.7517
19651TIP3   OH280443   1.790   4.158   4.734  0.0599 -0.4338 -0.6728
19651TIP3    H180444   1.870   4.207   4.718 -0.4079  0.9730  1.0166
19651TIP3    H280445   1.732   4.220   4.778 -1.3290 -1.9065 -0.3376
19652TIP3   OH280446   6.279   3.555  16.660  0.0453 -0.1293  0.1405
19652TIP3    H180447   6.256   3.587  16.572 -1.7966 -1.0138  0.2378
19652TIP3    H280448   6.314   3.468  16.645  1.0545  0.2621  0.1909
19653TIP3   OH280449   2.024   3.415  10.982  0.4827  0.1226 -0.6184
19653TIP3    H180450   2.104   3.438  10.935 -1.0406  1.1675 -2.8928
19653TIP3    H280451   1.960   3.396  10.913 -1.6969  0.9088  1.0572
19654TIP3   OH280452   4.559   2.608   3.006 -0.1688  0.1127 -0.1051
19654TIP3    H180453   4.491   2.657   3.053 -1.4935 -2.5780  1.0424
19654TIP3    H280454   4.642   2.641   3.042 -0.8978  2.0549 -0.0688
19655TIP3   OH280455   5.354   3.168   0.184 -0.2847 -0.2034  0.0455
19655TIP3    H180456   5.283   3.151   0.122 -0.1694 -0.3572 -0.0431
19655TIP3    H280457   5.318   3.235   0.243  0.0860  0.9994 -1.0398
19656TIP3   OH280458   3.633   6.490  13.004 -0.0464 -0.1149  0.0616
19656TIP3    H180459   3.542   6.516  13.009 -0.2570 -0.9501  0.8173
19656TIP3    H280460   3.682   6.563  13.042 -0.5854 -0.6025  1.7713
19657TIP3   OH280461   4.875   1.776  16.192 -0.2378  0.2033 -0.0513
19657TIP3    H180462   4.890   1.857  16.143 -0.3532 -0.4523 -1.1877
19657TIP3    H280463   4.855   1.806  16.281 -2.3593  1.5614 -0.9038
19658TIP3   OH280464   4.606   0.318  14.140  0.0602  0.0098  0.3868
19658TIP3    H180465   4.593   0.234  14.098  1.6844 -0.3746  0.5760
19658TIP3    H280466   4.562   0.381  14.083 -1.5105 -0.9897  0.4605
19659TIP3   OH280467   2.720   5.919  15.629  0.7072 -0.0165 -0.3437
19659TIP3    H180468   2.675   5.965  15.699 -0.0523 -0.7307 -0.3435
19659TIP3    H280469   2.795   5.975  15.607 -1.2369  2.2563 -1.7045
19660TIP3   OH280470   3.611   3.504  12.848 -0.3227 -0.2302 -1.2060
19660TIP3    H180471   3.691   3.507  12.796  0.4090  1.3434 -0.0431
19660TIP3    H280472   3.593   3.595  12.871 -0.1976 -0.9093  1.9129
19661TIP3   OH280473   4.178   5.620  15.797 -0.2571 -0.0217  0.2103
19661TIP3    H180474   4.257   5.600  15.747  1.1238 -2.2563  3.0179
19661TIP3    H280475   4.111   5.637  15.730  1.8667 -0.9066 -2.3219
19662TIP3   OH280476   5.742   6.385   4.601 -0.0379 -0.8660 -0.0912
19662TIP3    H180477   5.670   6.326   4.579 -1.7079  0.5298  1.3261
19662TIP3    H280478   5.754   6.373   4.696 -0.0130  0.5897  0.1092
19663TIP3   OH280479   3.685   6.341   4.836  0.0381 -0.6706  0.3200
19663TIP3    H180480   3.631   6.401   4.888 -0.3925  0.5327 -1.4162
19663TIP3    H280481   3.626   6.311   4.767  1.0547 -0.8480 -0.4798
19664TIP3   OH280482   0.552   2.511  16.062 -0.3506  0.1519  0.5560
19664TIP3    H180483   0.622   2.575  16.078 -0.0907  0.0568 -0.1588
19664TIP3    H280484   0.577   2.469  15.980 -2.2689  1.4969 -0.8064
19665TIP3   OH280485   0.170   6.306   0.489 -0.0276  0.2547  0.0096
19665TIP3    H180486   0.147   6.308   0.581  1.1649 -2.6220  0.4792
19665TIP3    H280487   0.118   6.234   0.453  0.1119  0.8246 -1.4130
19666TIP3   OH280488   3.405   5.216   5.507  0.2805 -0.1252 -0.2275
19666TIP3    H180489   3.498   5.227   5.527  0.3872  0.5859 -1.0268
19666TIP3    H280490   3.367   5.180   5.587  1.1998 -0.1899  0.1914
19667TIP3   OH280491   6.071   6.302  15.423 -0.4101  0.1320  0.6643
19667TIP3    H180492   6.057   6.242  15.349  0.8460 -0.6169  1.0168
19667TIP3    H280493   5.996   6.286  15.481 -0.4993 -0.5298  0.3783
19668TIP3   OH280494   1.156   6.455  11.511  0.2193  0.2708 -0.1218
19668TIP3    H180495   1.190   6.371  11.481  1.7842  0.3679  1.2336
19668TIP3    H280496   1.193   6.466  11.599  2.2700  3.5297 -1.1918
19669TIP3   OH280497   5.251   4.357  16.330 -0.4313 -0.6317 -0.0162
19669TIP3    H180498   5.289   4.273  16.304  1.1988  0.6616 -2.1433
19669TIP3    H280499   5.315   4.395  16.390  0.7624  0.6186 -1.9489
19670TIP3   OH280500   0.119   1.549   5.886 -0.1056 -0.1424 -0.1883
19670TIP3    H180501   0.154   1.480   5.941  2.2431 -0.2953 -1.7322
19670TIP3    H280502   0.033   1.518   5.858 -0.6771 -0.7251  2.0648
19671TIP3   OH280503   4.187   5.267   5.641  0.0869 -0.2152 -0.2567
19671TIP3    H180504   4.123   5.316   5.589 -1.1460 -0.6148  0.8220
19671TIP3    H280505   4.270   5.278   5.594 -0.7257  0.4916 -1.5851
19672TIP3   OH280506   4.774   5.815   1.424  0.0803 -0.0739  0.1681
19672TIP3    H180507   4.703   5.790   1.365  1.0981 -0.8133 -0.7780
19672TIP3    H280508   4.846   5.838   1.365  0.0920  2.4183  1.0507
19673TIP3   OH280509   3.324   6.055   1.071 -0.0506  0.1566 -0.2834
19673TIP3    H180510   3.418   6.066   1.056 -0.1656  1.6075 -0.1502
19673TIP3    H280511   3.291   6.013   0.991  0.7524 -0.7080 -0.1761
19674TIP3   OH280512   0.931   5.096   0.625 -0.2178 -0.2440 -0.0018
19674TIP3    H180513   0.848   5.049   0.624  0.4231 -1.4107 -0.4375
19674TIP3    H280514   0.966   5.085   0.536 -0.3412  1.6247 -0.3217
19675TIP3   OH280515   4.693   2.262  16.131 -0.0074  0.4173 -0.1206
19675TIP3    H180516   4.731   2.323  16.068  0.6905  0.8592  0.7139
19675TIP3    H280517   4.598   2.266  16.115 -0.0059  1.9838  0.1592
19676TIP3   OH280518   1.238   2.110   5.293 -0.1351 -0.4915  0.3928
19676TIP3    H180519   1.256   2.065   5.375 -1.6956  0.9503  1.6169
19676TIP3    H280520   1.145   2.134   5.299 -0.7203 -1.6036 -2.4573
19677TIP3   OH280521   6.673   2.268   5.131  0.1528  0.0455 -0.0325
19677TIP3    H180522   6.762   2.243   5.109 -0.6349 -2.3576 -0.8851
19677TIP3    H280523   6.632   2.187   5.162 -1.8256  0.9943  0.0288
19678TIP3   OH280524   1.013   0.671   3.679  0.2453 -0.3475 -0.3071
19678TIP3    H180525   0.986   0.733   3.611  1.4250  0.6546  0.1083
19678TIP3    H280526   0.937   0.613   3.691 -0.6657  0.6557 -1.1038
19679TIP3   OH280527   1.515   4.365  16.535  0.0153 -0.0511  0.2022
19679TIP3    H180528   1.592   4.335  16.487 -0.1821  0.5523 -0.5031
19679TIP3    H280529   1.531   4.337  16.626  1.4442  0.7807  0.2354
19680TIP3   OH280530   5.479   1.797  16.341  0.0180  0.1280  0.3710
19680TIP3    H180531   5.526   1.880  16.346 -0.8178  0.5747  1.1529
19680TIP3    H280532   5.438   1.787  16.427  0.4438 -1.3071  0.4355
19681TIP3   OH280533   4.115   0.463   5.251 -0.0857  0.2121  0.4711
19681TIP3    H180534   4.069   0.395   5.301  1.3641 -0.7693  0.5248
19681TIP3    H280535   4.200   0.472   5.294  2.5415 -2.8939 -3.3667
19682TIP3   OH280536   3.702   0.049  14.990  0.3997  0.3172  0.3421
19682TIP3    H180537   3.741   0.130  14.958  1.9652  0.5212  2.5676
19682TIP3    H280538   3.661   0.073  15.073  0.9286 -1.1615  1.0639
19683TIP3   OH280539   0.797   5.228   4.500  0.1322 -0.2830 -0.3692
19683TIP3    H180540   0.815   5.313   4.458 -2.0981  0.1366 -0.6172
19683TIP3    H280541   0.837   5.236   4.587  1.7203  0.2139 -1.1034
19684TIP3   OH280542   5.302   2.669  15.179  0.2995 -0.1666  0.1634
19684TIP3    H180543   5.336   2.744  15.129  0.4794  0.8386  1.7367
19684TIP3    H280544   5.263   2.612  15.112  4.2355 -1.0232 -1.7085
19685TIP3   OH280545   2.741   0.921  16.249 -0.5952 -0.0663 -0.0027
19685TIP3    H180546   2.789   0.990  16.205 -1.5138 -0.6797 -2.0981
19685TIP3    H280547   2.664   0.964  16.285  0.2566  0.4730  1.2511
19686TIP3   OH280548   4.637   1.180  14.510 -0.4220  0.4653 -0.7484
19686TIP3    H180549   4.589   1.254  14.472 -0.5510 -0.2033 -1.9230
19686TIP3    H280550   4.634   1.112  14.443  0.7464 -0.1837 -0.1779
19687TIP3   OH280551   4.144   2.470  10.604  0.4484  0.3340 -0.0204
19687TIP3    H180552   4.171   2.410  10.673  0.5446  1.2883  0.8055
19687TIP3    H280553   4.055   2.496  10.629  0.5004  0.7229 -0.2348
19688TIP3   OH280554   6.702   1.970   1.627  0.3855  0.0676  0.1921
19688TIP3    H180555   6.713   1.990   1.720 -1.7008  1.6128  0.1651
19688TIP3    H280556   6.629   2.025   1.598  1.6441  0.4268 -2.6435
19689TIP3   OH280557   6.113   3.231  12.552 -1.0127 -0.4279 -0.0634
19689TIP3    H180558   6.043   3.284  12.591  0.1528  0.6207  0.6616
19689TIP3    H280559   6.135   3.278  12.471  0.3405  0.5015  0.8115
19690TIP3   OH280560   3.497   0.878   5.484 -0.8471 -0.0578 -0.5523
19690TIP3    H180561   3.447   0.959   5.483 -0.0555  0.4766  0.6370
19690TIP3    H280562   3.455   0.825   5.553 -0.6584 -0.1809 -0.5292
19691TIP3   OH280563   1.977   3.103  15.838  0.5416  0.3534 -0.2907
19691TIP3    H180564   1.887   3.133  15.826  0.2246 -0.2055  0.6158
19691TIP3    H280565   2.026   3.182  15.862  0.3179  0.6715 -0.8678
19692TIP3   OH280566   4.681   2.858   3.917  0.3413  0.7320 -0.1712
19692TIP3    H180567   4.694   2.916   3.992 -2.2449 -0.4987  1.3482
19692TIP3    H280568   4.598   2.814   3.934  1.8423 -3.0089 -1.4871
19693TIP3   OH280569   4.426   6.034   1.966  0.0033  0.8479  0.1490
19693TIP3    H180570   4.419   5.985   2.048 -0.3290  1.6596  0.6209
19693TIP3    H280571   4.455   5.970   1.902 -4.1386 -1.0091 -0.1896
19694TIP3   OH280572   5.936   3.429   5.485 -0.8864 -0.1333 -0.4954
19694TIP3    H180573   5.898   3.473   5.562 -1.1574 -0.9472 -0.1519
19694TIP3    H280574   6.028   3.454   5.487 -1.1083  0.7312 -0.5311
19695TIP3   OH280575   5.715   2.800   3.271 -0.5769  0.1836 -0.6751
19695TIP3    H180576   5.662   2.829   3.345 -2.3479 -1.4084 -1.2422
19695TIP3    H280577   5.711   2.872   3.209 -2.2101  0.0685 -0.7391
19696TIP3   OH280578   1.021   3.944  11.422 -0.0761  0.2695 -0.0245
19696TIP3    H180579   1.073   4.020  11.447  1.3865 -1.0519  1.1507
19696TIP3    H280580   0.936   3.981  11.397  1.6069  2.6285 -2.9792
19697TIP3   OH280581   2.567   0.041   2.617  0.1725  0.5180 -0.0739
19697TIP3    H180582   2.512   0.002   2.685  0.9335  0.2672  0.4042
19697TIP3    H280583   2.523   0.019   2.535  0.2226 -0.7541  0.2247
19698TIP3   OH280584   1.896   6.465   5.058  0.7939  0.5111 -0.0275
19698TIP3    H180585   1.947   6.394   5.019 -0.1074 -0.6608  0.8615
19698TIP3    H280586   1.937   6.545   5.025  2.6170 -0.3969 -0.0601
19699TIP3   OH280587   5.564   0.944   5.059  0.2443  0.0993 -0.1773
19699TIP3    H180588   5.652   0.975   5.080 -0.0969  0.2776  1.0680
19699TIP3    H280589   5.559   0.857   5.097 -0.8343  0.9527  1.7568
19700TIP3   OH280590   2.092   5.168  14.753 -0.7972 -0.4003 -0.3950
19700TIP3    H180591   2.124   5.256  14.770 -1.5033  0.3393 -2.5020
19700TIP3    H280592   2.169   5.112  14.757 -0.3036  0.3340  0.7320
19701TIP3   OH280593   6.756   4.957  11.825  0.0294 -0.1790  0.1499
19701TIP3    H180594   6.674   4.960  11.873 -0.8031  2.0766 -1.2819
19701TIP3    H280595   6.733   4.978  11.734  2.0402 -0.5280 -0.5136
19702TIP3   OH280596   5.754   4.316   6.163 -0.3509  0.3646 -0.0230
19702TIP3    H180597   5.820   4.273   6.219 -0.6972  0.0597  0.1544
19702TIP3    H280598   5.794   4.400   6.140  0.4452 -0.1492 -0.5773
19703TIP3   OH280599   4.468   5.231  13.597 -0.3374 -0.1669  0.0031
19703TIP3    H180600   4.386   5.199  13.558 -0.0629  0.3152 -1.0189
19703TIP3    H280601   4.442   5.266  13.682 -1.5878  1.7478 -1.0656
19704TIP3   OH280602   4.579   2.924   6.555  0.0731  0.6118 -0.0286
19704TIP3    H180603   4.590   2.870   6.633 -2.8980  1.6795  1.2868
19704TIP3    H280604   4.603   2.866   6.482  0.5001 -1.2583  1.5163
19705TIP3   OH280605   2.537   4.935   5.649  0.4772 -0.3793 -0.1875
19705TIP3    H180606   2.606   4.896   5.702 -1.0703 -3.0215  0.0551
19705TIP3    H280607   2.522   5.021   5.688  1.6360 -0.9307  1.5914
19706TIP3   OH280608   0.597   0.495  12.746  0.2085  0.0452  0.3688
19706TIP3    H180609   0.674   0.443  12.769  0.2901  0.5812  1.3537
19706TIP3    H280610   0.541   0.435  12.697  1.4215 -0.2405 -0.7251
19707TIP3   OH280611   2.070   0.686   1.298  1.0650 -0.7388 -0.4007
19707TIP3    H180612   2.120   0.605   1.295  1.8377 -0.2505 -2.7656
19707TIP3    H280613   2.116   0.745   1.239 -0.4490  0.8495 -0.0792
19708TIP3   OH280614   2.837   3.485  17.179  0.2903 -0.2684  0.2601
19708TIP3    H180615   2.776   3.533  17.123  1.3742 -0.0908 -0.8319
19708TIP3    H280616   2.903   3.549  17.203 -0.2217 -0.3165  1.9098
19709TIP3   OH280617   4.942   5.365  11.554 -0.3059 -0.1215 -0.3542
19709TIP3    H180618   4.895   5.289  11.587  1.4335 -1.5930 -1.1212
19709TIP3    H280619   4.881   5.406  11.492 -1.1561 -1.0885 -0.1818
19710TIP3   OH280620   0.400   1.764  11.282  0.3338  0.3895 -0.1700
19710TIP3    H180621   0.373   1.723  11.200 -1.2035 -0.5420  0.7818
19710TIP3    H280622   0.378   1.857  11.270 -2.3438 -0.1515  0.1411
19711TIP3   OH280623   4.537   6.181   0.388 -0.3369  0.0438  0.1038
19711TIP3    H180624   4.531   6.180   0.483  1.3844 -1.6529  0.2570
19711TIP3    H280625   4.586   6.261   0.368  0.8239 -0.4491  0.8234
19712TIP3   OH280626   1.979   4.008  10.840 -0.2740  0.1298 -0.0356
19712TIP3    H180627   2.030   4.051  10.909  0.4995  0.4635 -0.7869
19712TIP3    H280628   1.889   4.033  10.857 -0.1309 -0.0428  1.0314
19713TIP3   OH280629   2.267   2.795  16.319  0.1251 -0.0272 -0.0296
19713TIP3    H180630   2.230   2.875  16.282 -2.4268 -1.4436 -0.7605
19713TIP3    H280631   2.350   2.784  16.272 -0.0688  1.5034 -0.8224
19714TIP3   OH280632   4.015   3.472  17.094 -0.5514 -0.1213  0.4444
19714TIP3    H180633   4.066   3.406  17.047 -1.7952  0.0257 -1.2174
19714TIP3    H280634   3.932   3.429  17.115 -1.7638  1.1015 -1.4952
19715TIP3   OH280635   3.960   2.780   3.983 -0.6269  0.3958  0.5292
19715TIP3    H180636   3.868   2.753   3.978 -0.9284  1.6601 -1.8609
19715TIP3    H280637   4.005   2.725   3.919  0.2769 -0.0040  1.4616
19716TIP3   OH280638   5.245   5.176  13.843 -0.8289 -0.1881  0.5597
19716TIP3    H180639   5.306   5.250  13.847  0.6654 -1.3594  0.5267
19716TIP3    H280640   5.194   5.191  13.764  0.2697  0.2296 -0.1046
19717TIP3   OH280641   3.359   6.434   4.414  0.0216  0.0827  0.0911
19717TIP3    H180642   3.299   6.477   4.475  0.6633  1.7503 -0.4005
19717TIP3    H280643   3.446   6.467   4.439  0.4486 -0.3133 -0.8294
19718TIP3   OH280644   1.640   1.887  16.723 -0.4192 -0.0169  0.1219
19718TIP3    H180645   1.615   1.979  16.715 -2.3464 -0.6073 -1.2173
19718TIP3    H280646   1.716   1.877  16.666 -1.1358  0.4241 -0.9255
19719TIP3   OH280647   0.297   6.010   4.685  0.1101 -0.1714 -0.0333
19719TIP3    H180648   0.250   6.074   4.632  0.8826 -1.5980 -2.6472
19719TIP3    H280649   0.390   6.032   4.673  0.3478 -1.2210 -0.3254
19720TIP3   OH280650   6.691   0.777  15.924 -0.2009 -0.1396  0.0104
19720TIP3    H180651   6.707   0.706  15.862 -1.6148  0.6438 -1.3110
19720TIP3    H280652   6.760   0.767  15.990  0.0496 -2.3098 -0.4947
19721TIP3   OH280653   6.655   1.205  14.535 -0.6770  0.1653 -0.3523
19721TIP3    H180654   6.587   1.147  14.500 -0.6724 -0.3264  0.4305
19721TIP3    H280655   6.714   1.220  14.461  1.4486 -3.9353  0.2217
19722TIP3   OH280656   1.538   5.482   4.261 -0.6108 -0.3139 -0.6609
19722TIP3    H180657   1.626   5.508   4.289 -0.9347  0.5165 -0.3834
19722TIP3    H280658   1.522   5.399   4.306 -0.9563  0.7781  1.3202
19723TIP3   OH280659   5.991   2.220   5.911 -0.1807  0.1643 -0.3060
19723TIP3    H180660   5.942   2.286   5.861 -1.0573  0.1643  0.5280
19723TIP3    H280661   6.060   2.270   5.954 -0.9736  0.6123  0.4982
19724TIP3   OH280662   1.055   0.415  13.369  0.2850 -0.0040  0.1643
19724TIP3    H180663   1.105   0.479  13.419  0.7424 -0.9881  1.0040
19724TIP3    H280664   1.003   0.369  13.435 -1.8804  1.0712 -0.6875
19725TIP3   OH280665   1.729   2.052  16.976  0.2068 -0.2211  0.1227
19725TIP3    H180666   1.774   2.006  16.905  2.2304  1.6516  0.0658
19725TIP3    H280667   1.728   1.989  17.048  0.6899 -1.1879 -0.6837
19726TIP3   OH280668   1.809   3.669  11.238 -0.4741 -0.0251 -0.7422
19726TIP3    H180669   1.820   3.593  11.296  0.4244  0.9560  0.4117
19726TIP3    H280670   1.760   3.634  11.164  0.4524 -1.8857 -0.5494
19727TIP3   OH280671   6.327   4.593   4.663 -0.5183  0.2416 -0.2166
19727TIP3    H180672   6.391   4.655   4.628 -0.7305 -0.4255 -1.8283
19727TIP3    H280673   6.369   4.508   4.655 -0.5259  0.0551  1.3159
19728TIP3   OH280674   1.149   1.738   0.076 -0.0196  0.3290  0.1314
19728TIP3    H180675   1.201   1.816   0.054  0.3854  0.0058 -0.0630
19728TIP3    H280676   1.060   1.761   0.049 -0.0743  1.0505  0.8533
19729TIP3   OH280677   3.005   2.208  15.175  0.6598 -0.1515 -0.5123
19729TIP3    H180678   2.951   2.152  15.230  0.9040  0.1181  0.0082
19729TIP3    H280679   3.069   2.149  15.135  0.6233 -0.3140 -0.3273
19730TIP3   OH280680   3.577   0.441  16.245  0.0553  0.5212  1.1778
19730TIP3    H180681   3.535   0.527  16.252  0.0816  0.5781  0.6888
19730TIP3    H280682   3.555   0.396  16.327 -1.2517  0.4230  0.7982
19731TIP3   OH280683   6.550   3.252   1.433  0.3555 -0.5495 -0.2968
19731TIP3    H180684   6.476   3.215   1.481  0.6608  0.8983  1.4038
19731TIP3    H280685   6.561   3.195   1.357 -0.4914 -2.6698  1.0819
19732TIP3   OH280686   4.054   2.757   6.423 -0.2138 -0.3718  0.0117
19732TIP3    H180687   4.076   2.665   6.434 -0.4214 -0.3802  0.3813
19732TIP3    H280688   4.122   2.804   6.472  1.7643 -0.1488 -2.7227
19733TIP3   OH280689   4.390   1.193  15.620 -0.5941  0.7738 -0.4533
19733TIP3    H180690   4.352   1.211  15.534 -0.8136 -0.4588 -0.6323
19733TIP3    H280691   4.316   1.170  15.675 -0.2715 -0.3547 -0.4623
19734TIP3   OH280692   1.265   0.928  14.672 -0.2108  0.2269 -0.8456
19734TIP3    H180693   1.321   0.929  14.750 -0.8901  0.9276 -0.3403
19734TIP3    H280694   1.262   1.020  14.644 -2.1392  0.4519 -0.0598
19735TIP3   OH280695   5.772   1.888   5.848  0.2187  0.1299 -0.3001
19735TIP3    H180696   5.777   1.913   5.756  0.3132 -0.3395 -0.4263
19735TIP3    H280697   5.722   1.806   5.848 -0.8917  0.7803  0.1940
19736TIP3   OH280698   0.620   2.391  14.656 -0.3579  0.3018  0.1668
19736TIP3    H180699   0.539   2.425  14.618 -0.7369  0.3520  0.9952
19736TIP3    H280700   0.690   2.437  14.609 -0.8227  0.7045 -0.1413
19737TIP3   OH280701   5.098   2.635  14.708  0.0251 -0.3694  0.0244
19737TIP3    H180702   5.158   2.571  14.747  0.3102 -0.9756 -1.3473
19737TIP3    H280703   5.087   2.605  14.618  0.7746  1.9534 -0.9006
19738TIP3   OH280704   2.340   5.619  17.172  0.2805  0.3020  0.4811
19738TIP3    H180705   2.259   5.638  17.220 -0.2584  0.1121 -0.3266
19738TIP3    H280706   2.408   5.662  17.222 -0.6374  2.7670 -0.2519
19739TIP3   OH280707   1.295   1.375  12.759  0.5667 -0.0286  0.2454
19739TIP3    H180708   1.322   1.352  12.669  1.8800 -1.2946  0.9194
19739TIP3    H280709   1.302   1.470  12.762  1.6343 -0.0529 -0.6693
19740TIP3   OH280710   6.740   1.646  14.495 -0.1651  0.1770  0.2308
19740TIP3    H180711   6.759   1.701  14.571 -0.1414  1.1858 -0.4913
19740TIP3    H280712   6.651   1.614  14.510 -0.3202  0.7148  0.4708
19741TIP3   OH280713   3.853   0.253   1.070 -0.2555  0.0424 -0.2785
19741TIP3    H180714   3.848   0.193   1.144  0.3926  0.5108  0.1612
19741TIP3    H280715   3.789   0.321   1.090  0.0699  0.2819 -0.0326
19742TIP3   OH280716   0.551   0.492  11.643  0.0961  0.1008 -0.5160
19742TIP3    H180717   0.560   0.455  11.555 -0.4308 -2.1163  0.3005
19742TIP3    H280718   0.498   0.571  11.631  0.1105 -0.1201 -2.1831
19743TIP3   OH280719   1.147   6.159  15.926  0.7350 -0.1844  0.1803
19743TIP3    H180720   1.131   6.245  15.966 -0.7183  0.8380 -2.3832
19743TIP3    H280721   1.209   6.176  15.856  0.5683 -1.2743 -0.2583
19744TIP3   OH280722   2.886   6.451   4.614  0.2133 -0.3451  0.5151
19744TIP3    H180723   2.938   6.372   4.605  1.0004  0.3649 -1.9839
19744TIP3    H280724   2.930   6.501   4.683  1.5018 -0.8051  0.0551
19745TIP3   OH280725   4.926   4.499   1.136  0.5293  0.5334 -0.7597
19745TIP3    H180726   5.001   4.512   1.195 -0.7974  0.9550  0.9055
19745TIP3    H280727   4.862   4.452   1.188 -0.0706 -0.6192 -2.4394
19746TIP3   OH280728   4.034   2.220   0.386  0.4590  0.1043  0.2391
19746TIP3    H180729   3.942   2.238   0.408  0.4671  0.4111  0.0261
19746TIP3    H280730   4.055   2.141   0.435  0.6824  1.1222  1.8373
19747TIP3   OH280731   1.639   3.538   4.406 -0.4873 -0.0862 -0.7012
19747TIP3    H180732   1.561   3.574   4.364  0.7281  2.1751 -1.1564
19747TIP3    H280733   1.631   3.443   4.393 -2.5964  0.1604 -1.6748
19748TIP3   OH280734   1.764   5.444   1.563  0.2706 -0.1157 -0.9676
19748TIP3    H180735   1.838   5.446   1.503  1.9034 -0.5373  0.9178
19748TIP3    H280736   1.786   5.374   1.624 -0.3184  1.5678  1.2884
19749TIP3   OH280737   5.039   2.004  15.541 -0.2862 -0.4581  0.0231
19749TIP3    H180738   5.050   2.059  15.618 -0.5587 -1.0437  0.4879
19749TIP3    H280739   5.058   1.915  15.572 -0.7003 -0.7394 -0.5114
19750TIP3   OH280740   6.270   1.621  15.717 -0.6312 -0.0856  0.7358
19750TIP3    H180741   6.263   1.595  15.625 -2.1965 -0.0485  0.8171
19750TIP3    H280742   6.205   1.691  15.728 -1.3607 -0.9330  2.1488
19751TIP3   OH280743   0.917   5.146  15.992 -0.7293 -0.3430  0.0310
19751TIP3    H180744   0.895   5.163  16.084 -1.3750 -1.0248  0.0180
19751TIP3    H280745   0.840   5.100  15.957 -1.5756  2.0694 -1.5418
19752TIP3   OH280746   0.103   4.854  14.373  0.2223  0.1250 -0.3708
19752TIP3    H180747   0.036   4.863  14.441  1.1804 -2.4852  1.0513
19752TIP3    H280748   0.058   4.810  14.301  0.2111 -0.9990  0.3062
19753TIP3   OH280749   1.950   0.911   0.690 -1.2730  0.3530 -0.0630
19753TIP3    H180750   2.022   0.954   0.645 -2.0787  0.8262 -0.9425
19753TIP3    H280751   1.935   0.963   0.768  1.1413 -1.3340  1.6813
19754TIP3   OH280752   3.223   0.250   4.772 -0.1702 -0.6287  0.8487
19754TIP3    H180753   3.301   0.246   4.717 -1.3309 -1.9745 -0.8253
19754TIP3    H280754   3.216   0.162   4.809 -1.4144 -0.8661  0.1263
19755TIP3   OH280755   2.787   1.933   3.390 -0.3412  0.9790 -0.4541
19755TIP3    H180756   2.694   1.923   3.370 -0.6687  1.6913  0.6042
19755TIP3    H280757   2.814   2.010   3.341 -0.6055  1.4424  0.1107
19756TIP3   OH280758   5.503   0.378   3.534 -0.5365  0.3570 -0.1035
19756TIP3    H180759   5.591   0.384   3.570 -0.2274 -0.0530 -0.7650
19756TIP3    H280760   5.492   0.458   3.483 -0.3048  0.1153 -0.5359
19757TIP3   OH280761   3.490   2.043  16.773  0.0076 -0.4287  0.1221
19757TIP3    H180762   3.553   1.976  16.798  0.2652 -0.1884  0.1270
19757TIP3    H280763   3.510   2.061  16.681  0.1815 -0.0974  0.2242
19758TIP3   OH280764   1.722   4.592   1.662  0.5942 -0.0477 -0.2232
19758TIP3    H180765   1.754   4.538   1.589 -1.9981 -0.3592 -1.2305
19758TIP3    H280766   1.676   4.664   1.620 -1.3260 -0.4515  1.0538
19759TIP3   OH280767   0.138   4.085   3.479 -0.5115  0.5058 -0.0505
19759TIP3    H180768   0.151   4.165   3.429 -0.4754  0.7607  0.3602
19759TIP3    H280769   0.155   4.014   3.417  1.3986  0.8145  0.0530
19760TIP3   OH280770   2.352   4.914  10.411 -0.0189  0.1200 -0.5711
19760TIP3    H180771   2.257   4.903  10.422 -0.1080  0.1138 -1.3289
19760TIP3    H280772   2.363   4.942  10.320  0.7545 -0.5176 -0.6830
19761TIP3   OH280773   3.974   5.688  13.697 -0.2975 -0.1109 -0.4794
19761TIP3    H180774   3.889   5.667  13.658  0.2596 -1.6914 -0.9268
19761TIP3    H280775   4.026   5.722  13.623 -0.4850  0.6847 -0.2450
19762TIP3   OH280776   6.463   5.187  12.315  0.2113  0.6001 -0.1557
19762TIP3    H180777   6.502   5.193  12.402  0.3977 -0.0600 -0.1853
19762TIP3    H280778   6.429   5.275  12.297 -3.2229 -0.1052  2.1517
19763TIP3   OH280779   0.353   6.691  12.929 -0.1321 -0.4841 -0.2569
19763TIP3    H180780   0.324   6.765  12.875  1.7276  0.3308 -0.2275
19763TIP3    H280781   0.272   6.648  12.956 -1.3379  1.8430  0.1574
19764TIP3   OH280782   3.813   5.958  11.975  0.1755 -0.6040  0.0647
19764TIP3    H180783   3.726   5.967  12.013  0.7890  0.5830  1.2967
19764TIP3    H280784   3.867   5.925  12.048  0.9694 -0.2793 -0.3694
19765TIP3   OH280785   5.196   2.963  13.474 -0.0468 -0.0106  0.1705
19765TIP3    H180786   5.201   2.976  13.379  0.6672 -2.2081 -0.1647
19765TIP3    H280787   5.282   2.931  13.498 -0.4585 -0.2193  1.4385
19766TIP3   OH280788   0.774   2.445   4.456  0.1424 -0.5315 -0.3014
19766TIP3    H180789   0.717   2.515   4.425  0.7182  0.4218  0.7265
19766TIP3    H280790   0.742   2.367   4.412 -0.3590  0.4144 -1.6652
19767TIP3   OH280791   4.539   0.282   2.858 -0.0175  0.3747 -0.1686
19767TIP3    H180792   4.599   0.321   2.794 -1.4488  2.8378 -0.1467
19767TIP3    H280793   4.572   0.311   2.943 -0.0133 -0.1134  0.0017
19768TIP3   OH280794   1.229   3.724  11.502 -0.0225 -0.0589 -0.4227
19768TIP3    H180795   1.254   3.720  11.409  0.1104  2.1738 -0.5346
19768TIP3    H280796   1.155   3.785  11.505  0.4141  0.4427  1.0182
19769TIP3   OH280797   6.691   2.531  15.151 -0.2048 -0.4016  0.0814
19769TIP3    H180798   6.672   2.591  15.079 -0.8969 -0.5348  0.1469
19769TIP3    H280799   6.778   2.557  15.182  0.1071 -0.3418 -0.7948
19770TIP3   OH280800   5.055   2.506   6.067 -0.0383  0.3173  0.0669
19770TIP3    H180801   5.142   2.481   6.035  0.1877 -0.2766  1.1247
19770TIP3    H280802   4.997   2.438   6.035  0.2449 -0.4704  1.1968
19771TIP3   OH280803   6.600   1.053   4.873  0.3098 -0.0993 -0.3645
19771TIP3    H180804   6.652   1.018   4.800  0.2336 -0.0214 -0.4558
19771TIP3    H280805   6.520   1.085   4.832  0.0802 -0.4534 -0.1891
19772TIP3   OH280806   5.652   4.568   3.623 -0.4929  0.0604  0.3976
19772TIP3    H180807   5.616   4.655   3.639 -0.8353 -0.4159  2.6018
19772TIP3    H280808   5.643   4.523   3.707 -0.7795 -2.2842 -0.8091
19773TIP3   OH280809   1.556   0.046   2.240 -1.0941  0.1577 -0.0168
19773TIP3    H180810   1.557   0.003   2.155  0.0589  1.5253 -0.7383
19773TIP3    H280811   1.511   0.130   2.224 -0.1415  0.7856  0.5007
19774TIP3   OH280812   1.564   5.825   0.457  0.5611  0.0277 -0.0886
19774TIP3    H180813   1.539   5.906   0.502  0.5296  0.7521 -1.3607
19774TIP3    H280814   1.483   5.793   0.419  0.4875 -0.8748  0.8048
19775TIP3   OH280815   0.128   0.639   1.258  0.1460  1.1104  0.4870
19775TIP3    H180816   0.038   0.641   1.225 -0.0785  1.8145  1.1359
19775TIP3    H280817   0.120   0.612   1.349  0.7679 -0.7914  0.0419
19776TIP3   OH280818   3.400   4.011  11.631  0.5324  0.5991 -1.0321
19776TIP3    H180819   3.438   4.095  11.604  0.3936  1.8529  2.2804
19776TIP3    H280820   3.308   4.031  11.649  0.4926 -0.2570 -0.2316
19777TIP3   OH280821   2.646   3.242  11.301 -0.2052 -0.4206  0.2600
19777TIP3    H180822   2.736   3.267  11.321 -1.1160  2.5606  1.0730
19777TIP3    H280823   2.613   3.312  11.245 -2.0819 -1.3381  0.1460
19778TIP3   OH280824   0.338   4.534   5.898  0.1861 -0.6376  0.1726
19778TIP3    H180825   0.335   4.618   5.943  1.7537 -0.9377  0.9229
19778TIP3    H280826   0.279   4.478   5.948 -1.1639  0.0927 -0.5620
19779TIP3   OH280827   3.639   3.006   0.576 -0.5334 -0.2164  0.0297
19779TIP3    H180828   3.669   2.918   0.553  0.6266 -0.3875  2.0162
19779TIP3    H280829   3.613   3.045   0.493  2.9492 -0.9199 -1.5681
19780TIP3   OH280830   5.458   2.347  16.394  0.2850 -0.0530 -0.7512
19780TIP3    H180831   5.454   2.285  16.321 -1.1958  0.5144 -1.1761
19780TIP3    H280832   5.405   2.421  16.365 -0.1232  0.2899  0.8073
19781TIP3   OH280833   5.051   3.678  13.642  0.6166  0.5041  0.0266
19781TIP3    H180834   5.070   3.768  13.613 -0.3151  0.3872 -0.9891
19781TIP3    H280835   5.129   3.653  13.692  1.5661  1.3147 -0.9903
19782TIP3   OH280836   1.080   0.574  16.389  0.0985  0.0715 -0.0677
19782TIP3    H180837   1.049   0.491  16.352 -0.5993  0.4428 -0.3413
19782TIP3    H280838   1.030   0.641  16.342  0.5799  0.6417  0.2237
19783TIP3   OH280839   0.672   6.760  15.453  0.3268  0.4707 -0.5502
19783TIP3    H180840   0.588   6.745  15.496 -0.1178  2.4412 -0.6415
19783TIP3    H280841   0.665   6.714  15.370  0.4318 -1.6925  0.5422
19784TIP3   OH280842   2.016   6.331  16.177  0.5053  0.0180  0.7132
19784TIP3    H180843   2.071   6.254  16.164  1.4609  0.7213  0.5041
19784TIP3    H280844   1.998   6.363  16.089  0.0012 -0.0264  0.7943
19785TIP3   OH280845   1.068   4.151  16.537  0.2190 -0.1100 -0.2418
19785TIP3    H180846   1.056   4.073  16.592 -2.5406  0.4388  0.0893
19785TIP3    H280847   1.125   4.208  16.588 -1.7733  0.1352  1.9057
19786TIP3   OH280848   4.043   3.971  16.536  1.0407 -0.5910  0.6665
19786TIP3    H180849   4.108   3.987  16.605  1.6728  1.6728 -0.3261
19786TIP3    H280850   4.001   4.056  16.524  0.3709 -1.1368 -1.1528
19787TIP3   OH280851   1.074   1.217   2.412  0.0692 -0.2651  0.1448
19787TIP3    H180852   1.055   1.251   2.325  0.5047  0.0059  0.1549
19787TIP3    H280853   1.150   1.267   2.442  0.5239 -1.0240  0.2881
19788TIP3   OH280854   0.957   2.708   2.889 -0.4491 -0.0874  0.2725
19788TIP3    H180855   0.963   2.760   2.969 -0.2202  1.3230 -0.6373
19788TIP3    H280856   0.908   2.630   2.915 -0.2933  0.2934  1.8048
19789TIP3   OH280857   0.436   6.697   0.423  0.5435 -0.0649  0.1631
19789TIP3    H180858   0.477   6.761   0.365 -0.5424  2.2128  1.7688
19789TIP3    H280859   0.488   6.701   0.504  0.1231 -0.8234  0.4794
19790TIP3   OH280860   0.263   0.474  16.480 -0.6372  0.2172 -0.0963
19790TIP3    H180861   0.319   0.463  16.403 -1.0099  1.9814 -0.6432
19790TIP3    H280862   0.313   0.533  16.537 -0.3301 -1.1230  1.0983
19791TIP3   OH280863   0.385   4.257   3.437 -0.4085 -0.2915  0.1535
19791TIP3    H180864   0.462   4.314   3.428  0.2635 -1.0377  0.9235
19791TIP3    H280865   0.415   4.186   3.494 -1.5885 -0.7673  0.2052
19792TIP3   OH280866   1.286   3.442   2.503 -0.4375 -0.2977  0.4657
19792TIP3    H180867   1.354   3.392   2.456  0.2316  0.1064  0.9821
19792TIP3    H280868   1.277   3.523   2.453 -0.8633 -0.5380  0.1477
19793TIP3   OH280869   6.060   0.115   4.903 -0.4933 -0.0660 -0.0822
19793TIP3    H180870   6.055   0.205   4.934  1.3693  0.3789 -0.9177
19793TIP3    H280871   5.971   0.092   4.878 -1.3250  0.8888  1.8644
19794TIP3   OH280872   4.375   6.437   0.192 -0.0887  0.1274  0.0615
19794TIP3    H180873   4.384   6.517   0.140 -0.8790 -0.3321 -0.8330
19794TIP3    H280874   4.454   6.433   0.244  0.8867  0.4792 -1.3308
19795TIP3   OH280875   4.948   4.107   1.763 -0.3949 -0.3032 -0.4175
19795TIP3    H180876   4.923   4.018   1.738  0.0735 -0.7446  0.6107
19795TIP3    H280877   4.866   4.154   1.773 -0.6283 -0.4385 -1.5832
19796TIP3   OH280878   5.473   1.909   5.555 -0.2915 -0.0428  0.0366
19796TIP3    H180879   5.469   1.829   5.502 -0.5310  0.3162 -0.4921
19796TIP3    H280880   5.487   1.979   5.492  2.5535  0.1030  0.6920
19797TIP3   OH280881   4.364   1.777  15.330  0.1737 -0.4035 -0.6410
19797TIP3    H180882   4.423   1.835  15.378  0.2733 -0.4071 -0.7559
19797TIP3    H280883   4.292   1.834  15.302 -0.3213 -0.5869  0.2516
19798TIP3   OH280884   3.332   1.763   4.670 -0.1177  0.1170 -0.1409
19798TIP3    H180885   3.253   1.709   4.674  0.3639 -0.6040 -0.1827
19798TIP3    H280886   3.353   1.781   4.762  0.2498 -0.5623 -0.0869
19799TIP3   OH280887   3.397   3.257   1.324 -0.3033  0.3783  0.1942
19799TIP3    H180888   3.481   3.238   1.367 -0.2986 -0.0374  0.0153
19799TIP3    H280889   3.402   3.207   1.242 -0.5005  0.7945 -0.0717
19800TIP3   OH280890   0.876   5.100  15.091 -0.1803  0.3146  0.0077
19800TIP3    H180891   0.927   5.144  15.022  0.4210 -1.5700 -0.8025
19800TIP3    H280892   0.787   5.136  15.081  0.9425  4.1514  1.8583
19801TIP3   OH280893   4.577   1.012   0.570  0.0923  0.0207 -0.2341
19801TIP3    H180894   4.529   1.058   0.640  1.5037 -0.5180  1.1477
19801TIP3    H280895   4.600   0.928   0.608  0.8733 -0.3071 -1.3843
19802TIP3   OH280896   4.791   4.248  13.986  0.4547  0.1033 -0.1497
19802TIP3    H180897   4.845   4.210  14.054  2.9501  1.2474 -1.3852
19802TIP3    H280898   4.723   4.297  14.033  0.0984 -1.8070  1.4328
19803TIP3   OH280899   6.807   1.970  11.645  0.1795  0.0113  0.2213
19803TIP3    H180900   6.816   2.060  11.614 -0.7501  0.1266  0.2688
19803TIP3    H280901   6.848   1.970  11.731 -0.4599  0.5620  0.5267
19804TIP3   OH280902   4.206   6.058   5.206  0.2055  0.3866  0.1821
19804TIP3    H180903   4.256   6.136   5.230  0.6197 -0.1477  1.1534
19804TIP3    H280904   4.244   6.029   5.123  0.0990  1.1636 -0.1472
19805TIP3   OH280905   5.258   4.285  11.694 -0.6666 -0.3892  0.2518
19805TIP3    H180906   5.297   4.251  11.775 -1.0010  1.1096  1.0856
19805TIP3    H280907   5.323   4.266  11.627 -0.3627 -1.6452  0.8617
19806TIP3   OH280908   6.285   6.231  16.990  0.4944  0.1179 -0.8108
19806TIP3    H180909   6.258   6.286  16.916 -0.3939 -0.5512 -1.0102
19806TIP3    H280910   6.372   6.200  16.967  0.3544  0.1699 -1.4304
19807TIP3   OH280911   4.601   5.104  14.278 -0.0215  0.0587  0.0623
19807TIP3    H180912   4.618   5.149  14.360 -0.1520  1.7158 -0.7938
19807TIP3    H280913   4.619   5.012  14.297  0.6445  0.5119  1.7384
19808TIP3   OH280914   0.414   1.758   1.501 -0.0990  0.7883 -0.2928
19808TIP3    H180915   0.322   1.779   1.481 -0.3535 -1.7572 -2.1742
19808TIP3    H280916   0.455   1.743   1.416  1.8419  0.8611  0.5758
19809TIP3   OH280917   1.677   2.805   2.515  0.2805 -0.3397  0.5631
19809TIP3    H180918   1.694   2.893   2.480  1.1490 -0.6011  0.2967
19809TIP3    H280919   1.609   2.770   2.458  0.6825 -0.2262 -0.0047
19810TIP3   OH280920   0.217   6.089   5.569  0.7655  0.2279  0.4938
19810TIP3    H180921   0.149   6.065   5.633  1.3011  2.5275  2.0267
19810TIP3    H280922   0.181   6.164   5.523  1.3582  0.0331 -0.2951
19811TIP3   OH280923   0.607   1.845  17.198 -0.1016  0.0132 -0.0187
19811TIP3    H180924   0.680   1.796  17.234  0.1688 -0.0917 -0.6935
19811TIP3    H280925   0.595   1.810  17.110 -1.5612 -0.6155  0.4012
19812TIP3   OH280926   6.124   5.198   2.851 -1.0213  0.1337  0.1500
19812TIP3    H180927   6.195   5.254   2.882 -1.5364  0.4345  0.8103
19812TIP3    H280928   6.165   5.141   2.786 -0.4327  1.0987 -0.3509
19813TIP3   OH280929   3.595   0.401   1.687  0.7471 -0.0744  0.1603
19813TIP3    H180930   3.667   0.446   1.643  1.1302 -1.2107 -0.3979
19813TIP3    H280931   3.516   0.436   1.646  1.0687 -0.4451 -0.7836
19814TIP3   OH280932   3.536   2.968   6.453  0.3208  0.1288  0.3744
19814TIP3    H180933   3.590   3.046   6.466  0.2427  0.5576 -1.5868
19814TIP3    H280934   3.519   2.966   6.359 -1.8343 -0.8317  0.7224
19815TIP3   OH280935   3.760   2.385   1.441  0.5998  0.2786  0.1509
19815TIP3    H180936   3.666   2.372   1.428  0.7131 -0.4507  0.0247
19815TIP3    H280937   3.798   2.299   1.427  1.2342  0.4539  0.7497
19816TIP3   OH280938   6.353   2.909  15.520 -0.1539 -0.3943 -0.1401
19816TIP3    H180939   6.270   2.861  15.513 -0.3338 -0.3565  1.3154
19816TIP3    H280940   6.358   2.932  15.613  0.1852  1.9233 -0.6787
19817TIP3   OH280941   1.032   4.086  16.900  0.2985 -0.6850 -0.4099
19817TIP3    H180942   1.101   4.052  16.842 -1.5461 -2.7550 -1.5582
19817TIP3    H280943   1.046   4.041  16.983  0.5213 -0.8659 -0.5445
19818TIP3   OH280944   2.860   5.607  14.037 -0.3711 -0.6171 -0.3115
19818TIP3    H180945   2.937   5.552  14.022 -0.2745 -0.0793 -2.0539
19818TIP3    H280946   2.869   5.636  14.128 -0.0366 -2.8279  0.4166
19819TIP3   OH280947   1.935   1.402   6.478  0.2973  0.5509 -0.8628
19819TIP3    H180948   2.003   1.335   6.478  0.0990  0.3040  1.1159
19819TIP3    H280949   1.856   1.356   6.452  0.4499  0.3480 -0.9663
19820TIP3   OH280950   6.281   3.349   3.802  0.5542 -0.0545 -0.4295
19820TIP3    H180951   6.236   3.270   3.832  0.7415 -0.0134 -0.0311
19820TIP3    H280952   6.343   3.318   3.736 -0.8150  0.0282 -1.7985
19821TIP3   OH280953   2.655   6.704   3.809 -0.5109 -0.0655 -0.3505
19821TIP3    H180954   2.676   6.790   3.845  1.3477 -1.0636  1.1826
19821TIP3    H280955   2.689   6.706   3.719 -0.1158  0.6867 -0.1964
19822TIP3   OH280956   1.956   4.469  12.902  0.2905 -0.0562  0.2795
19822TIP3    H180957   1.986   4.386  12.939  0.0542  1.1449  3.4781
19822TIP3    H280958   2.015   4.535  12.938 -0.6490  1.3740 -0.6694
19823TIP3   OH280959   4.798   2.972  13.316  0.0564 -0.1127 -0.2517
19823TIP3    H180960   4.849   2.919  13.256 -0.0420  1.6469 -1.9982
19823TIP3    H280961   4.817   3.062  13.291 -0.7406  0.6883  1.7617
19824TIP3   OH280962   4.407   4.554  16.203 -0.6499  0.3635 -0.6007
19824TIP3    H180963   4.456   4.573  16.122 -0.1834 -0.5814 -0.5589
19824TIP3    H280964   4.315   4.566  16.178 -0.4358  1.7397 -0.7999
19825TIP3   OH280965   2.106   1.297   2.169  0.5951  0.1706  0.3172
19825TIP3    H180966   2.076   1.382   2.201 -1.2837 -0.9429  1.7111
19825TIP3    H280967   2.083   1.298   2.076  0.2255  1.0202  0.4010
19826TIP3   OH280968   5.620   0.682   1.865  0.1382  0.1268  0.1174
19826TIP3    H180969   5.657   0.752   1.810 -1.1050 -0.3580 -1.4255
19826TIP3    H280970   5.658   0.602   1.830 -0.8637 -0.2088 -0.2655
19827TIP3   OH280971   3.082   5.770  14.684 -0.2840  0.1445  0.0545
19827TIP3    H180972   3.108   5.732  14.768  0.8484  2.9552  1.1126
19827TIP3    H280973   2.998   5.730  14.664 -0.5749 -0.6254  2.5174
19828TIP3   OH280974   5.352   4.665  11.284 -0.6685  0.0706 -0.1253
19828TIP3    H180975   5.411   4.732  11.249  0.1766 -0.9826 -0.7922
19828TIP3    H280976   5.381   4.652  11.374 -0.5552  0.2848 -0.1301
19829TIP3   OH280977   4.118   1.710   4.192  0.4756  0.0202 -0.0860
19829TIP3    H180978   4.193   1.665   4.153 -0.3211 -1.3729 -0.0933
19829TIP3    H280979   4.138   1.713   4.286  1.0778  0.7454 -0.2347
19830TIP3   OH280980   3.418   5.873  11.780 -0.0140 -0.2722  0.6346
19830TIP3    H180981   3.405   5.859  11.686 -1.6790 -0.5898  0.8882
19830TIP3    H280982   3.438   5.966  11.787  1.8785 -0.5651 -0.1724
19831TIP3   OH280983   4.500   3.573   3.205  0.5350  0.8798  0.0422
19831TIP3    H180984   4.577   3.630   3.205  0.9704  0.3075  0.9175
19831TIP3    H280985   4.451   3.599   3.283 -0.2391  1.3308 -0.5853
19832TIP3   OH280986   0.151   0.919   2.767 -0.0333 -0.5167  0.3077
19832TIP3    H180987   0.208   0.995   2.779 -0.1519 -0.4811  0.6681
19832TIP3    H280988   0.063   0.954   2.776 -0.0717 -0.8292  1.2956
19833TIP3   OH280989   1.928   4.324  13.676 -0.2332  0.0624  0.1851
19833TIP3    H180990   1.847   4.281  13.701  0.0696 -0.9153 -0.4859
19833TIP3    H280991   1.948   4.292  13.588  0.9147  0.2314  0.3561
19834TIP3   OH280992   4.089   5.064   5.472 -0.3390  0.6880  0.1949
19834TIP3    H180993   4.005   5.035   5.509  0.0132 -0.5837  0.0529
19834TIP3    H280994   4.118   5.135   5.530 -0.1012 -0.8237  2.0331
19835TIP3   OH280995   4.174   5.116  12.349  0.0240 -0.1591  0.0688
19835TIP3    H180996   4.209   5.064  12.421  1.2372  0.1372 -0.2823
19835TIP3    H280997   4.186   5.062  12.271  0.7029  0.3788 -0.2078
19836TIP3   OH280998   1.217   6.365  16.255  0.2977  0.1188 -0.3909
19836TIP3    H180999   1.141   6.390  16.203  0.7718  1.0649 -0.6517
19836TIP3    H281000   1.292   6.379  16.197  0.6908 -0.6950 -0.0981
19837TIP3   OH281001   5.267   5.540  16.878  0.8374 -0.8765  0.4108
19837TIP3    H181002   5.281   5.557  16.784 -0.1150 -0.2415  0.3594
19837TIP3    H281003   5.353   5.515  16.911  1.4781  0.1973 -0.3687
19838TIP3   OH281004   0.527   5.055  11.846  0.0066 -0.2409 -0.0711
19838TIP3    H181005   0.559   4.968  11.819 -0.2611 -0.6463  0.8711
19838TIP3    H281006   0.449   5.036  11.897  0.2893  0.5243  0.6532
19839TIP3   OH281007   4.314   0.512   2.248  0.4481  0.8066  0.5300
19839TIP3    H181008   4.334   0.420   2.263 -0.7859  0.7452  1.9237
19839TIP3    H281009   4.399   0.552   2.229  0.9424 -0.6775 -0.6029
19840TIP3   OH281010   4.382   3.978  14.010  0.0392 -0.1972  0.4856
19840TIP3    H181011   4.441   3.903  14.002 -1.1069 -0.9102 -3.0991
19840TIP3    H281012   4.295   3.940  14.018 -0.4764  0.7189 -0.4498
19841TIP3   OH281013   3.708   1.620   0.892  0.6833 -0.8288 -0.6978
19841TIP3    H181014   3.642   1.674   0.936  1.3029 -1.8252  1.6469
19841TIP3    H281015   3.667   1.592   0.811 -1.6147 -1.0406  0.4670
19842TIP3   OH281016   1.922   3.392   6.340  0.2240  0.4028 -0.0153
19842TIP3    H181017   1.908   3.394   6.435  0.1912  0.4487 -0.0212
19842TIP3    H281018   1.834   3.393   6.303  0.2499  1.5393 -0.0693
19843TIP3   OH281019   6.796   0.400  11.485 -0.3460 -0.1091 -0.5013
19843TIP3    H181020   6.776   0.320  11.437  0.4757  0.2920 -1.5496
19843TIP3    H281021   6.863   0.374  11.548 -0.1447 -0.2765 -0.7801
19844TIP3   OH281022   1.435   2.489   3.152 -0.4922  0.2841 -0.1399
19844TIP3    H181023   1.400   2.567   3.109 -2.7865  0.2941  1.5256
19844TIP3    H281024   1.501   2.456   3.092 -1.3536  1.9890 -2.1569
19845TIP3   OH281025   3.999   6.030  11.781  0.0576  0.1731  0.2308
19845TIP3    H181026   3.957   6.112  11.755  1.0885  0.7202  0.2575
19845TIP3    H281027   3.936   5.988  11.841 -1.1669  0.1786 -0.9960
19846TIP3   OH281028   3.873   4.199  16.566  0.8469  0.4981 -0.1283
19846TIP3    H181029   3.880   4.250  16.486  2.3840  0.5448 -0.0012
19846TIP3    H281030   3.887   4.262  16.636 -0.8412  0.5246  0.2312
19847TIP3   OH281031   3.353   3.657  15.279 -0.5235  0.0886  0.1961
19847TIP3    H181032   3.427   3.607  15.245  0.0704  0.9095  0.2428
19847TIP3    H281033   3.307   3.596  15.337 -0.1595 -0.5715 -0.1936
19848TIP3   OH281034   4.237   0.402  11.918  0.1981 -0.4987 -0.5197
19848TIP3    H181035   4.196   0.380  11.834  2.2091 -0.0170 -1.6985
19848TIP3    H281036   4.199   0.486  11.942 -1.5472 -1.3579 -0.1005
19849TIP3   OH281037   4.347   2.089  16.388  0.0397 -0.3957  0.0094
19849TIP3    H181038   4.298   2.077  16.306  0.3525  1.2110 -0.4357
19849TIP3    H281039   4.436   2.062  16.367  0.3844  1.0685 -0.5434
19850TIP3   OH281040   3.898   3.656  11.816 -0.2500 -0.5249  0.1067
19850TIP3    H181041   3.838   3.627  11.885 -0.3203 -0.7289 -0.0398
19850TIP3    H281042   3.975   3.600  11.827 -0.8498 -1.5771 -0.9190
19851TIP3   OH281043   6.610   4.799   0.760  0.1785 -0.1024 -0.3819
19851TIP3    H181044   6.638   4.707   0.755  0.6526 -0.4475  4.0517
19851TIP3    H281045   6.516   4.794   0.777 -0.1578  0.3924 -1.9683
19852TIP3   OH281046   5.713   3.531  13.179 -0.3572 -0.0787  0.2602
19852TIP3    H181047   5.710   3.438  13.159 -2.2331  0.3944 -2.2967
19852TIP3    H281048   5.805   3.555  13.171  0.1303 -1.6596  0.8187
19853TIP3   OH281049   1.642   0.346   1.886 -0.3479 -0.0995  0.0970
19853TIP3    H181050   1.661   0.439   1.875  0.9225 -0.0817  2.0634
19853TIP3    H281051   1.671   0.325   1.974 -0.9509 -2.3014 -0.1592
19854TIP3   OH281052   2.367   1.217  15.295 -0.2027  0.3290 -0.1015
19854TIP3    H181053   2.432   1.231  15.364  0.2708  1.9554 -0.8387
19854TIP3    H281054   2.413   1.163  15.230 -0.7468 -1.4637  0.9331
19855TIP3   OH281055   6.348   3.873  16.314 -0.1790 -0.2982  0.0186
19855TIP3    H181056   6.322   3.876  16.406 -0.2924 -1.1954  0.0279
19855TIP3    H281057   6.435   3.833  16.315 -0.1667 -0.2811 -0.2622
19856TIP3   OH281058   6.208   0.457  12.889  0.3330  0.1216 -0.0520
19856TIP3    H181059   6.290   0.495  12.921 -0.1632  0.7764  0.4915
19856TIP3    H281060   6.150   0.459  12.966 -0.4330  0.3915 -0.6271
19857TIP3   OH281061   2.564   4.603   5.223 -0.0741 -0.7456 -0.6147
19857TIP3    H181062   2.549   4.673   5.159 -0.2805 -0.8644 -0.6962
19857TIP3    H281063   2.645   4.561   5.195 -1.5480 -2.5905 -2.4360
19858TIP3   OH281064   6.370   3.743   0.895  0.0585  0.1544  0.0548
19858TIP3    H181065   6.439   3.809   0.895  1.7051 -1.4587  1.0297
19858TIP3    H281066   6.347   3.732   0.987 -1.3449  0.4622 -0.2333
19859TIP3   OH281067   6.199   1.828   0.037 -0.2625  0.1768  0.6890
19859TIP3    H181068   6.255   1.785  -0.028  0.6436  1.7815  0.3457
19859TIP3    H281069   6.166   1.757   0.092  0.3641 -1.0324 -0.4531
19860TIP3   OH281070   0.676   5.244  12.168  0.1477 -0.4931 -0.0410
19860TIP3    H181071   0.748   5.184  12.146 -0.3867 -1.5116  0.9493
19860TIP3    H281072   0.661   5.231  12.261 -0.3933  0.7541  0.0641
19861TIP3   OH281073   3.839   0.854   3.812 -0.3604 -0.7883 -0.1757
19861TIP3    H181074   3.807   0.913   3.744 -1.8030 -0.8017  0.4567
19861TIP3    H281075   3.840   0.907   3.892  1.0793 -0.8437 -0.1228
19862TIP3   OH281076   4.894   0.034  16.248  0.2271  0.2081 -0.0556
19862TIP3    H181077   4.855  -0.049  16.275  0.5024  0.2827  0.5833
19862TIP3    H281078   4.961   0.052  16.313  2.0538 -0.4028 -1.6737
19863TIP3   OH281079   2.390   2.225   4.105 -0.1147 -0.0183 -0.1291
19863TIP3    H181080   2.462   2.283   4.130 -0.1028 -0.5355  1.1436
19863TIP3    H281081   2.416   2.139   4.139 -0.4956 -0.6070 -1.2791
19864TIP3   OH281082   5.712   1.208   4.278  0.1116 -0.5376  0.0911
19864TIP3    H181083   5.793   1.213   4.328 -0.0405 -0.6859  0.3557
19864TIP3    H281084   5.735   1.239   4.190  0.4083 -0.4010  0.2196
19865TIP3   OH281085   6.303   1.059   2.416  0.1947 -0.4184  0.4437
19865TIP3    H181086   6.290   1.152   2.398 -0.3238 -0.5712  0.0128
19865TIP3    H281087   6.375   1.057   2.480  0.3823  0.2595  0.2617
19866TIP3   OH281088   6.230   5.448  12.428  0.8681 -0.4263 -0.3722
19866TIP3    H181089   6.292   5.498  12.481 -0.4378  1.7244 -0.7352
19866TIP3    H281090   6.167   5.413  12.491  0.4710  0.3861 -0.3130
19867TIP3   OH281091   5.151   3.511   5.846 -0.0738  0.5646 -0.6089
19867TIP3    H181092   5.189   3.588   5.802 -1.2856  0.5952 -1.6602
19867TIP3    H281093   5.059   3.511   5.819 -0.9449  0.6570  2.0744
19868TIP3   OH281094   4.333   5.626  12.082 -0.0693 -0.1183 -0.1807
19868TIP3    H181095   4.367   5.635  11.992 -1.0106  0.3987 -0.4935
19868TIP3    H281096   4.359   5.707  12.125 -1.9584  0.8746 -0.7965
19869TIP3   OH281097   1.496   2.113   5.389 -0.2786 -0.1708 -0.5689
19869TIP3    H181098   1.403   2.115   5.411 -0.4622 -0.8854 -1.2624
19869TIP3    H281099   1.536   2.176   5.450 -1.0749 -0.5429  0.3599
19870TIP3   OH281100   1.720   1.978   0.630  0.0371 -0.0405 -0.3716
19870TIP3    H181101   1.709   1.885   0.652  1.4443 -0.6945 -2.1416
19870TIP3    H281102   1.694   1.984   0.538 -0.8919  1.5343 -0.0480
19871TIP3   OH281103   2.877   2.729   0.221  0.2667 -0.0549 -0.1324
19871TIP3    H181104   2.837   2.816   0.213 -0.1220 -0.2178  0.0435
19871TIP3    H281105   2.935   2.736   0.297 -0.0423 -0.0537  0.1064
19872TIP3   OH281106   0.061   2.337   0.506  0.2511 -0.0276 -0.7170
19872TIP3    H181107   0.049   2.402   0.575  1.9371 -0.9086  0.4906
19872TIP3    H281108  -0.026   2.300   0.492 -0.3829  1.1762 -0.1157
19873TIP3   OH281109   6.766   1.890  12.557  0.2766 -0.4371 -0.2917
19873TIP3    H181110   6.788   1.966  12.611 -0.2225 -0.6236  0.1855
19873TIP3    H281111   6.777   1.815  12.616  0.8709 -0.7505 -0.7887
19874TIP3   OH281112   6.175   6.149  12.194  0.5629  0.0541  0.3993
19874TIP3    H181113   6.102   6.132  12.134  1.1943  0.1453 -0.4207
19874TIP3    H281114   6.162   6.240  12.221 -0.5769 -0.4299  1.6393
19875TIP3   OH281115   1.634   1.531   3.205 -0.1190 -0.2180  0.0627
19875TIP3    H181116   1.564   1.547   3.268  0.6912 -0.3842  1.0366
19875TIP3    H281117   1.656   1.618   3.172 -0.9720 -0.1963 -0.4689
19876TIP3   OH281118   1.970   4.734   0.239  0.0145 -0.3345  0.2495
19876TIP3    H181119   1.946   4.816   0.283  1.4362 -0.0063  0.4875
19876TIP3    H281120   2.055   4.712   0.276  0.3338 -1.1189 -0.9038
19877TIP3   OH281121   1.901   3.933  14.342  0.0939  0.1695 -0.2807
19877TIP3    H181122   1.929   3.940  14.433 -1.2264  0.7675  0.0999
19877TIP3    H281123   1.861   3.846  14.335  1.4143 -0.4398 -0.6723
19878TIP3   OH281124   4.912   6.359   0.820 -0.6390  0.5973 -0.0147
19878TIP3    H181125   4.972   6.301   0.867 -1.1721 -1.0008 -1.1912
19878TIP3    H281126   4.954   6.373   0.735 -1.0630  1.0113 -0.1598
19879TIP3   OH281127   6.374   2.918  14.235 -0.4388 -0.1122 -0.0164
19879TIP3    H181128   6.280   2.900  14.233 -0.1380 -2.0230 -3.1279
19879TIP3    H281129   6.380   3.013  14.244 -2.6593  0.0796 -0.1339
19880TIP3   OH281130   3.631   2.784  15.486 -0.3627 -0.3035  0.3483
19880TIP3    H181131   3.725   2.771  15.497 -0.3817  0.0731  1.0099
19880TIP3    H281132   3.623   2.841  15.410 -0.2103 -2.7449 -1.6384
19881TIP3   OH281133   4.440   1.047   3.400  0.1921 -0.3824  0.3406
19881TIP3    H181134   4.362   1.005   3.364  1.3616 -0.1856 -2.7448
19881TIP3    H281135   4.498   0.975   3.424  0.0568 -0.5187  0.2576
19882TIP3   OH281136   1.360   4.024   3.803 -0.1825 -0.3952 -0.7157
19882TIP3    H181137   1.359   3.950   3.743 -2.2409 -1.3364  0.3790
19882TIP3    H281138   1.356   4.101   3.747  1.8224 -1.0748 -1.8687
19883TIP3   OH281139   1.959   4.838  15.285  0.2661  0.3882 -0.5485
19883TIP3    H181140   1.911   4.913  15.319 -0.2114 -0.3110  0.3989
19883TIP3    H281141   1.904   4.763  15.308  1.4319 -0.3730 -0.1410
19884TIP3   OH281142   3.858   6.349  16.085  0.2208  0.1544  0.2908
19884TIP3    H181143   3.877   6.257  16.104 -0.2500  0.3161  1.7167
19884TIP3    H281144   3.776   6.366  16.132  2.2580  2.3076  3.4282
19885TIP3   OH281145   6.025   3.202  14.696  0.0136  0.6773  0.8211
19885TIP3    H181146   6.090   3.137  14.722 -0.8202 -0.1002  1.0034
19885TIP3    H281147   5.997   3.243  14.777 -1.4288 -0.6429  1.0297
19886TIP3   OH281148   4.651   3.001   2.356  0.4933  0.3873 -0.0769
19886TIP3    H181149   4.639   2.951   2.276  2.9279  0.2951 -0.4689
19886TIP3    H281150   4.745   2.996   2.374  0.1353  0.9962  2.4116
19887TIP3   OH281151   2.226   4.255   2.830 -0.4791 -0.1877 -0.5012
19887TIP3    H181152   2.213   4.325   2.893  0.1214 -0.4472 -0.0803
19887TIP3    H281153   2.157   4.268   2.765 -1.0579  0.1291  0.1661
19888TIP3   OH281154   5.038   5.401   1.202 -0.6096  0.4632 -0.1651
19888TIP3    H181155   5.048   5.317   1.157 -1.9219 -0.8256  1.8080
19888TIP3    H281156   5.102   5.458   1.159  0.3231 -1.5053 -1.5926
19889TIP3   OH281157   2.004   2.955  15.361 -0.2223 -0.3807  0.2056
19889TIP3    H181158   2.086   2.925  15.400 -0.2628 -0.5967  0.1230
19889TIP3    H281159   2.028   2.985  15.273 -0.0413  0.5778  0.5701
19890TIP3   OH281160   1.493   2.458  16.554  0.4616 -0.7286  0.1940
19890TIP3    H181161   1.474   2.372  16.592 -2.8657  0.1384  0.7934
19890TIP3    H281162   1.559   2.496  16.612  1.6354 -2.6080  0.1960
19891TIP3   OH281163   1.517   1.197   3.998 -0.3211  0.5442  0.2878
19891TIP3    H181164   1.504   1.132   3.929 -0.7257  0.8680  0.0540
19891TIP3    H281165   1.551   1.147   4.072 -0.9577  0.0021  0.2280
19892TIP3   OH281166   3.811   2.327  15.285  0.2081 -0.2427 -0.6139
19892TIP3    H181167   3.858   2.391  15.231 -0.3628 -0.5389 -1.4974
19892TIP3    H281168   3.734   2.374  15.316  1.1050  0.2752  0.9211
19893TIP3   OH281169   3.225   6.602   4.631 -0.2893  0.2354 -0.4380
19893TIP3    H181170   3.300   6.662   4.633 -1.0331  1.2357 -1.2178
19893TIP3    H281171   3.164   6.640   4.694 -0.5795  0.0281 -0.5963
19894TIP3   OH281172   4.913   5.051  14.815 -0.4814 -0.1874  0.4165
19894TIP3    H181173   4.895   5.008  14.899  2.0018 -3.0812 -0.3481
19894TIP3    H281174   4.985   5.111  14.834  0.5971 -1.3973  0.2953
19895TIP3   OH281175   4.815   5.900   5.519  0.8122 -0.0850  0.1426
19895TIP3    H181176   4.804   5.965   5.450 -2.2408 -1.0272 -0.3948
19895TIP3    H281177   4.800   5.816   5.476  0.1857 -0.7995  1.6840
19896TIP3   OH281178   1.120   4.292   1.420 -0.4121  0.3514  0.6115
19896TIP3    H181179   1.174   4.368   1.443  1.0299 -0.2061 -0.7843
19896TIP3    H281180   1.076   4.317   1.339  0.0319 -0.2699  0.1691
19897TIP3   OH281181   4.159   5.744  15.523  0.3724 -0.5356 -0.2113
19897TIP3    H181182   4.206   5.827  15.515  0.2469 -0.4239  0.1789
19897TIP3    H281183   4.225   5.677  15.508  0.8483 -0.4028  1.1403
19898TIP3   OH281184   2.114   2.649   0.806  0.3429 -0.4858  0.4534
19898TIP3    H181185   2.145   2.696   0.729 -0.4699 -1.2096 -0.3466
19898TIP3    H281186   2.122   2.711   0.878 -0.2195  0.6951 -0.4766
19899TIP3   OH281187   5.725   2.112   3.443  0.0266 -0.6673  0.4347
19899TIP3    H181188   5.734   2.207   3.450  0.9322 -0.8093  1.3196
19899TIP3    H281189   5.649   2.100   3.385  0.6894  0.5872 -0.7543
19900TIP3   OH281190   0.323   4.827  17.141 -0.2858  0.5280 -0.1260
19900TIP3    H181191   0.262   4.761  17.107  0.2808  0.6311 -1.3774
19900TIP3    H281192   0.278   4.910  17.128  0.5557  0.7129 -2.1353
19901TIP3   OH281193   5.093   2.023   0.123  0.5529 -0.0416 -0.0214
19901TIP3    H181194   5.188   2.027   0.111  0.6804  0.9108  1.1532
19901TIP3    H281195   5.057   2.055   0.040  1.3251  1.8215  0.3061
19902TIP3   OH281196   5.962   6.573   1.504 -0.3867  0.0342 -0.6180
19902TIP3    H181197   5.993   6.509   1.440  1.3617 -0.0544  0.2513
19902TIP3    H281198   5.907   6.522   1.564  0.1552 -0.4465 -0.5198
19903TIP3   OH281199   4.775   6.647   2.887  0.2127  0.6221  0.0822
19903TIP3    H181200   4.839   6.715   2.866 -0.9593  1.4928 -0.8723
19903TIP3    H281201   4.692   6.695   2.895 -0.5840 -0.6594 -0.2633
19904TIP3   OH281202   2.944   6.723   1.859  0.3251 -0.1581 -0.4767
19904TIP3    H181203   2.943   6.782   1.934 -0.1455  1.1550 -1.4887
19904TIP3    H281204   2.887   6.651   1.885  0.1311  0.2988  0.4040
19905TIP3   OH281205   0.129   4.327  14.870  0.7213 -0.1239  0.3339
19905TIP3    H181206   0.061   4.347  14.806  0.8362  1.6876  0.7267
19905TIP3    H281207   0.083   4.318  14.953  0.6248 -2.0490  0.1153
19906TIP3   OH281208   5.204   0.723   4.064 -0.2726  0.1678  0.2423
19906TIP3    H181209   5.242   0.755   3.982 -1.2753 -0.6609 -0.5578
19906TIP3    H281210   5.219   0.795   4.126  1.4416  0.3788 -0.3648
19907TIP3   OH281211   2.091   0.306  13.188 -0.5550  0.4740  0.5496
19907TIP3    H181212   2.066   0.341  13.273  0.7283  1.3800  0.5817
19907TIP3    H281213   2.175   0.264  13.203 -0.6824 -0.0423 -0.1236
19908TIP3   OH281214   1.263   5.853  12.353  0.0015 -0.0807 -0.2568
19908TIP3    H181215   1.229   5.815  12.434  2.8342 -1.4355  0.4597
19908TIP3    H281216   1.291   5.941  12.378 -1.9198  0.6535 -0.5950
19909TIP3   OH281217   6.732   6.026  17.122  0.7018  0.2870 -0.8395
19909TIP3    H181218   6.749   5.946  17.171 -1.6773  0.5883  0.6240
19909TIP3    H281219   6.810   6.080  17.135  1.6988 -1.1702 -0.5931
19910TIP3   OH281220   1.132   4.407  16.104 -0.2188  0.1680 -0.0124
19910TIP3    H181221   1.161   4.477  16.163 -1.7412 -0.2358  1.3035
19910TIP3    H281222   1.038   4.425  16.091 -0.3988 -1.0434 -0.4821
19911TIP3   OH281223   5.575   3.714  13.005 -0.4802 -0.4461  1.0756
19911TIP3    H181224   5.646   3.771  12.975 -1.5610  0.5552  0.3062
19911TIP3    H281225   5.619   3.637  13.040  0.9628 -0.2754 -0.2374
19912TIP3   OH281226   5.166   1.685   0.889  0.0243  0.5554 -0.1650
19912TIP3    H181227   5.135   1.755   0.833 -0.9012 -0.0230 -0.3855
19912TIP3    H281228   5.184   1.612   0.829  0.6150  0.4728  0.1037
19913TIP3   OH281229   6.618   6.596  15.573  0.6244  0.3736  0.1716
19913TIP3    H181230   6.644   6.633  15.657 -0.2530 -1.6878  1.4106
19913TIP3    H281231   6.524   6.613  15.568  0.9476  2.1492 -1.3462
19914TIP3   OH281232   2.554   6.601   1.742 -0.4702 -0.4012  0.4468
19914TIP3    H181233   2.493   6.584   1.670 -0.2852  1.1762 -0.1264
19914TIP3    H281234   2.641   6.587   1.703 -0.3821  0.0443  0.4858
19915TIP3   OH281235   2.727   2.989   6.611 -0.1719  0.3711 -0.0723
19915TIP3    H181236   2.756   2.921   6.672 -0.0545 -0.4108 -0.9728
19915TIP3    H281237   2.638   2.963   6.587 -0.1636  0.5893 -0.3466
19916TIP3   OH281238   0.995   2.897   3.557  0.0740  0.3272 -0.6300
19916TIP3    H181239   0.917   2.913   3.610  0.8512 -1.2782  1.1008
19916TIP3    H281240   1.017   2.806   3.573  1.8096  0.5018 -1.7682
19917TIP3   OH281241   3.268   4.561  11.695  0.3186 -0.2586 -0.0315
19917TIP3    H181242   3.329   4.626  11.729  0.6572 -0.2736 -0.5885
19917TIP3    H281243   3.311   4.527  11.616  0.1305 -1.1275  0.2242
19918TIP3   OH281244   3.200   0.741   4.178  0.2539 -0.0404 -0.1903
19918TIP3    H181245   3.137   0.806   4.207  1.9696  1.0166  1.3929
19918TIP3    H281246   3.197   0.672   4.245  2.5244  1.2758  1.4491
19919TIP3   OH281247   5.636   4.239  17.031  0.0208  0.1179 -0.0306
19919TIP3    H181248   5.684   4.238  17.113  0.6950  2.9631 -0.3012
19919TIP3    H281249   5.702   4.222  16.964 -0.2668 -0.6945 -0.1291
19920TIP3   OH281250   6.128   1.008  16.989  0.6639 -0.0690 -0.0501
19920TIP3    H181251   6.090   1.071  17.050 -0.3165 -2.5140  2.0784
19920TIP3    H281252   6.075   1.015  16.910 -1.8027 -0.6253  1.4375
19921TIP3   OH281253   6.717   2.763  16.930  0.1682  0.2663 -0.0253
19921TIP3    H181254   6.635   2.794  16.892  0.2278 -0.7951 -1.0609
19921TIP3    H281255   6.785   2.813  16.884  0.1695  0.0275 -0.2865
19922TIP3   OH281256   2.511   1.399  13.505 -0.1119  0.3324 -0.2194
19922TIP3    H181257   2.450   1.453  13.555  1.0014 -0.3044  1.9920
19922TIP3    H281258   2.591   1.451  13.500  0.1225 -0.0381 -0.3976
19923TIP3   OH281259   4.330   6.471   4.337 -0.1791  0.7491 -0.5835
19923TIP3    H181260   4.303   6.558   4.308  0.8513  1.3269  0.1305
19923TIP3    H281261   4.418   6.460   4.302 -0.7741 -0.5519 -1.7577
19924TIP3   OH281262   5.232   2.304  11.930  0.0107  0.0676  0.0411
19924TIP3    H181263   5.197   2.393  11.921 -0.2182  0.3663  2.9575
19924TIP3    H281264   5.202   2.258  11.852  0.2136  2.5483 -1.6018
19925TIP3   OH281265   0.593   4.661  13.079  0.4347  0.8185  0.0097
19925TIP3    H181266   0.615   4.683  13.170  0.4678  1.0409 -0.0511
19925TIP3    H281267   0.625   4.571  13.067  0.9743  1.0053  0.0347
19926TIP3   OH281268   2.214   5.478   0.221  0.3271  0.0279 -0.1174
19926TIP3    H181269   2.201   5.550   0.159  1.6330  0.7276  0.3807
19926TIP3    H281270   2.158   5.501   0.295 -0.2462 -0.1399 -0.4941
19927TIP3   OH281271   4.021   2.308   1.025  0.7664  0.0249  0.2417
19927TIP3    H181272   3.925   2.306   1.027  0.7685 -0.3974  0.0488
19927TIP3    H281273   4.047   2.250   1.097  0.8814  0.8921  0.9051
19928TIP3   OH281274   4.328   6.622  11.272  0.5030  0.4568  0.3445
19928TIP3    H181275   4.315   6.528  11.287 -1.3969  0.8452  1.3456
19928TIP3    H281276   4.378   6.626  11.190  0.4910 -1.4114  0.1979
19929TIP3   OH281277   2.209   6.510   0.343 -0.0527  0.3182 -0.1565
19929TIP3    H181278   2.233   6.497   0.435 -1.1155 -0.8655 -0.0192
19929TIP3    H281279   2.120   6.476   0.337  0.6705 -1.4652 -2.0358
19930TIP3   OH281280   5.463   5.634   0.639  0.4068  0.3393  0.2512
19930TIP3    H181281   5.444   5.681   0.721 -0.4131  0.1451  0.1814
19930TIP3    H281282   5.478   5.544   0.666  0.9305  0.4309  0.2708
19931TIP3   OH281283   5.552   3.054  16.652  0.2155  0.1759 -0.4227
19931TIP3    H181284   5.526   3.024  16.565  2.0267 -0.3741 -0.8118
19931TIP3    H281285   5.524   3.145  16.655  0.6460  0.3746 -1.8184
19932TIP3   OH281286   4.097   0.606  15.131 -0.2357  0.2223  0.0397
19932TIP3    H181287   4.026   0.544  15.147 -0.5199 -0.4539 -3.0652
19932TIP3    H281288   4.062   0.665  15.063  1.8700  0.3329 -1.0401
19933TIP3   OH281289   6.558   6.413  14.131  0.1157 -0.3352  0.4009
19933TIP3    H181290   6.535   6.373  14.215 -2.3132 -2.4593 -1.1226
19933TIP3    H281291   6.562   6.340  14.070 -0.0491  1.3311 -1.7130
19934TIP3   OH281292   0.595   4.578  11.110  0.3419  0.2102  0.3214
19934TIP3    H181293   0.572   4.523  11.036 -0.9655  0.9471  0.1506
19934TIP3    H281294   0.653   4.524  11.164  1.8622 -0.1143 -1.5431
19935TIP3   OH281295   2.774   0.243   5.812 -0.3353 -0.3997 -0.2166
19935TIP3    H181296   2.828   0.266   5.887 -0.3492 -0.5006 -0.1747
19935TIP3    H281297   2.690   0.217   5.850 -0.1031 -1.1753 -0.2057
19936TIP3   OH281298   6.085   0.843   4.371 -0.0218 -1.0694  0.5496
19936TIP3    H181299   6.134   0.817   4.293 -0.2617 -1.5011  0.5408
19936TIP3    H281300   6.140   0.817   4.444  1.3888  1.5664  0.5521
19937TIP3   OH281301   1.861   1.908  16.531 -0.0544  0.0305 -0.0238
19937TIP3    H181302   1.886   1.983  16.586 -2.5406  2.8078 -2.3605
19937TIP3    H281303   1.889   1.933  16.443 -0.0671 -2.2978 -0.7342
19938TIP3   OH281304   4.882   0.704   1.104  0.4995  0.3883  0.5564
19938TIP3    H181305   4.965   0.751   1.108  1.9525 -2.0217  0.9152
19938TIP3    H281306   4.881   0.650   1.183  0.1978 -2.0813 -1.0290
19939TIP3   OH281307   1.307   6.314  14.834  0.1534 -0.1064  0.3267
19939TIP3    H181308   1.377   6.366  14.873 -0.6402  0.5475  0.9055
19939TIP3    H281309   1.260   6.375  14.777 -0.4632 -0.3179  0.6006
19940TIP3   OH281310   2.325   2.893  14.868 -0.1827 -0.0256  0.0609
19940TIP3    H181311   2.281   2.871  14.950 -2.1170  0.2961 -0.8532
19940TIP3    H281312   2.326   2.989  14.867 -0.3752 -0.0293 -0.3988
19941TIP3   OH281313   2.944   4.324   4.350  0.0699 -0.3691 -0.0376
19941TIP3    H181314   2.932   4.236   4.385 -0.5007 -0.7916 -1.2208
19941TIP3    H281315   3.032   4.324   4.314  0.2529 -0.2866  0.4020
19942TIP3   OH281316   2.042   5.364  11.192  0.0560 -0.0377  0.5077
19942TIP3    H181317   1.990   5.413  11.128  0.1666  0.0745  0.5029
19942TIP3    H281318   2.004   5.387  11.276  1.1930  1.4149  0.6517
19943TIP3   OH281319   4.012   1.144   0.528 -0.0173 -0.3787 -0.1818
19943TIP3    H181320   3.935   1.138   0.584 -1.2052 -0.0759 -1.7121
19943TIP3    H281321   4.070   1.075   0.560 -0.1809  0.4173  2.0349
19944TIP3   OH281322   1.384   1.757  11.023 -0.1152 -0.0015 -0.0156
19944TIP3    H181323   1.326   1.683  11.004  2.4473 -1.3158 -3.9733
19944TIP3    H281324   1.468   1.717  11.045  1.1050  1.6245 -1.4046
19945TIP3   OH281325   3.191   3.530   4.424 -0.3452  0.2018 -0.2091
19945TIP3    H181326   3.186   3.559   4.515 -1.4979 -0.9277  0.1084
19945TIP3    H281327   3.124   3.580   4.378  0.0560  0.5766 -0.4003
19946TIP3   OH281328   4.406   0.874   6.346 -0.1976 -0.5735  0.1975
19946TIP3    H181329   4.452   0.796   6.314  2.2251  0.6929  0.3128
19946TIP3    H281330   4.389   0.856   6.438  2.8099 -0.0520  0.9806
19947TIP3   OH281331   3.622   3.660  14.620  0.1190 -0.0997 -0.3524
19947TIP3    H181332   3.603   3.694  14.533 -3.0354 -0.4065  0.0921
19947TIP3    H281333   3.596   3.730  14.680 -1.7780 -1.3528  0.4007
19948TIP3   OH281334   1.529   4.597   1.312 -0.5244 -0.2892  0.3331
19948TIP3    H181335   1.616   4.559   1.304 -1.1533 -1.4299 -2.3170
19948TIP3    H281336   1.543   4.692   1.308  0.6647 -0.4179  1.2100
19949TIP3   OH281337   2.139   2.622   3.812 -0.0870 -0.2410  0.6909
19949TIP3    H181338   2.197   2.673   3.868 -0.3960 -1.3971  2.1386
19949TIP3    H281339   2.198   2.568   3.758  0.2189  1.1414 -0.4032
19950TIP3   OH281340   4.949   5.029  12.360  0.2176  0.1441  0.5242
19950TIP3    H181341   4.971   5.055  12.271  0.8429 -3.2079 -0.4362
19950TIP3    H281342   4.979   5.102  12.415  1.0239  1.7218 -1.8656
19951TIP3   OH281343   5.273   5.819  13.821 -0.5893 -0.5703 -0.1605
19951TIP3    H181344   5.316   5.745  13.778  0.1457 -0.8858  1.0639
19951TIP3    H281345   5.260   5.789  13.911 -1.4958  0.3126  0.0211
19952TIP3   OH281346   0.745   1.316  11.182  0.7989 -0.1215 -0.0056
19952TIP3    H181347   0.715   1.326  11.092  0.9113 -1.3688 -0.1923
19952TIP3    H281348   0.828   1.269  11.175  1.4029  0.8088  0.6852
19953TIP3   OH281349   4.291   0.495  14.114 -0.2606 -0.1613 -0.2419
19953TIP3    H181350   4.200   0.473  14.133 -0.6019  0.0771 -1.4681
19953TIP3    H281351   4.290   0.518  14.021  1.5268 -2.7565 -1.0227
19954TIP3   OH281352   4.568   3.800  11.050  0.2849  0.0761 -0.6945
19954TIP3    H181353   4.477   3.796  11.021  0.1727 -0.2161 -0.3036
19954TIP3    H281354   4.619   3.776  10.973 -0.0336 -1.2943 -0.4930
19955TIP3   OH281355   5.087   3.192   5.639  0.4087  0.0141  0.0464
19955TIP3    H181356   5.171   3.236   5.624 -0.4347  2.7009  2.3839
19955TIP3    H281357   5.107   3.122   5.702  1.1431 -0.4690 -0.7134
19956TIP3   OH281358   1.988   3.152   4.340 -0.8447  0.3393  0.0867
19956TIP3    H181359   1.946   3.067   4.341  1.1876 -0.7640 -1.1347
19956TIP3    H281360   1.957   3.195   4.420 -0.5388 -2.2476  1.7114
19957TIP3   OH281361   5.995   0.348   0.032 -0.0394 -0.3994  0.0803
19957TIP3    H181362   6.023   0.418  -0.027  0.8848 -0.5438  0.3350
19957TIP3    H281363   5.975   0.391   0.114 -2.1896 -0.0732 -0.5509
19958TIP3   OH281364   3.347   5.675  16.884 -0.6019  0.1278 -0.5065
19958TIP3    H181365   3.324   5.711  16.970 -0.5957 -0.9989 -0.0238
19958TIP3    H281366   3.385   5.590  16.903 -0.5022 -0.0861 -1.6264
19959TIP3   OH281367   5.981   4.663  13.897  0.5669  0.1052 -0.0715
19959TIP3    H181368   5.942   4.675  13.984  2.4907  0.6905  0.7562
19959TIP3    H281369   6.065   4.621  13.914  0.5986 -0.5682 -1.7452
19960TIP3   OH281370   2.091   1.080   5.317 -0.4606  0.0300  0.1576
19960TIP3    H181371   2.070   1.173   5.324 -0.8387 -0.0785  0.5226
19960TIP3    H281372   2.042   1.050   5.240  0.2929  0.3006 -0.4341
19961TIP3   OH281373   1.193   5.894  10.452 -0.2343 -0.0696 -0.2476
19961TIP3    H181374   1.227   5.971  10.499 -0.5263  0.6628 -1.2206
19961TIP3    H281375   1.255   5.881  10.380 -0.3882 -0.5387 -0.2988
19962TIP3   OH281376   3.631   2.049   3.262  0.2356 -0.1353 -0.6326
19962TIP3    H181377   3.662   2.135   3.291  0.8967  0.0185 -1.7704
19962TIP3    H281378   3.690   1.987   3.305 -0.4660 -0.0722  0.4838
19963TIP3   OH281379   3.918   6.591  12.136  0.5200  0.1607 -0.6151
19963TIP3    H181380   3.846   6.633  12.090  1.1362  1.7500 -0.1994
19963TIP3    H281381   3.977   6.561  12.066  0.7777  1.3179 -0.9130
19964TIP3   OH281382   6.039   2.504   4.514 -0.3217 -0.4558  0.5047
19964TIP3    H181383   5.970   2.533   4.455 -1.8566 -3.3193  0.7234
19964TIP3    H281384   6.096   2.449   4.460  0.9506  0.6684  0.6721
19965TIP3   OH281385   6.757   1.452   2.241  0.3844 -0.1580  0.2569
19965TIP3    H181386   6.812   1.378   2.214  0.0326 -0.1151 -0.6108
19965TIP3    H281387   6.679   1.445   2.186  0.3322  0.8406  0.1946
19966TIP3   OH281388   1.744   2.470   5.019 -0.3411 -0.2656  0.0132
19966TIP3    H181389   1.698   2.541   5.063  0.7587  0.5731 -0.1306
19966TIP3    H281390   1.676   2.406   4.998 -0.9376 -0.6700  2.8044
19967TIP3   OH281391   4.980   6.562  13.057  0.2061  0.3621  0.6844
19967TIP3    H181392   5.039   6.568  12.982 -0.9438 -2.9948 -0.7148
19967TIP3    H281393   5.035   6.581  13.133  1.9483  1.7518 -0.8436
19968TIP3   OH281394   4.787   3.965  11.479 -0.0385  0.5379 -0.4680
19968TIP3    H181395   4.750   4.046  11.444  0.6971  0.9011 -0.4245
19968TIP3    H281396   4.882   3.979  11.476  0.0671  0.0486  0.4312
19969TIP3   OH281397   3.918   4.435   2.771 -0.3236 -0.1058  0.0536
19969TIP3    H181398   4.005   4.398   2.777  0.5780  1.2307 -2.9166
19969TIP3    H281399   3.859   4.360   2.772  0.6684 -0.9900  3.0313
19970TIP3   OH281400   1.460   1.866  16.934  0.2437 -0.0494  0.1856
19970TIP3    H181401   1.484   1.805  17.004  0.5470 -0.5136 -0.3175
19970TIP3    H281402   1.542   1.885  16.890  0.2013  0.9876  0.5344
19971TIP3   OH281403   5.510   3.996  11.954 -0.0059  0.0492 -0.3843
19971TIP3    H181404   5.557   4.024  11.875 -2.5447  0.5733 -1.8341
19971TIP3    H281405   5.546   3.910  11.974  1.9637  0.6751 -0.9958
19972TIP3   OH281406   0.551   6.241  11.085  0.0891 -0.6401  0.3848
19972TIP3    H181407   0.616   6.286  11.139  0.4067 -1.0597  0.3575
19972TIP3    H281408   0.496   6.194  11.148  1.5328 -2.5668  0.2872
19973TIP3   OH281409   2.517   5.584   3.203  0.1981  0.1259  0.3248
19973TIP3    H181410   2.445   5.584   3.141  1.1277 -0.9853 -0.8027
19973TIP3    H281411   2.572   5.658   3.175  1.0160 -0.8436 -0.6903
19974TIP3   OH281412   5.568   1.798  17.150  0.1553  0.1354  0.3254
19974TIP3    H181413   5.618   1.730  17.195  1.1866  0.0509 -0.8891
19974TIP3    H281414   5.477   1.769  17.156  0.4457 -0.6803  0.9377
19975TIP3   OH281415   6.142   1.779  14.137  0.0405 -0.4121  0.2482
19975TIP3    H181416   6.083   1.728  14.081 -0.1221 -0.5370  0.5345
19975TIP3    H281417   6.135   1.739  14.223  1.6088 -1.3221 -0.0088
19976TIP3   OH281418   4.627   0.157   4.257 -0.1495  0.8281  0.3969
19976TIP3    H181419   4.609   0.067   4.283  1.1646  0.2179 -0.6413
19976TIP3    H281420   4.558   0.178   4.194 -0.7098  0.7114  0.9642
19977TIP3   OH281421   6.412   4.808   5.939  0.1464 -0.1460  0.6796
19977TIP3    H181422   6.489   4.773   5.983  1.4002  1.9156  0.2642
19977TIP3    H281423   6.448   4.856   5.864 -1.1307  3.8144  2.3415
19978TIP3   OH281424   2.491   6.668   2.167 -0.3744  0.1210  0.0969
19978TIP3    H181425   2.485   6.575   2.191  0.8904 -0.6132 -2.0985
19978TIP3    H281426   2.446   6.674   2.083  1.3456  1.0069 -0.8238
19979TIP3   OH281427   2.089   1.777  12.102  0.0797 -0.2184 -0.0676
19979TIP3    H181428   2.031   1.704  12.081 -1.3469  1.4607 -2.6046
19979TIP3    H281429   2.162   1.769  12.041 -0.9431  1.2594 -1.6248
19980TIP3   OH281430   0.444   0.582   0.467 -0.5169 -0.5765 -0.0639
19980TIP3    H181431   0.522   0.564   0.520 -0.1272 -0.0065 -0.4316
19980TIP3    H281432   0.414   0.668   0.498  0.0555  0.0355 -1.1506
19981TIP3   OH281433   4.475   2.349   0.430  0.2552 -0.8501  0.1230
19981TIP3    H181434   4.467   2.444   0.420  4.7505 -0.0647  1.6414
19981TIP3    H281435   4.502   2.318   0.343 -0.6711 -0.6906 -0.2304
19982TIP3   OH281436   3.706   5.691   0.397 -0.6800  1.3129 -0.4772
19982TIP3    H181437   3.657   5.749   0.338  0.8852  1.4630 -1.7080
19982TIP3    H281438   3.797   5.720   0.389 -0.0995 -0.2162  0.1876
19983TIP3   OH281439   6.390   3.000  12.314 -0.0725  0.4091  0.0209
19983TIP3    H181440   6.440   3.069  12.357 -0.3534 -0.2882  1.5527
19983TIP3    H281441   6.366   2.940  12.385 -1.4818 -0.2577 -0.9630
19984TIP3   OH281442   0.205   3.279  16.515  0.5064  0.3652 -0.5327
19984TIP3    H181443   0.126   3.226  16.500  2.2005 -3.2855  2.0880
19984TIP3    H281444   0.265   3.252  16.446  0.6749  0.4525 -0.4199
19985TIP3   OH281445   6.195   2.013  13.465 -0.1817 -0.1735 -0.3043
19985TIP3    H181446   6.253   2.009  13.389 -0.3988  1.0745 -0.5633
19985TIP3    H281447   6.234   2.080  13.522 -1.4751  0.9095 -0.6158
19986TIP3   OH281448   4.511   1.362  12.135  0.0566 -0.1266 -0.1946
19986TIP3    H181449   4.558   1.431  12.089 -1.2820 -0.5100 -2.2770
19986TIP3    H281450   4.419   1.380  12.118 -0.3736 -1.7327  0.2471
19987TIP3   OH281451   5.136   1.972  11.265  0.2129  0.3755 -0.2350
19987TIP3    H181452   5.061   1.915  11.246 -0.1490  0.3174  1.2367
19987TIP3    H281453   5.096   2.056  11.289  0.3082 -0.5513  3.8946
19988TIP3   OH281454   4.994   2.490   4.081 -0.3351  0.4704 -0.0341
19988TIP3    H181455   4.907   2.460   4.054 -0.7414 -0.8098  2.4333
19988TIP3    H281456   5.006   2.572   4.033 -2.8493  0.6159 -0.5735
19989TIP3   OH281457   6.402   2.862   3.017 -0.4837  0.1083 -1.1450
19989TIP3    H181458   6.307   2.859   3.014 -0.5160 -1.1573  0.0389
19989TIP3    H281459   6.430   2.771   3.009  0.4504  0.0773  1.4615
19990TIP3   OH281460   4.549   5.927   2.946 -0.0211 -0.8396  0.4784
19990TIP3    H181461   4.548   5.921   2.851 -4.3197 -1.4222  0.3450
19990TIP3    H281462   4.541   6.021   2.964  0.9520 -0.7148  0.3241
19991TIP3   OH281463   4.765   0.844   0.884 -0.6071  0.0689 -0.9195
19991TIP3    H181464   4.705   0.774   0.859 -1.7821  1.3411 -1.7641
19991TIP3    H281465   4.818   0.806   0.954 -0.9684 -1.7742 -1.5911
19992TIP3   OH281466   0.962   6.004   2.307 -0.1220 -0.0327  0.2036
19992TIP3    H181467   0.875   5.965   2.314  0.2831 -1.1421 -0.6987
19992TIP3    H281468   1.013   5.941   2.257  1.0495  0.8742  0.2064
19993TIP3   OH281469   4.501   1.272   6.642 -0.4463 -0.0328 -0.3102
19993TIP3    H181470   4.502   1.357   6.686 -1.6075 -0.8363  1.3731
19993TIP3    H281471   4.588   1.236   6.658 -0.3210  0.3681 -0.0770
19994TIP3   OH281472   4.232   5.753   0.974  0.2174  0.0995  0.1508
19994TIP3    H181473   4.299   5.686   0.979  0.0636 -0.1584 -1.0628
19994TIP3    H281474   4.225   5.786   1.064  2.2866  0.4768  0.2120
19995TIP3   OH281475   5.817   5.832  16.791 -0.0410 -0.9342  0.1013
19995TIP3    H181476   5.772   5.848  16.875  1.1565 -1.4336  0.8610
19995TIP3    H281477   5.750   5.796  16.734 -0.9163 -0.4447  0.7945
19996TIP3   OH281478   0.715   2.667  14.958 -0.1975 -0.1132  0.2442
19996TIP3    H181479   0.712   2.759  14.932 -0.8085 -0.0035  0.6579
19996TIP3    H281480   0.794   2.632  14.918  0.2224  0.6803  0.3653
19997TIP3   OH281481   5.307   0.799  13.546  0.0869  0.0675  0.5463
19997TIP3    H181482   5.264   0.860  13.606 -0.7806  0.8734 -0.8375
19997TIP3    H281483   5.399   0.801  13.571 -0.1406  0.9815  1.3504
19998TIP3   OH281484   5.974   4.235  16.536 -0.0575  0.3884 -0.0807
19998TIP3    H181485   5.953   4.322  16.500  1.0157  0.8013  0.2455
19998TIP3    H281486   6.024   4.254  16.615 -0.8734 -0.5364  0.6790
19999TIP3   OH281487   4.228   3.867   2.517 -0.4037  0.2489  0.5478
19999TIP3    H181488   4.213   3.823   2.600 -0.1326  0.5896  0.7812
19999TIP3    H281489   4.323   3.863   2.505 -0.5231 -0.6346 -0.2092
20000TIP3   OH281490   3.705   3.030  14.519  0.0423  0.0569  0.4626
20000TIP3    H181491   3.708   2.965  14.589  0.0513  0.0836  0.4864
20000TIP3    H281492   3.789   3.022  14.475 -0.5439 -1.0541 -0.5220
20001TIP3   OH281493   2.514   6.405   2.322 -0.4307 -0.3107 -0.0185
20001TIP3    H181494   2.519   6.332   2.260  0.3461 -0.5506  0.3064
20001TIP3    H281495   2.593   6.396   2.375 -0.4555  0.6259  0.1925
20002TIP3   OH281496   5.739   2.639  17.116  0.1556 -0.4970 -0.4462
20002TIP3    H181497   5.687   2.582  17.174  0.9689 -1.8247 -0.9687
20002TIP3    H281498   5.828   2.632  17.149  0.4785 -0.5475 -1.3044
20003TIP3   OH281499   3.488   5.224   4.935  0.6621  0.1107 -0.3567
20003TIP3    H181500   3.455   5.287   4.871  2.8881  0.2871 -1.4331
20003TIP3    H281501   3.540   5.162   4.883  0.4516 -1.2359  0.9755
20004TIP3   OH281502   4.819   4.632  11.516 -0.0735  0.0434 -0.4942
20004TIP3    H181503   4.891   4.571  11.502  0.3288  0.2293  0.6133
20004TIP3    H281504   4.741   4.577  11.517 -0.1615  0.0094 -3.1697
20005TIP3   OH281505   5.241   0.952   3.460 -0.3120 -0.7612  0.4939
20005TIP3    H181506   5.154   0.914   3.475 -0.8527  0.4162  0.4360
20005TIP3    H281507   5.245   1.025   3.521  1.5035 -2.0636  2.0656
20006TIP3   OH281508   6.650   6.489   5.100  0.1812  0.2732 -0.3593
20006TIP3    H181509   6.660   6.484   5.195 -0.8421  1.1527 -0.1953
20006TIP3    H281510   6.669   6.400   5.070  1.0815  0.1187  0.6001
20007TIP3   OH281511   0.471   6.570   3.287  0.6871 -0.0508 -0.4458
20007TIP3    H181512   0.393   6.529   3.326  0.0678  0.0661 -1.5178
20007TIP3    H281513   0.540   6.555   3.352 -0.0637 -0.7507  0.2320
20008TIP3   OH281514   5.873   2.376   1.725 -0.2309  0.2762 -0.5372
20008TIP3    H181515   5.830   2.390   1.641 -1.8671  1.8729  0.4985
20008TIP3    H281516   5.808   2.331   1.778  0.5390 -0.1097  0.0998
20009TIP3   OH281517   1.914   2.499  10.946  0.4375  0.0880 -0.1369
20009TIP3    H181518   1.898   2.405  10.947  4.6743 -0.8454  1.6362
20009TIP3    H281519   2.000   2.509  10.907  0.4863  3.1619  0.4601
20010TIP3   OH281520   0.237   3.408   1.850  0.0233  0.0309  0.2156
20010TIP3    H181521   0.183   3.365   1.784  0.0818  0.1292  0.1044
20010TIP3    H281522   0.296   3.339   1.881  0.1412  0.0389  0.0113
20011TIP3   OH281523   2.582   4.277  14.853 -0.4966  0.1442  0.2864
20011TIP3    H181524   2.592   4.206  14.916 -2.1894 -0.0711  0.3430
20011TIP3    H281525   2.624   4.352  14.895  1.1403 -0.7442  0.3044
20012TIP3   OH281526   2.008   6.703   6.005 -0.6017 -0.0309 -0.2326
20012TIP3    H181527   2.093   6.684   6.044 -1.0110  1.8252  1.7626
20012TIP3    H281528   2.018   6.681   5.913  1.8652 -0.3839  0.0599
20013TIP3   OH281529   4.148   4.386  16.442  0.0034 -0.1223  0.2210
20013TIP3    H181530   4.179   4.369  16.353  1.4229  1.0178  0.4497
20013TIP3    H281531   4.054   4.398  16.432  0.2154  0.6329 -1.2506
20014TIP3   OH281532   1.504   0.359   4.224  0.1838  0.4822 -0.1920
20014TIP3    H181533   1.580   0.303   4.238 -0.4511 -0.4283 -0.2769
20014TIP3    H281534   1.505   0.377   4.130 -0.7460 -1.1191 -0.5509
20015TIP3   OH281535   1.509   3.438  14.360 -0.1538  0.3197 -0.4104
20015TIP3    H181536   1.585   3.434  14.418 -0.1370  1.2515 -0.3458
20015TIP3    H281537   1.536   3.390  14.282 -0.9368 -2.8871  1.1182
20016TIP3   OH281538   5.627   0.451   0.083  0.2070 -0.3728 -0.1921
20016TIP3    H181539   5.699   0.496   0.039  2.0057 -0.0541  2.7662
20016TIP3    H281540   5.565   0.520   0.104  0.8512  0.0333  0.4491
20017TIP3   OH281541   5.561   3.936  17.049 -0.3077 -0.0127  0.3113
20017TIP3    H181542   5.592   4.025  17.034  0.5294 -0.8245 -4.1340
20017TIP3    H281543   5.477   3.946  17.092 -0.5569  2.9915 -0.6901
20018TIP3   OH281544   5.537   1.446   2.501 -0.7821 -0.3128  0.7354
20018TIP3    H181545   5.515   1.539   2.499  1.6393  0.3512  1.1046
20018TIP3    H281546   5.545   1.422   2.409 -0.9654 -0.0186  0.6410
20019TIP3   OH281547   5.902   6.392   6.520 -0.0256  0.3873 -0.1440
20019TIP3    H181548   5.993   6.398   6.547  0.3724  2.1201 -1.6498
20019TIP3    H281549   5.905   6.363   6.428 -0.9131  1.2998 -0.4865
20020TIP3   OH281550   5.778   3.026  15.152 -0.2133 -0.2425  0.1883
20020TIP3    H181551   5.873   3.011  15.149 -0.0485  0.7826 -2.5508
20020TIP3    H281552   5.741   2.938  15.139  0.3871 -0.5197  0.2757
20021TIP3   OH281553   1.946   1.320   0.918 -0.4366  0.1140 -0.1793
20021TIP3    H181554   1.894   1.384   0.965 -0.6372 -0.1310 -0.0639
20021TIP3    H281555   1.902   1.236   0.934 -1.2755  0.1920 -1.8680
20022TIP3   OH281556   0.790   6.208  11.789 -0.3542 -0.0276  0.2224
20022TIP3    H181557   0.882   6.235  11.780 -0.2960  0.1877  1.2744
20022TIP3    H281558   0.741   6.290  11.789 -0.4839 -0.1049  0.2694
20023TIP3   OH281559   5.951   6.381   0.619  0.3910 -0.3176  0.1482
20023TIP3    H181560   5.932   6.349   0.707 -0.1619  0.2335  0.2392
20023TIP3    H281561   5.880   6.345   0.565 -0.3665  0.8863  0.2914
20024TIP3   OH281562   3.905   0.406  12.106 -0.2462  0.1577  0.6179
20024TIP3    H181563   3.880   0.488  12.064 -0.7339  0.8850  2.2157
20024TIP3    H281564   3.872   0.337  12.048  1.7776  1.0194 -1.6914
20025TIP3   OH281565   5.933   2.880   4.909  0.2198  0.3542  0.2068
20025TIP3    H181566   5.900   2.890   4.820 -0.0066  2.0572  0.4498
20025TIP3    H281567   6.028   2.885   4.900  0.1884  0.7591  0.0749
20026TIP3   OH281568   4.193   5.505  15.009 -0.1647 -0.2032 -0.0674
20026TIP3    H181569   4.236   5.570  15.066  0.1564 -0.6950  0.2597
20026TIP3    H281570   4.112   5.547  14.982 -0.5828 -0.1522  1.1847
20027TIP3   OH281571   2.663   2.659  12.569 -0.5785 -0.0082 -0.4488
20027TIP3    H181572   2.736   2.686  12.513 -0.4201 -0.1932 -0.3336
20027TIP3    H281573   2.687   2.572  12.599  0.5348  1.0329  1.9034
20028TIP3   OH281574   0.238   3.949  12.432 -0.2218  0.9055 -0.1552
20028TIP3    H181575   0.223   3.910  12.346  0.2705 -0.2841  0.2647
20028TIP3    H281576   0.151   3.953  12.472 -0.5529  2.1001 -0.9386
20029TIP3   OH281577   2.740   5.247   6.129  0.1522 -0.3591  0.1228
20029TIP3    H181578   2.814   5.287   6.083  0.6752 -1.1208  0.2785
20029TIP3    H281579   2.682   5.216   6.059 -1.0555  2.0178 -0.0233
20030TIP3   OH281580   5.095   3.093   5.377  0.2418  0.4411  0.3478
20030TIP3    H181581   5.055   3.008   5.392 -3.9395  2.0151 -0.6160
20030TIP3    H281582   5.098   3.134   5.464  1.3685 -0.2746  0.6659
20031TIP3   OH281583   5.113   5.949  13.232 -0.2055  0.6554  0.1284
20031TIP3    H181584   5.088   5.878  13.173  0.8991  0.1988  0.1720
20031TIP3    H281585   5.144   5.904  13.311 -2.4571  1.2694  1.4435
20032TIP3   OH281586   1.117   2.179  13.321  0.0733  0.2925 -0.4478
20032TIP3    H181587   1.053   2.116  13.354  1.5708 -0.8020  0.4591
20032TIP3    H281588   1.090   2.194  13.230 -1.3487 -0.2680 -0.1527
20033TIP3   OH281589   5.587   4.485   5.463  0.2183 -1.0742 -0.2729
20033TIP3    H181590   5.497   4.490   5.493  0.6730  0.8748  0.9395
20033TIP3    H281591   5.614   4.395   5.484 -1.4954 -1.7783 -0.9497
20034TIP3   OH281592   5.488   0.154  11.859 -0.0709  0.4928 -0.2003
20034TIP3    H181593   5.529   0.068  11.850 -0.7099  0.3081 -1.5038
20034TIP3    H281594   5.486   0.169  11.954 -1.8546 -1.8588  0.2354
20035TIP3   OH281595   5.988   2.824   2.740  0.0862  0.1017 -0.3336
20035TIP3    H181596   5.906   2.780   2.763  0.9344 -1.0686  0.5354
20035TIP3    H281597   5.967   2.917   2.746 -1.4073 -0.1582 -0.9895
20036TIP3   OH281598   1.326   5.253  16.243 -0.0107  0.4976  0.0040
20036TIP3    H181599   1.274   5.312  16.188  0.7036  1.3512  0.2266
20036TIP3    H281600   1.416   5.263  16.210 -0.0308 -1.3550 -0.7387
20037TIP3   OH281601   0.210   1.564   4.936 -0.2075 -0.0733  0.1614
20037TIP3    H181602   0.274   1.624   4.898 -0.1701 -0.4852 -0.4353
20037TIP3    H281603   0.247   1.477   4.922 -1.0668 -0.3439 -0.5440
20038TIP3   OH281604   2.070   6.435   3.302 -0.3647 -0.3998 -0.6976
20038TIP3    H181605   2.020   6.399   3.229 -2.6498 -3.4363  2.0657
20038TIP3    H281606   2.146   6.378   3.310 -0.1518 -0.1115 -0.6598
20039TIP3   OH281607   1.318   1.876   1.328  0.0495  0.4109  0.3533
20039TIP3    H181608   1.363   1.943   1.380  0.4969  0.0345  0.4592
20039TIP3    H281609   1.356   1.793   1.358  0.5548  0.2058 -0.7869
20040TIP3   OH281610   2.779   5.078   5.148 -0.1018  0.4641 -0.2012
20040TIP3    H181611   2.791   5.026   5.228  1.2248 -0.8021 -1.1675
20040TIP3    H281612   2.863   5.071   5.103 -0.4587  2.1080 -1.1805
20041TIP3   OH281613   6.341   2.978   5.760 -0.1489 -0.2437  0.0371
20041TIP3    H181614   6.365   3.013   5.846 -2.1407  1.7534 -0.1057
20041TIP3    H281615   6.270   3.036   5.731  0.8827 -0.4512 -3.2461
20042TIP3   OH281616   0.669   4.969   6.384  0.2589  0.4967  0.0240
20042TIP3    H181617   0.759   4.997   6.367  0.5262  0.7279  1.6943
20042TIP3    H281618   0.670   4.874   6.373  0.7170  0.4944  0.0953
20043TIP3   OH281619   3.488   3.160   5.476 -0.6746  0.1110 -0.1709
20043TIP3    H181620   3.418   3.201   5.526 -1.5205  0.6165 -1.7156
20043TIP3    H281621   3.446   3.087   5.430 -0.4100  0.9148 -1.7490
20044TIP3   OH281622   1.691   0.106   0.229 -0.2073 -0.0954 -0.5527
20044TIP3    H181623   1.732   0.152   0.302 -0.5595  2.2940 -1.7933
20044TIP3    H281624   1.611   0.069   0.266  0.8901 -1.2003  0.8596
20045TIP3   OH281625   5.139   0.378  16.179  0.5200 -0.3181 -0.3016
20045TIP3    H181626   5.098   0.403  16.262  0.8165  0.6190 -0.4211
20045TIP3    H281627   5.223   0.340  16.205  1.0425  0.8591 -0.1939
20046TIP3   OH281628   0.346   1.738   5.397 -0.1462  0.3005  0.3175
20046TIP3    H181629   0.292   1.724   5.475 -1.3854  2.2376 -0.1162
20046TIP3    H281630   0.301   1.690   5.328 -0.2487  0.3281  0.3646
20047TIP3   OH281631   3.992   2.912  12.897  0.4254  0.4550 -0.4792
20047TIP3    H181632   3.964   2.875  12.981  0.6230  1.4929  0.0552
20047TIP3    H281633   4.036   2.839  12.852  0.1959 -0.1455  0.2563
20048TIP3   OH281634   5.597   1.568  14.642 -0.1977  0.1101 -0.4595
20048TIP3    H181635   5.514   1.590  14.684 -0.2558  0.1134 -0.5741
20048TIP3    H281636   5.581   1.483  14.601  0.2929 -0.5629  0.7055
20049TIP3   OH281637   4.414   3.876   0.490 -0.1074 -0.0174 -0.0193
20049TIP3    H181638   4.419   3.957   0.438  0.0110 -0.6511 -1.0143
20049TIP3    H281639   4.357   3.819   0.439  0.5640 -0.9072  0.2095
20050TIP3   OH281640   5.064   2.206  16.139 -0.0858  0.1983  0.3132
20050TIP3    H181641   5.130   2.156  16.091  0.3575  1.2681 -0.2379
20050TIP3    H281642   4.984   2.195  16.089 -0.1996 -0.6301  0.6612
20051TIP3   OH281643   1.871   5.442   0.949 -0.1423  0.0517 -0.3086
20051TIP3    H181644   1.841   5.373   0.890 -0.9335 -0.2431  0.4119
20051TIP3    H281645   1.819   5.429   1.029  0.1261  1.1110  0.0524
20052TIP3   OH281646   2.619   0.966   2.097  0.2300  0.1619 -0.3818
20052TIP3    H181647   2.621   0.988   2.004 -0.9364  3.0523  0.1581
20052TIP3    H281648   2.541   0.912   2.107  1.2707 -1.6157 -1.2571
20053TIP3   OH281649   6.111   2.376  12.785  0.2798  0.5770 -0.0843
20053TIP3    H181650   6.114   2.419  12.699  3.2517 -0.0398 -0.3796
20053TIP3    H281651   6.078   2.288  12.766 -0.7366  0.9837 -0.2823
20054TIP3   OH281652   3.339   2.658   1.530  0.1590  0.0275 -0.5771
20054TIP3    H181653   3.338   2.712   1.609  0.2916 -0.0056 -0.5516
20054TIP3    H281654   3.413   2.598   1.543 -0.2466 -0.4398 -0.4203
20055TIP3   OH281655   2.218   5.123   0.198  0.8340 -0.1579 -0.6543
20055TIP3    H181656   2.254   5.046   0.241 -1.6889 -1.1916 -0.2343
20055TIP3    H281657   2.286   5.148   0.135  2.2618 -1.9464  0.0656
20056TIP3   OH281658   4.810   5.164   2.277  0.0969  0.6074 -0.4749
20056TIP3    H181659   4.719   5.193   2.275  0.1355  1.2634  2.3725
20056TIP3    H281660   4.817   5.114   2.359  2.0902 -0.1924 -1.0726
20057TIP3   OH281661   5.809   6.273  15.046  0.1590  0.4942 -0.3427
20057TIP3    H181662   5.736   6.230  15.001 -0.4796  2.4782 -1.3386
20057TIP3    H281663   5.828   6.216  15.120 -1.4960 -0.7862 -0.8258
20058TIP3   OH281664   2.656   4.066  14.389  0.6450  0.3286  0.3932
20058TIP3    H181665   2.566   4.063  14.355 -0.2498  1.1959  2.5054
20058TIP3    H281666   2.708   4.096  14.315 -0.5804 -1.3206 -1.2272
20059TIP3   OH281667   2.162   2.349  12.299 -0.5294 -0.0698 -0.1398
20059TIP3    H181668   2.209   2.311  12.225  1.2591 -0.2104  0.9846
20059TIP3    H281669   2.161   2.443  12.282  1.1791  0.0576  0.3134
20060TIP3   OH281670   2.794   5.348   4.937 -0.1433  0.0599  0.1229
20060TIP3    H181671   2.861   5.405   4.899 -0.8900  0.9238  0.0664
20060TIP3    H281672   2.833   5.314   5.017  0.0729  1.1946  0.5131
20061TIP3   OH281673   0.475   5.653   4.850 -0.1108 -0.3255 -0.5611
20061TIP3    H181674   0.423   5.613   4.921  0.2211  0.5215  0.1729
20061TIP3    H281675   0.565   5.626   4.868 -0.0809 -0.4906 -0.9388
20062TIP3   OH281676   5.025   1.662  10.709  0.2108  0.2159  0.6572
20062TIP3    H181677   5.096   1.611  10.748  0.7846 -0.4864 -1.1789
20062TIP3    H281678   5.047   1.666  10.616 -2.3843 -0.4479 -0.0729
20063TIP3   OH281679   1.552   0.326   3.432 -0.2424 -0.2365 -0.0972
20063TIP3    H181680   1.581   0.319   3.342 -0.8577  0.2617 -0.3426
20063TIP3    H281681   1.572   0.417   3.457  0.9809 -0.6916  0.6486
20064TIP3   OH281682   4.654   2.723   1.750  0.4574  0.3395 -0.7266
20064TIP3    H181683   4.747   2.731   1.726  0.4008  0.5848 -0.8644
20064TIP3    H281684   4.639   2.628   1.756  1.0287  0.3019  0.4927
20065TIP3   OH281685   2.182   4.183   0.094 -0.3101 -0.4342 -0.0890
20065TIP3    H181686   2.118   4.133   0.044  0.9453 -1.4906 -0.7013
20065TIP3    H281687   2.171   4.273   0.064 -1.3546 -0.6199 -0.3190
20066TIP3   OH281688   5.660   4.748   4.443 -0.5367 -0.4261 -0.1217
20066TIP3    H181689   5.663   4.711   4.531  1.1570 -0.7370 -0.2619
20066TIP3    H281690   5.606   4.827   4.451  0.6855  0.2977  1.5254
20067TIP3   OH281691   1.163   5.261  10.866  0.2700  0.6833 -0.4358
20067TIP3    H181692   1.245   5.225  10.897  1.8483  1.9322 -2.8271
20067TIP3    H281693   1.152   5.226  10.778 -1.5925  0.8420 -0.3208
20068TIP3   OH281694   5.896   1.686  11.208 -0.2212 -0.8899 -0.0636
20068TIP3    H181695   5.880   1.723  11.294 -1.6766  0.8535 -1.0110
20068TIP3    H281696   5.991   1.674  11.204 -0.1738 -1.5021  1.9295
20069TIP3   OH281697   1.500   5.247  11.765 -0.2070  0.2506 -0.6809
20069TIP3    H181698   1.593   5.226  11.757 -0.4268 -1.2126  0.2590
20069TIP3    H281699   1.489   5.327  11.713  1.1006 -0.8638 -2.8162
20070TIP3   OH281700   2.365   3.382   3.138  0.3080  0.3548 -0.0543
20070TIP3    H181701   2.292   3.355   3.193  0.8755 -0.4008  0.3366
20070TIP3    H281702   2.401   3.300   3.104  0.7953  0.7409 -0.4788
20071TIP3   OH281703   1.021   3.061   2.252 -0.1604 -0.2886  0.5696
20071TIP3    H181704   1.073   3.022   2.182 -2.0619 -2.4071  0.2334
20071TIP3    H281705   1.025   2.997   2.323 -0.2467  0.7105  1.5090
20072TIP3   OH281706   6.015   6.718   4.568  0.2526  0.1747 -0.3680
20072TIP3    H181707   6.097   6.765   4.550  0.0604  0.9924  0.7917
20072TIP3    H281708   5.993   6.742   4.658 -1.8939  0.9200 -1.0370
20073TIP3   OH281709   3.359   0.714  14.923 -0.1282  0.1835  0.1315
20073TIP3    H181710   3.372   0.746  14.834 -0.1286 -0.4680 -0.1112
20073TIP3    H281711   3.429   0.755  14.974  1.4414 -1.3647 -0.6756
20074TIP3   OH281712   0.698   0.185  14.713  0.3269  0.0659  0.0196
20074TIP3    H181713   0.775   0.134  14.740 -0.7355 -2.4333 -1.4161
20074TIP3    H281714   0.642   0.185  14.791  0.8115  0.0052  0.3782
20075TIP3   OH281715   2.743   1.756  14.854  0.2429 -0.8158 -0.9259
20075TIP3    H181716   2.755   1.806  14.935 -0.2975 -0.9681 -0.7446
20075TIP3    H281717   2.683   1.810  14.802  0.0703 -1.0251 -0.9477
20076TIP3   OH281718   6.246   1.277   4.389  0.1125  0.5839  0.5411
20076TIP3    H181719   6.265   1.235   4.473 -1.1146  0.3724  0.7294
20076TIP3    H281720   6.214   1.364   4.411  0.9381  0.9814  0.2242
20077TIP3   OH281721   1.649   2.241   4.178  0.2686 -0.2539 -0.0117
20077TIP3    H181722   1.582   2.176   4.195 -0.3966  0.4039 -0.0520
20077TIP3    H281723   1.603   2.325   4.185  1.2960  0.2629  1.0095
20078TIP3   OH281724   6.366   1.785  13.753 -0.3885 -0.2664 -0.7455
20078TIP3    H181725   6.447   1.790  13.804  0.2536 -0.1430 -1.7548
20078TIP3    H281726   6.331   1.698  13.772  1.4465 -1.4689 -2.4020
20079TIP3   OH281727   1.150   0.260  14.340 -0.3282  0.8710  0.7387
20079TIP3    H181728   1.205   0.182  14.346 -1.1512  0.3125  1.1164
20079TIP3    H281729   1.213   0.333  14.332  0.4440  0.0013 -2.1366
20080TIP3   OH281730   0.819   2.015  13.979  0.2266  0.4694  0.0492
20080TIP3    H181731   0.752   2.073  13.943  0.9388  1.3770  0.1552
20080TIP3    H281732   0.821   1.940  13.919  1.1780  1.7957 -1.6994
20081TIP3   OH281733   0.843   3.731   2.826 -0.2971  0.7934 -0.2033
20081TIP3    H181734   0.750   3.751   2.814  0.0482  1.7652 -1.4890
20081TIP3    H281735   0.877   3.720   2.737  0.3936 -1.8204  0.2954
20082TIP3   OH281736   6.808   6.504   3.568  0.8483 -0.3253  0.3223
20082TIP3    H181737   6.770   6.513   3.655  1.2821  1.7130  0.3572
20082TIP3    H281738   6.739   6.464   3.515 -0.3223  0.7003  1.0394
20083TIP3   OH281739   1.476   5.052   3.647 -0.4349 -0.3147  0.1451
20083TIP3    H181740   1.483   4.974   3.702 -1.0933 -1.0657 -0.8068
20083TIP3    H281741   1.528   5.118   3.693  0.1263 -1.2997  0.9799
20084TIP3   OH281742   0.245   1.913  13.818  0.2498  0.1913 -0.2195
20084TIP3    H181743   0.188   1.921  13.894  0.3465  1.0633 -0.2297
20084TIP3    H281744   0.333   1.930  13.852  0.4456 -0.5735 -0.3139
20085TIP3   OH281745   3.657   0.786  11.645  0.1330  0.2571  0.0155
20085TIP3    H181746   3.747   0.799  11.614 -0.3332 -0.2567 -1.6250
20085TIP3    H281747   3.626   0.875  11.664  1.0106  0.4313  0.7724
20086TIP3   OH281748   4.927   5.611   3.539 -0.0237  0.1308 -0.1457
20086TIP3    H181749   4.964   5.608   3.627 -1.1371  2.7363  0.5034
20086TIP3    H281750   4.843   5.565   3.547  1.2348 -2.4705 -0.7213
20087TIP3   OH281751   1.070   3.829  15.119 -0.2808  0.1743 -0.1325
20087TIP3    H181752   0.976   3.822  15.137 -0.1849 -0.5904  0.0932
20087TIP3    H281753   1.109   3.854  15.202 -0.2132 -0.1193 -0.0761
20088TIP3   OH281754   1.398   6.536  13.152  0.0689  0.1909  0.0440
20088TIP3    H181755   1.491   6.544  13.129 -0.3186  0.0273 -1.7551
20088TIP3    H281756   1.357   6.502  13.073 -1.3754 -0.8212  1.1717
20089TIP3   OH281757   3.476   6.508   0.621 -0.6572 -0.0453  0.0282
20089TIP3    H181758   3.435   6.472   0.542  1.8619  2.7390 -2.8115
20089TIP3    H281759   3.438   6.595   0.630  0.6560  0.4951  0.5441
20090TIP3   OH281760   3.642   2.783  14.677  0.4265  0.2690  0.1272
20090TIP3    H181761   3.591   2.779  14.758 -0.3575  0.2172 -0.3599
20090TIP3    H281762   3.709   2.715  14.688  0.2510  0.1790  0.6752
20091TIP3   OH281763   0.435   6.697   2.212  0.0510 -0.0290 -0.6861
20091TIP3    H181764   0.496   6.736   2.275 -0.1536 -1.6496  0.5754
20091TIP3    H281765   0.478   6.709   2.127  1.5309 -0.0217  0.0309
20092TIP3   OH281766   6.807   2.345   6.050  0.5306  0.3469  0.2571
20092TIP3    H181767   6.873   2.353   5.982 -0.7813  1.5432 -0.9414
20092TIP3    H281768   6.796   2.250   6.062  0.4925  0.1103 -1.4894
20093TIP3   OH281769   6.245   0.546   5.933 -0.5109  0.4134 -0.0033
20093TIP3    H181770   6.242   0.451   5.930 -0.5155  0.4198 -0.2606
20093TIP3    H281771   6.156   0.574   5.911 -1.1328  0.4503  2.3070
20094TIP3   OH281772   2.041   3.138  14.524 -0.1412  0.2373 -0.4377
20094TIP3    H181773   2.121   3.085  14.525 -0.8876 -0.9498  1.0074
20094TIP3    H281774   2.057   3.205  14.458  1.2750 -1.1570 -1.5877
20095TIP3   OH281775   2.574   2.929   6.022 -0.5238  0.0924  0.5060
20095TIP3    H181776   2.635   2.867   6.061  1.7921  2.4313  0.8320
20095TIP3    H281777   2.502   2.934   6.086  0.1220 -0.9004  1.3424
20096TIP3   OH281778   5.504   3.652  13.635  0.0443  0.1847  0.0772
20096TIP3    H181779   5.533   3.601  13.711 -0.6401  1.1152  0.9785
20096TIP3    H281780   5.560   3.730  13.636 -2.5032  2.1775  2.0333
20097TIP3   OH281781   0.799   1.017   2.172  0.0315  0.2606 -0.4651
20097TIP3    H181782   0.816   1.032   2.265 -2.6372 -0.9187  0.2806
20097TIP3    H281783   0.772   1.102   2.138 -2.4856  0.0343  0.7502
20098TIP3   OH281784   2.985   6.094  16.578 -0.4055 -0.4492  0.4915
20098TIP3    H181785   3.009   6.175  16.623 -0.1831  0.2590 -0.8288
20098TIP3    H281786   2.948   6.038  16.646 -0.3013  0.6555  1.4863
20099TIP3   OH281787   4.828   5.300   0.169  0.0298  0.1195  0.2228
20099TIP3    H181788   4.787   5.257   0.244 -0.8585  0.7810  0.1370
20099TIP3    H281789   4.913   5.330   0.202 -0.7114  1.1975  1.2570
20100TIP3   OH281790   5.030   5.907   5.652 -0.2678  0.0413 -0.3469
20100TIP3    H181791   5.009   5.969   5.722 -0.7361 -0.8172  0.2966
20100TIP3    H281792   4.947   5.889   5.609 -0.0424  0.2677 -0.8913
20101TIP3   OH281793   5.138   3.630   2.635  0.3012 -0.0104  0.1729
20101TIP3    H181794   5.233   3.631   2.629  0.2484  0.6165 -0.7794
20101TIP3    H281795   5.108   3.673   2.555 -0.7569  1.7504  1.4561
20102TIP3   OH281796   3.204   5.897   2.211  0.5422 -0.3506  0.2150
20102TIP3    H181797   3.160   5.868   2.291  0.3661 -2.1559 -0.4857
20102TIP3    H281798   3.172   5.986   2.197 -1.6276 -0.9996  0.6358
20103TIP3   OH281799   0.725   1.475  15.072 -0.4694 -0.0519  0.4633
20103TIP3    H181800   0.709   1.568  15.060  0.2345  0.3763  2.5144
20103TIP3    H281801   0.778   1.469  15.151 -2.5804 -2.3252  1.8932
20104TIP3   OH281802   3.435   4.057   4.070  0.0256 -0.2970  0.0922
20104TIP3    H181803   3.489   4.088   4.143  0.5164 -1.9640  0.4676
20104TIP3    H281804   3.374   4.129   4.053  0.9497  0.7528  1.0822
20105TIP3   OH281805   6.124   1.586   1.061  0.3619  0.0581 -0.3985
20105TIP3    H181806   6.173   1.504   1.065  1.6830  0.6961 -2.2384
20105TIP3    H281807   6.078   1.583   0.978 -0.8614  0.5115  0.2432
20106TIP3   OH281808   2.740   5.700  16.133  0.3626  0.1700  0.1745
20106TIP3    H181809   2.786   5.617  16.150  0.2263 -0.0509 -0.4963
20106TIP3    H281810   2.650   5.674  16.115  0.0061  0.5894  1.2767
20107TIP3   OH281811   2.963   5.689  12.561 -0.6097  0.2540 -0.3833
20107TIP3    H181812   2.911   5.767  12.543 -0.8034 -0.1665 -1.8308
20107TIP3    H281813   2.926   5.622  12.502 -1.3953 -1.3532  1.8057
20108TIP3   OH281814   1.390   4.587   3.317  0.3310  0.0032  0.1944
20108TIP3    H181815   1.319   4.523   3.305 -0.2091  0.0163  2.6033
20108TIP3    H281816   1.393   4.636   3.235 -1.5870 -0.8466 -0.4551
20109TIP3   OH281817   3.316   3.168  15.533  0.1682  0.4437 -0.0090
20109TIP3    H181818   3.348   3.144  15.446  2.2463  0.9335  0.5444
20109TIP3    H281819   3.273   3.089  15.566  1.1943 -0.4361 -0.7046
20110TIP3   OH281820   6.131   1.883   5.461 -0.3145  0.3192 -0.0194
20110TIP3    H181821   6.068   1.851   5.396  1.8039 -0.8702 -1.6203
20110TIP3    H281822   6.168   1.804   5.500  0.8819  0.9403  0.1597
20111TIP3   OH281823   4.148   2.782  15.106  0.0881 -0.3954  0.4929
20111TIP3    H181824   4.157   2.877  15.116  1.8774 -0.6309  1.5169
20111TIP3    H281825   4.108   2.771  15.020 -0.5604  1.2839  0.5315
20112TIP3   OH281826   5.509   3.263   4.550 -0.4274 -0.0586  0.5274
20112TIP3    H181827   5.577   3.316   4.593 -0.5770  0.5154  0.0687
20112TIP3    H281828   5.551   3.226   4.473 -0.6009  0.2144  0.2983
20113TIP3   OH281829   0.606   2.128   5.517  0.6779  0.2213 -0.7246
20113TIP3    H181830   0.600   2.047   5.466  0.1151  0.1652 -0.5825
20113TIP3    H281831   0.535   2.183   5.483  0.2756  0.1722  0.0087
20114TIP3   OH281832   3.419   5.641   2.895  0.1430  0.3011  0.4563
20114TIP3    H181833   3.460   5.718   2.935 -1.0249  1.4806 -0.5395
20114TIP3    H281834   3.351   5.616   2.958 -0.0885  0.6642  0.3561
20115TIP3   OH281835   6.058   4.844   0.493  0.2407  0.2129  0.2313
20115TIP3    H181836   6.065   4.887   0.408 -1.0222  0.9854  0.4914
20115TIP3    H281837   6.133   4.878   0.542  0.6439  0.2185 -0.3729
20116TIP3   OH281838   1.681   1.641   4.393 -0.6980  0.0650 -0.3288
20116TIP3    H181839   1.680   1.548   4.374  0.6447 -0.1854  0.6801
20116TIP3    H281840   1.642   1.682   4.316 -2.0734 -1.3703 -0.4460
20117TIP3   OH281841   1.500   3.047  11.893 -0.2269 -0.8162 -0.8780
20117TIP3    H181842   1.474   2.985  11.825 -0.7438 -0.4220 -1.0442
20117TIP3    H281843   1.501   3.132  11.849  0.2693 -0.6709 -0.6005
20118TIP3   OH281844   1.513   2.566  11.483  0.2862  0.3075  0.4104
20118TIP3    H181845   1.432   2.517  11.470  1.1215 -1.3127  0.9197
20118TIP3    H281846   1.536   2.597  11.395  0.1252 -0.9440 -0.1035
20119TIP3   OH281847   2.141   0.649  11.682  0.3603  0.2887 -0.0189
20119TIP3    H181848   2.183   0.734  11.694  1.8598 -0.3032 -0.8064
20119TIP3    H281849   2.049   0.669  11.669  0.4078  1.6664  1.4382
20120TIP3   OH281850   3.148   3.254   2.222  0.1496 -0.0293 -0.3447
20120TIP3    H181851   3.149   3.321   2.154 -0.4771 -1.3446 -1.7012
20120TIP3    H281852   3.189   3.296   2.298 -4.3836  3.6028  0.5534
20121TIP3   OH281853   3.926   0.905  11.876  0.0282 -0.0503  0.3975
20121TIP3    H181854   3.987   0.968  11.913 -0.8602  0.6888  0.6331
20121TIP3    H281855   3.900   0.943  11.793  0.8714 -0.9934 -0.3249
20122TIP3   OH281856   0.035   3.250   3.985 -0.4575  0.3562  0.4684
20122TIP3    H181857   0.027   3.243   3.889  1.1505 -1.2743  0.3999
20122TIP3    H281858   0.101   3.184   4.008 -1.4068  0.1497  2.8068
20123TIP3   OH281859   0.481   2.849  13.317  0.2921  0.0107  0.3452
20123TIP3    H181860   0.558   2.904  13.304  0.0791 -0.0799 -1.5353
20123TIP3    H281861   0.468   2.804  13.233  0.0215 -2.3816  1.5691
20124TIP3   OH281862   1.979   3.219  13.822 -0.2608 -0.2306 -0.3315
20124TIP3    H181863   1.988   3.269  13.903 -3.7837  1.7254 -0.9233
20124TIP3    H281864   1.909   3.156  13.841 -1.0112  0.1417 -1.7241
20125TIP3   OH281865   0.020   5.542  16.259 -0.4679  0.8422 -0.2146
20125TIP3    H181866  -0.018   5.614  16.311 -0.9174  0.0607  0.5735
20125TIP3    H281867   0.036   5.473  16.323  3.2030  1.4138 -0.2955
20126TIP3   OH281868   2.166   3.771  15.605  0.1147 -0.1515 -0.4074
20126TIP3    H181869   2.196   3.828  15.535 -1.3284 -1.2773 -2.0191
20126TIP3    H281870   2.182   3.821  15.685 -0.1673  2.0735 -1.6595
20127TIP3   OH281871   5.281   4.492   6.001  0.2565  0.1621 -0.0655
20127TIP3    H181872   5.326   4.416   5.963 -0.9768 -0.7840  0.2747
20127TIP3    H281873   5.332   4.567   5.972  0.2923 -0.6235 -2.2421
20128TIP3   OH281874   1.136   3.384  12.739  0.4670 -0.1538  0.7392
20128TIP3    H181875   1.096   3.460  12.696 -0.3424 -1.0696 -0.2038
20128TIP3    H281876   1.077   3.312  12.718  1.4597 -1.1307  1.2208
20129TIP3   OH281877   3.522   5.455  13.969  0.2649  0.4722 -0.0042
20129TIP3    H181878   3.581   5.522  14.001 -0.5785  2.2499 -1.9170
20129TIP3    H281879   3.466   5.500  13.906 -0.7485 -1.9104 -0.9479
20130TIP3   OH281880   3.467   6.405   5.452 -0.3618 -0.0727  1.0766
20130TIP3    H181881   3.490   6.461   5.527  1.9982  0.7560 -0.1743
20130TIP3    H281882   3.549   6.393   5.405 -1.5771 -1.4730 -0.8182
20131TIP3   OH281883   4.289   5.184   0.632  0.3821 -0.2097 -0.0060
20131TIP3    H181884   4.215   5.150   0.683 -1.2540  0.9470 -1.4746
20131TIP3    H281885   4.365   5.138   0.666 -1.0520 -1.6674  1.3986
20132TIP3   OH281886   6.267   1.063   3.051  0.3793  0.2705  0.0821
20132TIP3    H181887   6.247   1.071   3.144  1.2503 -1.1988  0.4357
20132TIP3    H281888   6.184   1.077   3.006  0.2187  2.4498  0.9688
20133TIP3   OH281889   0.304   1.318  12.090 -0.1807 -0.2302  0.0730
20133TIP3    H181890   0.365   1.280  12.027  0.5276 -0.4206  0.8603
20133TIP3    H281891   0.221   1.273  12.072 -0.0858 -0.0383 -0.9376
20134TIP3   OH281892   1.163   1.642   1.917  0.2258 -0.1472  0.0820
20134TIP3    H181893   1.195   1.684   1.837  2.0768 -1.6223 -0.0236
20134TIP3    H281894   1.094   1.583   1.887 -1.4007  1.6453  0.0606
20135TIP3   OH281895   1.893   1.630   6.358 -0.0137 -0.3593  0.5467
20135TIP3    H181896   1.914   1.548   6.403  0.1762  0.0961  1.3114
20135TIP3    H281897   1.978   1.662   6.326 -0.0196 -0.2102  0.6820
20136TIP3   OH281898   4.807   5.405  12.697 -0.1658 -0.5339  0.1506
20136TIP3    H181899   4.837   5.480  12.749 -1.4867  1.4192 -1.6889
20136TIP3    H281900   4.740   5.364  12.752 -1.8957  1.7783 -0.0327
20137TIP3   OH281901   6.628   5.243   4.969 -0.1875 -0.0437  0.5478
20137TIP3    H181902   6.719   5.259   4.995 -0.3298  0.1531  0.9443
20137TIP3    H281903   6.589   5.199   5.044 -0.4460 -0.0334  0.4226
20138TIP3   OH281904   1.198   4.117  11.557  0.0676 -0.5856  0.0348
20138TIP3    H181905   1.199   4.051  11.626 -1.4176 -1.5918 -0.8492
20138TIP3    H281906   1.134   4.182  11.586 -1.2238 -1.4703 -0.7723
20139TIP3   OH281907   3.329   4.911   0.628  0.2693 -0.4564  0.4821
20139TIP3    H181908   3.420   4.889   0.607  0.2135 -0.0813 -0.1512
20139TIP3    H281909   3.331   5.005   0.647 -0.0996 -0.3183 -0.1528
20140TIP3   OH281910   6.668   6.313  15.557  0.0777  0.7066  0.0392
20140TIP3    H181911   6.679   6.403  15.524 -0.0873  1.1097  1.0419
20140TIP3    H281912   6.622   6.324  15.640 -1.5544 -0.4356 -0.6477
20141TIP3   OH281913   5.095   3.685  11.531 -0.1772  0.7348 -0.3582
20141TIP3    H181914   5.038   3.678  11.608  0.5638  1.8093  0.3126
20141TIP3    H281915   5.038   3.720  11.463 -0.4909  1.1864  0.1246
20142TIP3   OH281916   1.244   3.856   1.555  0.1879 -0.4480 -0.2300
20142TIP3    H181917   1.156   3.894   1.568  0.6455  0.5311  0.1418
20142TIP3    H281918   1.234   3.764   1.577 -0.7052 -0.2989  0.0245
20143TIP3   OH281919   0.398   5.501   4.601  0.0029 -0.0327 -0.1980
20143TIP3    H181920   0.378   5.591   4.575  0.7041  0.2379  0.1875
20143TIP3    H281921   0.448   5.510   4.682 -1.5415 -0.8207  0.9124
20144TIP3   OH281922   1.961   1.139   5.947  0.4057  0.1464  0.4983
20144TIP3    H181923   2.041   1.095   5.918 -0.9844 -1.9084 -0.4007
20144TIP3    H281924   1.974   1.152   6.041  1.5270 -0.7393  0.4879
20145TIP3   OH281925   3.017   4.764  16.873  0.2617  0.6798 -0.9847
20145TIP3    H181926   3.112   4.751  16.876  0.0645 -0.8165  0.3412
20145TIP3    H281927   2.983   4.683  16.835 -0.5961  0.1251  0.8235
20146TIP3   OH281928   1.220   0.629   4.792 -0.5778  0.2884  0.1493
20146TIP3    H181929   1.222   0.657   4.700 -0.2665  0.4416  0.2008
20146TIP3    H281930   1.282   0.556   4.796 -1.5023 -0.5346 -0.0187
20147TIP3   OH281931   0.892   0.249  11.957 -0.4956  0.0205  0.5252
20147TIP3    H181932   0.961   0.269  12.020 -0.0864 -0.8525  0.3717
20147TIP3    H281933   0.811   0.258  12.006 -0.1994 -0.3224  1.0796
20148TIP3   OH281934   4.331   4.238   1.059  0.1671 -0.5249  0.0035
20148TIP3    H181935   4.346   4.329   1.082  0.5725 -0.5559 -0.1325
20148TIP3    H281936   4.241   4.220   1.088 -0.4217  0.3186 -1.2195
20149TIP3   OH281937   5.453   6.421  10.572  0.2760  0.5248 -0.3073
20149TIP3    H181938   5.437   6.409  10.665  2.9361 -3.7114 -0.1466
20149TIP3    H281939   5.367   6.414  10.531 -0.6478 -0.0094  1.6346
20150TIP3   OH281940   6.424   6.227   4.691 -0.1473  0.6867 -0.0021
20150TIP3    H181941   6.448   6.166   4.761 -0.6491  0.6680  0.1602
20150TIP3    H281942   6.499   6.286   4.683 -0.6507  1.5922  1.5319
20151TIP3   OH281943   5.902   0.337  11.341 -0.1980  0.1239 -0.7758
20151TIP3    H181944   5.879   0.358  11.251 -1.3576 -1.9118 -1.0204
20151TIP3    H281945   5.902   0.241  11.344  0.9916  0.1330  1.1035
20152TIP3   OH281946   6.193   0.353   4.792  0.1681  0.4914 -0.0645
20152TIP3    H181947   6.170   0.439   4.755 -0.2483  0.7504  0.7696
20152TIP3    H281948   6.142   0.290   4.740  0.9717  0.6822 -1.1100
20153TIP3   OH281949   6.657   1.639   5.721  0.6172  0.0933  0.5617
20153TIP3    H181950   6.716   1.594   5.661 -0.3871 -1.1406  0.4527
20153TIP3    H281951   6.658   1.586   5.800  0.1922  0.4567  0.8173
20154TIP3   OH281952   2.172   4.384  15.367  0.4094 -0.1937  0.2694
20154TIP3    H181953   2.245   4.395  15.306  0.7101  0.1960  0.7015
20154TIP3    H281954   2.113   4.323  15.322 -0.7298  2.1802 -1.6335
20155TIP3   OH281955   6.557   3.892  14.856  0.3288 -0.0252 -0.3844
20155TIP3    H181956   6.557   3.815  14.913 -1.2339 -0.1712 -0.5174
20155TIP3    H281957   6.577   3.857  14.769 -1.4864 -0.5224 -0.6558
20156TIP3   OH281958   0.859   5.027  12.900 -0.3329 -0.2154 -0.1196
20156TIP3    H181959   0.923   4.956  12.898 -1.0992 -0.9222  0.1423
20156TIP3    H281960   0.903   5.100  12.856  1.0421 -0.3561  0.9382
20157TIP3   OH281961   1.780   6.307  15.782 -0.0371  0.3220 -0.1716
20157TIP3    H181962   1.805   6.233  15.837  0.0931  0.8805  0.5215
20157TIP3    H281963   1.795   6.384  15.836 -0.1471  0.8637 -0.8995
20158TIP3   OH281964   1.978   0.420   0.142 -0.6175 -0.1647 -0.8373
20158TIP3    H181965   1.964   0.491   0.079  1.5921 -0.9804 -2.3986
20158TIP3    H281966   1.915   0.353   0.116 -0.5004 -0.0427 -1.4662
20159TIP3   OH281967   6.442   0.568   4.406 -0.4031  0.2095 -0.2294
20159TIP3    H181968   6.528   0.552   4.444 -1.3747  0.5218  2.3167
20159TIP3    H281969   6.420   0.657   4.435 -2.1651 -0.4031  0.4081
20160TIP3   OH281970   1.810   1.539   0.089  0.2440 -0.7339 -0.8606
20160TIP3    H181971   1.791   1.503   0.002  1.0800 -0.0448 -1.3466
20160TIP3    H281972   1.888   1.594   0.075 -0.3070  0.3181  0.0844
20161TIP3   OH281973   4.090   1.934  11.401  0.0271  0.0417 -0.8001
20161TIP3    H181974   4.086   1.880  11.322  1.6333 -0.3557 -0.6523
20161TIP3    H281975   4.093   1.872  11.473 -3.8408  0.3933 -0.1644
20162TIP3   OH281976   5.048   0.084   4.004  0.4772  0.2045  0.7513
20162TIP3    H181977   5.117   0.147   4.023  0.5058  0.2738  0.4292
20162TIP3    H281978   5.094   0.005   3.975  0.4210  0.2961  0.4041
20163TIP3   OH281979   1.744   5.169  16.467  0.0704  0.0594 -0.0221
20163TIP3    H181980   1.664   5.205  16.505  0.0461 -0.1416  0.1195
20163TIP3    H281981   1.795   5.138  16.542  0.0768 -0.2262 -0.1421
20164TIP3   OH281982   0.006   2.669   2.386 -0.0659  0.5961 -0.1832
20164TIP3    H181983  -0.086   2.696   2.393 -1.0216 -2.6833  2.2506
20164TIP3    H281984   0.054   2.735   2.436 -1.2355  1.6588 -0.4067
20165TIP3   OH281985   2.080   5.367   1.310  0.8785 -0.1713  0.0772
20165TIP3    H181986   2.108   5.290   1.360 -0.7288 -0.1190  1.1070
20165TIP3    H281987   2.161   5.416   1.294  1.7004 -1.2532  0.8083
20166TIP3   OH281988   5.636   3.184   5.164  0.0877  0.0166 -0.4602
20166TIP3    H181989   5.663   3.111   5.219 -0.4735  0.2027  0.0736
20166TIP3    H281990   5.707   3.194   5.100  0.9041  0.0096  0.4223
20167TIP3   OH281991   6.540   6.269  14.884 -0.2182 -0.7046  0.6004
20167TIP3    H181992   6.617   6.243  14.834  0.8841  0.7615  1.4650
20167TIP3    H281993   6.512   6.352  14.844  0.7648  0.5641  2.4106
20168TIP3   OH281994   4.069   5.735  16.558 -0.0439  0.3945  0.4011
20168TIP3    H181995   4.131   5.748  16.630  1.0158 -0.1494 -0.3799
20168TIP3    H281996   4.062   5.822  16.518 -0.9980  0.8077  1.4118
20169TIP3   OH281997   2.795   0.085  16.657  0.0461  0.1464  0.8060
20169TIP3    H181998   2.776  -0.000  16.618  0.1426 -0.5148  2.1128
20169TIP3    H281999   2.861   0.124  16.600 -0.8285 -0.1631 -0.4357
20170TIP3   OH282000   6.098   0.623   5.045 -0.4267 -0.2971  0.2639
20170TIP3    H182001   6.009   0.645   5.017 -0.9696 -2.3632  0.1504
20170TIP3    H282002   6.100   0.645   5.138 -1.8068 -2.1320  0.7882
20171TIP3   OH282003   0.376   1.827   4.434  0.4257  0.3082  0.3286
20171TIP3    H182004   0.369   1.743   4.480 -1.8457 -1.5184 -2.9204
20171TIP3    H282005   0.450   1.817   4.374 -0.6289  0.0228 -0.9881
20172TIP3   OH282006   0.360   4.114  11.496 -0.7330 -0.6511  0.4239
20172TIP3    H182007   0.434   4.160  11.456 -0.7245 -0.4410  0.6761
20172TIP3    H282008   0.315   4.182  11.546  0.1827 -1.2414  2.0967
20173TIP3   OH282009   0.598   4.180  11.868  0.0769 -0.1161 -0.4729
20173TIP3    H182010   0.692   4.192  11.883  0.0981 -1.2187  0.4161
20173TIP3    H282011   0.557   4.257  11.908  0.4447 -0.8712  1.4390
20174TIP3   OH282012   1.680   1.489   1.352 -0.6038  0.0860 -0.6452
20174TIP3    H182013   1.596   1.478   1.309 -1.0286 -0.7543  0.3639
20174TIP3    H282014   1.680   1.424   1.423  1.4939 -0.9564 -1.5179
20175TIP3   OH282015   2.249   2.764   2.592  0.4934  0.3365  0.2556
20175TIP3    H182016   2.216   2.708   2.662 -2.8002  1.9000  0.1182
20175TIP3    H282017   2.264   2.704   2.518  1.8080 -0.9796  1.5120
20176TIP3   OH282018   0.761   3.678  12.075 -0.8600  0.3218 -0.1673
20176TIP3    H182019   0.780   3.739  12.004  0.1088 -0.8707 -0.9706
20176TIP3    H282020   0.816   3.709  12.147  0.6274 -0.3093 -0.9801
20177TIP3   OH282021   3.851   6.573   2.720  0.0303  0.1013 -0.3940
20177TIP3    H182022   3.928   6.600   2.669  1.6057 -0.7067  1.4022
20177TIP3    H282023   3.884   6.504   2.778 -1.7435  0.6683  1.4088
20178TIP3   OH282024   1.476   3.795   3.988 -0.5057  0.4648  0.3918
20178TIP3    H182025   1.443   3.881   3.961  1.6770  1.3377  0.3522
20178TIP3    H282026   1.506   3.754   3.906  1.6067  1.1185  0.7807
20179TIP3   OH282027   2.702   0.095   3.935 -0.1861  0.8602 -0.1832
20179TIP3    H182028   2.652   0.092   4.016  0.0554 -1.9955 -0.0396
20179TIP3    H282029   2.793   0.102   3.963  0.3122 -3.8310  0.2193
20180TIP3   OH282030   3.970   2.869  13.409  0.4567  0.3898 -0.7523
20180TIP3    H182031   3.902   2.806  13.433  0.9851  0.0203 -0.2031
20180TIP3    H282032   3.995   2.910  13.492  0.5736  0.8613 -1.0187
20181TIP3   OH282033   1.873   5.724   0.890 -0.2446  0.1495  0.2117
20181TIP3    H182034   1.869   5.628   0.885 -2.2952  0.1291  1.0146
20181TIP3    H282035   1.923   5.750   0.813  1.1424 -1.5966  0.4568
20182TIP3   OH282036   6.228   0.929   5.774  0.5307 -0.4649  0.1975
20182TIP3    H182037   6.157   0.865   5.772 -0.5486  0.5652  2.2184
20182TIP3    H282038   6.262   0.925   5.863  3.3787 -1.2129 -0.8066
20183TIP3   OH282039   4.378   4.926  10.634  0.4063  0.1976  0.0083
20183TIP3    H182040   4.306   4.973  10.592  0.9415  0.8011 -0.2404
20183TIP3    H282041   4.372   4.949  10.726 -0.6834 -1.0151  0.2826
20184TIP3   OH282042   1.042   5.736   2.337  0.0447 -0.1660 -0.2643
20184TIP3    H182043   0.991   5.684   2.399  0.0899 -1.0963 -0.9849
20184TIP3    H282044   0.997   5.726   2.254  1.4287 -1.0838 -0.9421
20185TIP3   OH282045   6.056   1.163   5.609  0.4962 -0.0743 -0.3195
20185TIP3    H182046   6.092   1.168   5.698 -0.6198  1.1970  0.1022
20185TIP3    H282047   6.087   1.080   5.575  0.0991 -1.0849  1.6529
20186TIP3   OH282048   2.628   1.021  13.522  0.3153  0.3899  0.4615
20186TIP3    H182049   2.579   1.022  13.604 -0.8110  1.4726 -0.1905
20186TIP3    H282050   2.641   0.929  13.503 -0.8180  0.0926  1.0488
20187TIP3   OH282051   5.742   5.184   1.667  0.3187  0.3385  0.0299
20187TIP3    H182052   5.755   5.160   1.575  0.9701  1.5878 -0.2248
20187TIP3    H282053   5.713   5.103   1.709  0.7766 -0.4435 -1.1148
20188TIP3   OH282054   1.877   6.827   1.312  0.1510 -0.1229  0.0640
20188TIP3    H182055   1.814   6.809   1.242  1.3181 -1.1082 -0.7767
20188TIP3    H282056   1.950   6.870   1.268  1.1487 -1.2528  0.5458
20189TIP3   OH282057   4.919   2.727   1.731 -0.4424 -0.2956  0.0920
20189TIP3    H182058   4.967   2.777   1.665  0.8964 -0.2117  1.0927
20189TIP3    H282059   4.940   2.636   1.713 -1.4723 -0.4057 -0.6429
20190TIP3   OH282060   0.991   4.185  10.416  0.2972  0.0798  0.4337
20190TIP3    H182061   0.914   4.190  10.472  2.0338 -1.4451  3.1667
20190TIP3    H282062   1.044   4.261  10.440 -0.1175  0.9340 -1.1891
20191TIP3   OH282063   6.188   6.127   2.496  0.3134  0.0643 -0.2035
20191TIP3    H182064   6.277   6.092   2.489  0.0078 -0.6341 -0.7544
20191TIP3    H282065   6.135   6.052   2.524 -0.4992 -0.1965 -2.2448
20192TIP3   OH282066   1.570   5.903  14.505  0.1741 -0.1040 -0.4088
20192TIP3    H182067   1.585   5.947  14.421  2.7626  0.0680  0.0528
20192TIP3    H282068   1.554   5.973  14.567 -1.8098 -0.2353 -0.7109
20193TIP3   OH282069   2.848   4.417   1.088 -0.1430 -0.2199 -0.0083
20193TIP3    H182070   2.774   4.439   1.032  1.2260  2.5253 -0.9306
20193TIP3    H282071   2.914   4.384   1.028  0.6588  0.9433  0.1847
20194TIP3   OH282072   2.917   4.843   6.049 -0.0695  0.4542 -0.0677
20194TIP3    H182073   2.900   4.937   6.050  0.0968  0.4995 -0.6409
20194TIP3    H282074   2.901   4.813   6.138  0.4641  1.1374  0.2641
20195TIP3   OH282075   0.783   1.658   5.043 -0.4545  0.2263 -0.1486
20195TIP3    H182076   0.804   1.615   5.126 -0.2809 -0.4538 -0.5346
20195TIP3    H282077   0.805   1.750   5.057 -1.4853  0.3236  0.9228
20196TIP3   OH282078   2.840   6.464  15.857 -0.2650  0.1534  0.2059
20196TIP3    H182079   2.855   6.440  15.949  1.8731 -1.7962 -0.5499
20196TIP3    H282080   2.830   6.380  15.812  0.3897  0.9856 -1.5756
20197TIP3   OH282081   6.424   3.631   1.881  0.0835 -0.1310  0.1026
20197TIP3    H182082   6.434   3.599   1.791 -1.6492 -2.5124  0.6530
20197TIP3    H282083   6.355   3.697   1.876  0.7374  0.5234 -0.4486
20198TIP3   OH282084   6.783   4.235   2.479  0.5446 -0.3472  0.1311
20198TIP3    H182085   6.864   4.278   2.504  0.1986 -0.9776  2.5543
20198TIP3    H282086   6.716   4.303   2.484  0.4129 -0.5575  1.4053
20199TIP3   OH282087   2.402   1.505  12.480  0.7747 -0.3938  0.0118
20199TIP3    H182088   2.390   1.432  12.541  1.4029 -0.3685  0.1812
20199TIP3    H282089   2.321   1.554  12.484  1.3141  0.4419  1.9423
20200TIP3   OH282090   1.658   1.389  12.530  0.2929  0.0062  0.0231
20200TIP3    H182091   1.713   1.446  12.476 -2.2711  1.7745 -0.9358
20200TIP3    H282092   1.713   1.366  12.605  2.5315  1.0526 -1.2049
20201TIP3   OH282093   6.698   2.721  15.627 -0.3047  0.2716  0.0396
20201TIP3    H182094   6.792   2.743  15.628 -0.0856 -0.5884  1.5063
20201TIP3    H282095   6.695   2.628  15.647 -1.5059  0.5296  1.2493
20202TIP3   OH282096   0.926   1.024  12.614 -0.7590 -0.0872 -0.1477
20202TIP3    H182097   0.847   1.039  12.666  0.8645 -0.3640  2.5651
20202TIP3    H282098   0.918   0.934  12.583 -2.2071  0.3992 -1.2909
20203TIP3   OH282099   2.584   1.071   3.557 -0.2862 -0.4476 -0.2561
20203TIP3    H182100   2.582   1.087   3.652 -0.2742 -2.5398  0.1425
20203TIP3    H282101   2.577   1.158   3.518 -0.5324  0.4449  1.6620
20204TIP3   OH282102   2.895   5.968   5.031 -0.2862 -0.1470 -0.0851
20204TIP3    H182103   2.848   5.903   5.084 -0.6253  0.3648  0.2506
20204TIP3    H282104   2.973   5.922   5.000  1.1481  0.1636  2.6961
20205TIP3   OH282105   4.890   3.509  10.322  0.1123  0.5721 -0.2829
20205TIP3    H182106   4.978   3.500  10.286  0.1662  1.3073 -0.3523
20205TIP3    H282107   4.888   3.449  10.396  0.4400  0.0408 -0.6957
20206TIP3   OH282108   5.526   6.371  13.899 -0.2072 -0.0716 -0.1555
20206TIP3    H182109   5.538   6.286  13.856  0.0100  0.8904 -2.1076
20206TIP3    H282110   5.577   6.364  13.980  1.5070 -1.1185 -1.2543
20207TIP3   OH282111   3.689   3.405   3.905  0.6122 -0.3891  0.6176
20207TIP3    H182112   3.635   3.476   3.940  0.9486 -1.3788  3.3403
20207TIP3    H282113   3.649   3.385   3.820 -1.6360  0.7243  1.3208
20208TIP3   OH282114   1.104   1.615   5.559 -0.0759  0.3356 -0.2820
20208TIP3    H182115   1.123   1.524   5.583 -1.6812 -0.1047 -0.5284
20208TIP3    H282116   1.164   1.667   5.611  0.9971 -0.8795 -0.2646
20209TIP3   OH282117   1.060   5.859   4.419 -0.2115  0.1487  0.0850
20209TIP3    H182118   1.095   5.948   4.424 -1.0441  0.6127 -1.6574
20209TIP3    H282119   1.025   5.851   4.330 -4.2787 -0.3467  1.5203
20210TIP3   OH282120   2.963   5.249   4.167 -0.3639 -0.3358  0.1006
20210TIP3    H182121   2.951   5.294   4.083 -0.2318  1.8992  1.2287
20210TIP3    H282122   3.058   5.250   4.181 -0.5433  1.8148  1.5327
20211TIP3   OH282123   1.323   5.800  14.150 -0.0252  0.1516  0.3923
20211TIP3    H182124   1.310   5.743  14.226 -2.4408  1.7437  1.2791
20211TIP3    H282125   1.237   5.805  14.109  0.9788  0.2552 -1.8435
20212TIP3   OH282126   3.623   2.642  11.378  0.1982  0.3142  0.0450
20212TIP3    H182127   3.677   2.707  11.422  0.3604  0.1277  0.1224
20212TIP3    H282128   3.686   2.586  11.332  0.1671 -0.7190  1.2264
20213TIP3   OH282129   2.310   6.461  14.000  0.1437  0.2692  0.2096
20213TIP3    H182130   2.226   6.487  14.037 -0.0299  2.8839 -1.7504
20213TIP3    H282131   2.293   6.446  13.907  1.1811 -2.9711  0.4140
20214TIP3   OH282132   6.044   4.563  12.775 -0.2884 -0.1551 -0.3495
20214TIP3    H182133   6.004   4.639  12.734  1.3474  0.4322 -0.9345
20214TIP3    H282134   6.122   4.545  12.722  1.1688 -0.1858  1.6802
20215TIP3   OH282135   4.086   0.705   4.837  0.1686 -0.3567  0.0044
20215TIP3    H182136   4.019   0.769   4.815  1.3709  0.5314 -1.1826
20215TIP3    H282137   4.131   0.742   4.913 -0.6873 -0.9793  0.8359
20216TIP3   OH282138   4.938   1.470   2.709 -0.4529 -0.2276  0.1636
20216TIP3    H182139   4.959   1.399   2.771 -1.4987  0.1908  1.0230
20216TIP3    H282140   4.981   1.547   2.746  1.1313 -0.4658 -1.0478
20217TIP3   OH282141   3.618   3.613   6.306 -0.0766  0.0970 -0.5800
20217TIP3    H182142   3.569   3.531   6.301 -0.4729  0.2500  0.5634
20217TIP3    H282143   3.704   3.592   6.270 -0.3012 -0.7150 -0.6547
20218TIP3   OH282144   5.167   3.147  16.718 -0.0914  0.5244 -0.1184
20218TIP3    H182145   5.192   3.225  16.767 -2.7762  0.8317  0.9579
20218TIP3    H282146   5.167   3.077  16.782 -2.3283  0.6631  0.1198
20219TIP3   OH282147   1.277   3.924  11.764 -0.4110  0.2406  0.1219
20219TIP3    H182148   1.276   4.003  11.818  1.2130  1.0926 -0.9959
20219TIP3    H282149   1.306   3.854  11.823 -0.6522  0.7297  0.8279
20220TIP3   OH282150   4.290   2.348  16.100  0.4970 -0.2412 -0.2324
20220TIP3    H182151   4.338   2.429  16.112  0.6233 -0.2340 -0.7577
20220TIP3    H282152   4.353   2.289  16.058 -0.5448  0.4574 -2.9828
20221TIP3   OH282153   1.730   4.702   1.121 -1.0071 -0.2257  0.3708
20221TIP3    H182154   1.696   4.791   1.130  3.9057  2.2121 -1.5678
20221TIP3    H282155   1.705   4.675   1.033 -0.6553  0.1435  0.1585
20222TIP3   OH282156   6.422   0.861   1.161  0.9244 -0.1941  0.0121
20222TIP3    H182157   6.457   0.950   1.169  0.5735 -0.1458  1.2715
20222TIP3    H282158   6.398   0.837   1.250  1.1866 -1.6329 -0.2808
20223TIP3   OH282159   2.122   4.022   4.833 -0.1523  0.2978  0.0103
20223TIP3    H182160   2.097   4.098   4.885  0.5707 -0.7461  1.9809
20223TIP3    H282161   2.064   3.952   4.863 -1.4149  0.2140 -2.4038
20224TIP3   OH282162   6.295   2.418  15.007  0.6320 -0.2158  0.5209
20224TIP3    H182163   6.375   2.422  14.954 -0.4623  1.2418 -1.1444
20224TIP3    H282164   6.230   2.377  14.950 -0.0679 -0.5255  1.5111
20225TIP3   OH282165   1.614   1.824   5.587 -0.2518 -0.3761 -0.5746
20225TIP3    H182166   1.523   1.805   5.563  0.1105 -1.7282 -0.9614
20225TIP3    H282167   1.659   1.834   5.503  0.3092 -1.5096 -0.4160
20226TIP3   OH282168   2.384   0.912   6.410  0.2497 -0.1974  0.0625
20226TIP3    H182169   2.322   0.844   6.435  0.4288  0.2057  1.6881
20226TIP3    H282170   2.337   0.967   6.348 -0.2743 -1.1386 -0.3849
20227TIP3   OH282171   2.613   3.602  13.044 -0.1041 -0.1762  0.0895
20227TIP3    H182172   2.552   3.650  13.100 -1.4890  1.7977 -2.8781
20227TIP3    H282173   2.557   3.543  12.993  0.4678  1.0754 -2.1067
20228TIP3   OH282174   3.654   2.988  14.154  0.5769 -0.2356  0.0117
20228TIP3    H182175   3.688   2.935  14.226  0.7111 -0.2878 -0.0886
20228TIP3    H282176   3.620   2.925  14.091  1.3648 -0.2404 -0.4238
20229TIP3   OH282177   4.692   5.232   2.763  0.6194  0.1512 -0.0039
20229TIP3    H182178   4.704   5.137   2.763  0.3908  0.1044  1.1073
20229TIP3    H282179   4.765   5.266   2.711  1.6118 -0.5481  0.8883
20230TIP3   OH282180   1.778   6.679   1.560  0.6295 -0.0726 -0.4445
20230TIP3    H182181   1.824   6.754   1.523  0.5139 -0.1076 -0.6614
20230TIP3    H282182   1.690   6.684   1.522  0.5136 -0.1153 -0.1842
20231TIP3   OH282183   4.149   0.394   3.706 -0.2250 -0.0919 -0.3093
20231TIP3    H182184   4.186   0.393   3.795  0.5401  2.4340 -0.5169
20231TIP3    H282185   4.055   0.402   3.720 -0.2845 -1.6017  0.2499
20232TIP3   OH282186   1.191   4.779  15.614 -0.0777 -0.6030 -0.0822
20232TIP3    H182187   1.169   4.853  15.558 -0.4640 -1.4590 -1.1038
20232TIP3    H282188   1.106   4.738  15.634  0.1095 -0.6503  0.6495
20233TIP3   OH282189   6.316   1.978  16.616  0.0599 -0.2831  0.2899
20233TIP3    H182190   6.255   2.042  16.581  2.4216  1.2652 -1.2593
20233TIP3    H282191   6.340   2.012  16.703  1.0503  0.8303 -0.3899
20234TIP3   OH282192   4.366   0.506   4.889 -0.5167 -0.2352  0.3150
20234TIP3    H182193   4.285   0.470   4.925 -0.5238 -0.8348 -0.2800
20234TIP3    H282194   4.339   0.548   4.807 -0.9089  3.1689  2.0171
20235TIP3   OH282195   2.820   0.329   4.782  0.0252 -0.1224 -0.1081
20235TIP3    H182196   2.780   0.242   4.788 -0.1749 -0.1379 -1.3388
20235TIP3    H282197   2.781   0.379   4.854 -2.9116  0.1103 -1.6933
20236TIP3   OH282198   5.734   2.386   3.438 -0.7196  0.0471 -0.7056
20236TIP3    H182199   5.661   2.443   3.465 -0.9506 -0.4597 -0.2316
20236TIP3    H282200   5.790   2.443   3.386 -0.4159  1.0080  0.5963
20237TIP3   OH282201   2.696   0.747   6.540 -0.6829  0.0018 -0.2734
20237TIP3    H182202   2.688   0.658   6.506 -1.4862 -0.2288  0.4747
20237TIP3    H282203   2.770   0.743   6.601 -0.5299 -0.0829 -0.4645
20238TIP3   OH282204   3.570   0.180  11.010 -0.4503 -0.6718  0.6019
20238TIP3    H182205   3.611   0.262  10.981 -1.3999  0.0124  1.1505
20238TIP3    H282206   3.590   0.118  10.939  2.6799 -0.7940  1.4325
20239TIP3   OH282207   0.415   0.815  15.791  0.5060  0.5256 -0.0965
20239TIP3    H182208   0.473   0.748  15.754  0.8440  0.7174  0.0873
20239TIP3    H282209   0.352   0.765  15.843  0.1808  0.2745 -0.7158
20240TIP3   OH282210   4.981   5.544   4.150  0.0052 -0.4123  0.3015
20240TIP3    H182211   5.072   5.535   4.179  0.5107  1.2041 -0.6051
20240TIP3    H282212   4.966   5.639   4.150  0.0647 -0.1439 -4.3710
20241TIP3   OH282213   1.156   4.417   2.321 -0.5547  0.6531  0.4795
20241TIP3    H182214   1.080   4.468   2.350 -0.9102 -0.7735  2.2539
20241TIP3    H282215   1.127   4.326   2.326  1.3633  0.0402  1.6187
20242TIP3   OH282216   1.871   3.489   0.558  0.3087 -0.0159  0.3405
20242TIP3    H182217   1.909   3.447   0.634  0.3137  1.4865  1.2080
20242TIP3    H282218   1.928   3.465   0.485  0.7576 -0.8128  0.9458
20243TIP3   OH282219   6.406   5.856  10.874  0.2645  0.0247  0.1111
20243TIP3    H182220   6.448   5.770  10.868 -0.3709 -0.3880  1.1751
20243TIP3    H282221   6.393   5.882  10.783  1.1044 -0.6879 -0.2292
20244TIP3   OH282222   5.033   0.794  12.431 -0.3754  0.1900 -0.3328
20244TIP3    H182223   4.953   0.744  12.444 -0.2891 -0.6054 -2.5074
20244TIP3    H282224   5.004   0.884  12.420 -0.7912  0.1866  0.6186
20245TIP3   OH282225   5.698   3.482   1.615 -0.0474  0.1015 -0.1382
20245TIP3    H182226   5.655   3.445   1.692 -1.1615  0.5404 -0.5321
20245TIP3    H282227   5.743   3.560   1.647 -0.8188  0.4918 -0.0005
20246TIP3   OH282228   0.865   2.140   1.212  0.6677 -0.1893  0.0078
20246TIP3    H182229   0.809   2.133   1.135 -0.2697 -0.0238  0.6535
20246TIP3    H282230   0.928   2.068   1.203 -0.8099 -1.5772  0.1795
20247TIP3   OH282231   2.480   3.379   3.808  0.1888 -0.1329 -0.3172
20247TIP3    H182232   2.452   3.409   3.721 -0.6393 -0.3199 -0.1187
20247TIP3    H282233   2.509   3.288   3.794 -3.3696 -1.4929  0.1956
20248TIP3   OH282234   6.483   3.711  11.476  0.5910 -0.1136  0.2992
20248TIP3    H182235   6.395   3.749  11.481  0.6501 -0.0489  0.9096
20248TIP3    H282236   6.495   3.691  11.383 -0.4764 -1.0933  0.3545
20249TIP3   OH282237   0.479   5.773   2.966  0.3841 -0.4719  0.0736
20249TIP3    H182238   0.439   5.700   2.919  1.6861 -0.9885 -0.2683
20249TIP3    H282239   0.409   5.838   2.974  0.0350 -0.4638 -2.3742
20250TIP3   OH282240   2.652   3.760   1.327 -0.2118  0.4300  0.0677
20250TIP3    H182241   2.722   3.761   1.392 -0.9451  0.2792  0.8643
20250TIP3    H282242   2.689   3.712   1.253  0.5408  0.3901  0.4610
20251TIP3   OH282243   4.109   0.716  14.105  0.5262  0.2350  0.3284
20251TIP3    H182244   4.093   0.736  14.197  1.4251  0.9269  0.3544
20251TIP3    H282245   4.022   0.718  14.064  0.1100 -0.1881  1.1744
20252TIP3   OH282246   2.725   5.157   2.374  0.4689 -0.4262 -0.2241
20252TIP3    H182247   2.820   5.148   2.380  0.5634  0.1860 -0.6867
20252TIP3    H282248   2.711   5.251   2.361 -0.1810 -0.5533 -0.4709
20253TIP3   OH282249   4.185   1.318   5.602 -0.8420 -0.8894 -0.5312
20253TIP3    H182250   4.196   1.373   5.524 -0.8612  0.4226  0.3495
20253TIP3    H282251   4.262   1.261   5.602 -0.3304 -0.2242 -0.9917
20254TIP3   OH282252   2.688   3.043  16.810  0.6108  0.4250  0.9232
20254TIP3    H182253   2.711   3.072  16.722 -0.2861  0.6332  0.7516
20254TIP3    H282254   2.722   3.112  16.868  2.5770 -0.4360  0.9041
20255TIP3   OH282255   2.946   0.962  15.993  0.3239 -0.0492  0.4890
20255TIP3    H182256   2.897   1.021  16.050 -0.1430  0.3607 -0.3092
20255TIP3    H282257   2.941   1.003  15.906  1.0693 -0.6209  0.1608
20256TIP3   OH282258   3.344   2.317   3.580 -0.4998  0.7857  0.6076
20256TIP3    H182259   3.406   2.369   3.529 -0.1118  0.1533  0.4089
20256TIP3    H282260   3.393   2.237   3.600 -0.3742  1.3209  2.6205
20257TIP3   OH282261   4.444   0.581  16.314  0.0242  0.7742  0.2710
20257TIP3    H182262   4.401   0.537  16.387 -1.1055  1.9600  0.3506
20257TIP3    H282263   4.493   0.511  16.270  0.2906 -0.0521  1.8326
20258TIP3   OH282264   1.647   0.857   1.813 -0.0549 -0.5014 -0.1020
20258TIP3    H182265   1.713   0.887   1.875 -0.1853 -0.2003 -0.1054
20258TIP3    H282266   1.563   0.879   1.855 -0.1459  0.4223 -0.7212
20259TIP3   OH282267   3.266   6.774   2.032  0.2707  0.2430  0.6754
20259TIP3    H182268   3.332   6.723   1.985  1.1411 -0.0599  2.1668
20259TIP3    H282269   3.281   6.864   2.004  0.2522 -0.0086 -0.1974
20260TIP3   OH282270   3.883   4.517   1.104  0.1252  0.1538 -0.7635
20260TIP3    H182271   3.807   4.525   1.047 -0.3088 -0.9126 -0.3661
20260TIP3    H282272   3.952   4.567   1.059 -0.6648  0.7224 -1.3672
20261TIP3   OH282273   1.234   4.027  13.032  0.0921  0.5830 -0.2730
20261TIP3    H182274   1.235   4.058  12.941  0.6618 -1.8807 -1.1862
20261TIP3    H282275   1.148   3.986  13.042  0.4837 -0.2020 -0.0990
20262TIP3   OH282276   3.390   5.077   5.753  0.2636  0.4023  0.0140
20262TIP3    H182277   3.473   5.045   5.788 -1.0404 -1.5567  1.5080
20262TIP3    H282278   3.355   5.134   5.821 -0.3618 -0.0986  0.1233
20263TIP3   OH282279   5.089   1.259   5.681 -0.7940  0.9295 -0.0763
20263TIP3    H182280   5.130   1.249   5.595 -0.7723  0.4207 -0.0095
20263TIP3    H282281   5.149   1.315   5.730  0.9488 -1.4820  0.7344
20264TIP3   OH282282   6.012   2.769   3.399 -0.5289  0.1509  0.3284
20264TIP3    H182283   5.933   2.815   3.371 -1.8403 -0.8156  2.1907
20264TIP3    H282284   6.046   2.822   3.472 -0.9411 -0.7316  1.1921
20265TIP3   OH282285   0.662   5.737   5.487 -0.2209  0.4449  0.2013
20265TIP3    H182286   0.741   5.732   5.542  0.2333  1.4968 -0.3385
20265TIP3    H282287   0.693   5.775   5.405 -1.1115 -0.0818 -0.3901
20266TIP3   OH282288   5.954   0.715  12.642  0.1371  0.1903 -0.7205
20266TIP3    H182289   5.910   0.631  12.629  1.9766 -1.5112  2.5958
20266TIP3    H282290   5.887   0.781  12.625 -1.9996 -2.0327 -1.3820
20267TIP3   OH282291   4.473   2.508  11.865  0.5605  0.5733 -0.5397
20267TIP3    H182292   4.383   2.523  11.895  0.2912  0.1167 -1.0847
20267TIP3    H282293   4.466   2.506  11.769  1.4314  2.2321 -0.6619
20268TIP3   OH282294   3.310   0.715  12.121  0.3827 -0.2207 -0.1460
20268TIP3    H182295   3.327   0.676  12.035  1.0052 -1.7374  0.6311
20268TIP3    H282296   3.239   0.664  12.158  0.0128  0.5210  0.1964
20269TIP3   OH282297   5.729   5.184   1.383 -0.0335 -0.2625  0.2310
20269TIP3    H182298   5.812   5.137   1.393 -0.9898 -1.7162  1.8537
20269TIP3    H282299   5.690   5.148   1.304  1.4201  1.4069 -1.3462
20270TIP3   OH282300   6.796   0.080   5.651  0.2912 -0.0802  0.3658
20270TIP3    H182301   6.878   0.127   5.639  0.3283 -0.1333  0.4157
20270TIP3    H282302   6.796   0.054   5.743  0.3686 -0.3684  0.2819
20271TIP3   OH282303   3.958   4.157   3.047 -0.0761 -0.3477 -0.8531
20271TIP3    H182304   3.921   4.240   3.075 -1.2744 -0.3856 -2.1877
20271TIP3    H282305   4.026   4.138   3.111 -1.2876  0.5419  0.7728
20272TIP3   OH282306   0.420   4.973  12.855  0.3072 -0.1548 -0.5346
20272TIP3    H182307   0.470   4.992  12.934 -1.9035 -1.0890  1.2188
20272TIP3    H282308   0.379   5.057  12.832  1.9510  0.4238 -1.5173
20273TIP3   OH282309   3.396   0.424   2.911 -0.6461 -0.2060  0.1958
20273TIP3    H182310   3.447   0.404   2.990  0.1869 -1.3415 -0.6001
20273TIP3    H282311   3.456   0.474   2.856 -0.8667 -0.3590 -0.1808
20274TIP3   OH282312   1.319   0.044  15.512 -0.1236 -0.1897  0.5102
20274TIP3    H182313   1.334   0.018  15.603  2.3440 -1.6374 -0.2147
20274TIP3    H282314   1.292  -0.036  15.468 -1.1213  0.4580 -0.0924
20275TIP3   OH282315   6.327   5.491   2.255 -0.0413  0.4171 -0.6946
20275TIP3    H182316   6.412   5.533   2.267  0.3209 -0.5281  0.1732
20275TIP3    H282317   6.276   5.518   2.331  0.0556 -0.3812 -0.3461
20276TIP3   OH282318   5.153   5.025   4.105 -0.4110  0.0948  1.2345
20276TIP3    H182319   5.082   5.056   4.161 -0.3394 -0.4507  1.6361
20276TIP3    H282320   5.109   4.980   4.033 -0.4907  0.2709  1.1744
20277TIP3   OH282321   3.587   4.531   2.824 -0.8526  0.2581  0.1383
20277TIP3    H182322   3.654   4.496   2.883 -1.7308  0.6449  1.4148
20277TIP3    H282323   3.628   4.606   2.782  0.1639 -0.6965 -0.6436
20278TIP3   OH282324   2.126   2.633   0.239 -0.4070  0.0551 -0.1780
20278TIP3    H182325   2.092   2.591   0.318 -0.9560  0.8452  0.0190
20278TIP3    H282326   2.183   2.567   0.200  0.6934  0.0100  1.4125
20279TIP3   OH282327   0.212   0.994  13.307  0.5173 -0.3226  0.0772
20279TIP3    H182328   0.305   1.006  13.326  0.7568  0.3001 -1.3510
20279TIP3    H282329   0.177   0.951  13.385  1.9075 -0.1752  0.8166
20280LIG      O82330   3.078   3.094   7.958  0.8379 -0.2692  0.1433
20280LIG     C182331   3.053   3.070   7.821  0.4286 -0.6680 -0.1765
20280LIG     C282332   3.085   3.196   7.739  0.2893  0.4808 -0.1848
20280LIG     C382333   3.130   2.950   7.784  0.2743  0.5941  0.4396
20280LIG     H182334   2.945   3.049   7.807  0.0606  1.8667 -1.7858
20280LIG     H282335   3.188   3.225   7.768  1.1841 -0.8740 -1.7949
20280LIG     H382336   3.006   3.272   7.756 -2.3374 -2.3124  1.0248
20280LIG     H482337   3.087   3.176   7.629 -1.4194  0.1962 -0.1968
20280LIG     H582338   3.128   2.939   7.674  0.4817  0.7146  0.4229
20280LIG     H682339   3.076   2.867   7.835  1.3938 -0.3369  0.1482
20280LIG     H782340   3.237   2.957   7.814  0.8381 -2.1514 -0.6284
20280LIG     H882341   3.023   3.026   7.998 -0.5531 -0.5548 -2.0686
   6.83120   6.83120  17.20549
